/*--------------------------------*- C++ -*----------------------------------*\
| =========                 |                                                 |
| \\      /  F ield         | OpenFOAM: The Open Source CFD Toolbox           |
|  \\    /   O peration     | Version:  2306                                  |
|   \\  /    A nd           | Website:  www.openfoam.com                      |
|    \\/     M anipulation  |                                                 |
\*---------------------------------------------------------------------------*/
FoamFile
{
    version     2.0;
    format      ascii;
    arch        "LSB;label=32;scalar=64";
    class       surfaceScalarField;
    location    "38";
    object      phi;
}
// * * * * * * * * * * * * * * * * * * * * * * * * * * * * * * * * * * * * * //

dimensions      [0 3 -1 0 0 0 0];

oriented        oriented;

internalField   nonuniform List<scalar> 
17370
(
-0.0910992
0.0935444
0.286566
-0.074953
0.0569523
0.364776
-0.0409349
0.0299503
0.427153
-0.0211939
0.0155917
0.504854
-0.0113389
0.00863662
0.602104
-0.00650241
0.00505133
0.720509
-0.00383912
0.00297691
0.863769
-0.00221949
0.00165117
1.03602
-0.00112634
0.000709247
1.24292
-0.000301127
-9.22282e-05
1.49158
0.000476423
-0.000880561
1.4916
0.00128129
-0.00178588
1.24319
0.00233778
-0.00308157
1.03638
0.00393614
-0.00514307
0.864113
0.00658916
-0.00871601
0.721184
0.01141
-0.0156531
0.603458
0.0212465
-0.0299933
0.508186
0.0409692
-0.0569781
0.432177
0.0749729
-0.093556
0.365359
0.0911111
0.1979
-0.127344
0.0881392
0.0392046
-0.364734
0.353783
-0.0726352
0.0835855
-0.446564
0.454365
-0.0817208
0.0739204
-0.520969
0.529522
-0.0658117
0.0572579
-0.612846
0.621014
-0.0495056
0.0413373
-0.726997
0.733785
-0.034408
0.0276198
-0.867514
0.872438
-0.0222829
0.0173589
-1.03855
1.04189
-0.0136536
0.0103146
-1.24471
1.24711
-0.00776756
0.00536152
-1.49283
1.49485
-0.00339818
0.00138632
-1.49269
1.4945
0.00042967
-0.00224436
-1.2441
1.24602
0.00421755
-0.00613081
-1.0376
1.04009
0.00847512
-0.0109658
-0.86616
0.869822
0.0142477
-0.0179092
-0.724482
0.729783
0.0227921
-0.0280933
-0.608892
0.615781
0.0348403
-0.0417298
-0.514993
0.522705
0.0498536
-0.0575655
-0.439772
0.447838
0.0660724
-0.0741383
-0.375161
0.377001
0.0818891
-0.0837288
-0.256924
0.223432
0.0727345
-0.0392431
-0.0686429
0.0589109
0.00973203
-0.0520909
0.0587938
-0.374533
0.36783
-0.0579113
0.0540873
-0.453823
0.457647
-0.04873
0.0443908
-0.527735
0.532074
-0.0401664
0.0363839
-0.621093
0.624876
-0.0321632
0.0281007
-0.734869
0.738931
-0.0236445
0.0196686
-0.87404
0.878015
-0.0155484
0.0120431
-1.04339
1.04689
-0.00848561
0.00542934
-1.24865
1.25171
-0.00220339
-0.00079132
-1.49694
1.49993
0.0037656
-0.00693509
-1.49743
1.5006
0.00991204
-0.0133668
-1.2501
1.25356
0.0167738
-0.0207888
-1.04573
1.04975
0.024678
-0.0290501
-0.877329
0.881701
0.03304
-0.037181
-0.739326
0.743467
0.0408908
-0.0450388
-0.626359
0.630507
0.0493147
-0.0546116
-0.53495
0.540247
0.0583729
-0.0591765
-0.457933
0.458737
0.0523792
-0.03202
-0.336417
0.316058
0.00978079
-0.0685174
0.0587366
-0.0531485
0.0490963
0.00405216
-0.0331878
0.0436898
-0.35835
0.347848
-0.0474136
0.0468308
-0.459496
0.460078
-0.0438565
0.0405876
-0.536007
0.539276
-0.0368771
0.0335433
-0.628424
0.631758
-0.0299845
0.0268463
-0.742239
0.745377
-0.0235162
0.0203675
-0.881556
0.884704
-0.0167886
0.0134234
-1.05037
1.05374
-0.00970316
0.00627762
-1.255
1.25842
-0.0024642
-0.00117627
-1.50331
1.50695
0.00478992
-0.00852449
-1.50413
1.50786
0.0118424
-0.0154187
-1.25718
1.26075
0.018641
-0.0220625
-1.05352
1.05694
0.0250791
-0.0282821
-0.885311
0.888514
0.031314
-0.0347598
-0.746966
0.750411
0.0379908
-0.0415906
-0.634534
0.638134
0.044765
-0.0476361
-0.544485
0.547356
0.048114
-0.0442449
-0.456918
0.453049
0.0335713
-0.0162367
-0.296709
0.279375
0.00411033
-0.0529235
0.0488131
-0.0459704
0.0434422
0.00252818
-0.0229496
0.0333288
-0.337194
0.326815
-0.0391206
0.0401122
-0.459778
0.458787
-0.0388996
0.0366018
-0.541935
0.544233
-0.0339615
0.0314019
-0.634739
0.637298
-0.028405
0.0255644
-0.748437
0.751278
-0.022358
0.0193889
-0.887705
0.890674
-0.0160968
0.0130083
-1.05689
1.05998
-0.00948572
0.00610019
-1.26183
1.26521
-0.00219293
-0.00161196
-1.5107
1.51451
0.005383
-0.00918583
-1.51168
1.51548
0.0124287
-0.0157599
-1.26423
1.26756
0.0186581
-0.0217393
-1.06011
1.06319
0.0245285
-0.0275582
-0.891663
0.894692
0.0302522
-0.0330969
-0.753607
0.756452
0.0355193
-0.0380137
-0.641153
0.643647
0.0401879
-0.0412425
-0.549189
0.550243
0.0400901
-0.034067
-0.447876
0.441852
0.0234383
-0.0102564
-0.264225
0.251043
0.00259942
-0.0456249
0.0430255
-0.0413398
0.03955
0.00178979
-0.0168855
0.0261771
-0.31693
0.307639
-0.032803
0.0349499
-0.457187
0.455041
-0.0345356
0.0328591
-0.546221
0.547897
-0.0306621
0.0285644
-0.639579
0.641677
-0.0261572
0.0238027
-0.753883
0.756238
-0.0210089
0.0182826
-0.893523
0.89625
-0.0151213
0.0121144
-1.06299
1.066
-0.00868473
0.00540481
-1.26851
1.27179
-0.00160155
-0.00212015
-1.51827
1.52199
0.00579697
-0.00946835
-1.51923
1.5229
0.0125681
-0.015756
-1.27083
1.27402
0.0185191
-0.0214061
-1.06622
1.06911
0.0238943
-0.0264519
-0.897496
0.900053
0.0286134
-0.0308259
-0.758911
0.761123
0.0327517
-0.0347647
-0.645861
0.647874
0.0362655
-0.0364663
-0.550824
0.551025
0.0340753
-0.0271153
-0.435273
0.428313
0.0174912
-0.00738775
-0.239547
0.229443
0.00187632
-0.040847
0.0389707
-0.038007
0.0366598
0.00134724
-0.0129115
0.0209104
-0.298995
0.290996
-0.0276996
0.0306456
-0.452456
0.44951
-0.0308721
0.0297672
-0.549306
0.550411
-0.0277863
0.0258833
-0.643695
0.645598
-0.0237074
0.0216071
-0.758453
0.760553
-0.0191483
0.0167196
-0.898785
0.901214
-0.0138371
0.0110163
-1.06888
1.0717
-0.00772651
0.00455001
-1.275
1.27817
-0.000862022
-0.00272862
-1.52563
1.52922
0.00626289
-0.00978466
-1.5265
1.53002
0.0127352
-0.0157209
-1.27715
1.28013
0.0182328
-0.0207649
-1.07185
1.07438
0.0228871
-0.0250424
-0.90237
0.904525
0.0268962
-0.0288253
-0.763152
0.765081
0.0305133
-0.0322768
-0.649746
0.651509
0.0331313
-0.0326101
-0.550875
0.550353
0.0293192
-0.0220765
-0.421157
0.413914
0.0136535
-0.00569061
-0.220513
0.212551
0.00145216
-0.0373349
0.0358828
-0.035482
0.0344427
0.00103934
-0.0100976
0.0168677
-0.283635
0.276865
-0.0234015
0.026811
-0.446307
0.442898
-0.0276228
0.026952
-0.551281
0.551952
-0.0252139
0.0234575
-0.647459
0.649215
-0.0214336
0.0194721
-0.762596
0.764557
-0.0171678
0.0149028
-0.903502
0.905768
-0.0122343
0.0096135
-1.07435
1.07697
-0.00652631
0.00350839
-1.28124
1.28425
2.46534e-05
-0.00345891
-1.53272
1.53615
0.00682691
-0.010148
-1.53345
1.53678
0.0128828
-0.0155902
-1.28301
1.28572
0.0178296
-0.0200672
-1.07677
1.07901
0.0219505
-0.0238702
-0.906546
0.908466
0.025519
-0.0272336
-0.766871
0.768586
0.0287258
-0.0301701
-0.653138
0.654583
0.0305275
-0.0293082
-0.549501
0.548282
0.0254273
-0.0183016
-0.40671
0.399584
0.0110024
-0.00455297
-0.205418
0.198968
0.00116652
-0.0345923
0.0334258
-0.0335295
0.0327188
0.000810697
-0.00800541
0.0136973
-0.270662
0.26497
-0.0197488
0.0233639
-0.439372
0.435756
-0.0246667
0.0242563
-0.552517
0.552928
-0.0228049
0.0211742
-0.65095
0.652581
-0.0192631
0.0174033
-0.766477
0.768337
-0.0152096
0.0130484
-0.907923
0.910084
-0.0105021
0.00801294
-1.07945
1.08194
-0.00509774
0.00224987
-1.28714
1.28999
0.00108667
-0.00434142
-1.53948
1.54273
0.00751088
-0.0105926
-1.53998
1.54306
0.0130941
-0.0155457
-1.28833
1.29078
0.0175697
-0.0195868
-1.08116
1.08318
0.0212743
-0.0229818
-0.910277
0.911984
0.0244418
-0.0259631
-0.770176
0.771697
0.0272665
-0.0283464
-0.655825
0.656905
0.0283496
-0.026492
-0.546755
0.544898
0.0222561
-0.0154525
-0.392619
0.385815
0.00910756
-0.00375194
-0.193119
0.187763
0.000965029
-0.0323752
0.0314102
-0.0320067
0.0313733
0.000633351
-0.00638517
0.0111511
-0.259769
0.255003
-0.0166085
0.0202272
-0.432139
0.42852
-0.0218624
0.0216868
-0.553252
0.553428
-0.0204799
0.0189195
-0.654218
0.655779
-0.0170788
0.0152848
-0.770169
0.771963
-0.0131727
0.0110966
-0.912129
0.914205
-0.0086531
0.00626814
-1.0843
1.08668
-0.00348086
0.000772392
-1.29271
1.29542
0.00237497
-0.00541943
-1.54586
1.5489
0.00835973
-0.0111938
-1.54602
1.54886
0.0134761
-0.0156954
-1.29315
1.29537
0.0175085
-0.0193006
-1.08511
1.0869
0.0207921
-0.022302
-0.913595
0.915105
0.0235987
-0.0249555
-0.773114
0.774471
0.026125
-0.0268234
-0.657778
0.658476
0.0264747
-0.0241078
-0.54281
0.540443
0.0196888
-0.0132915
-0.379229
0.372831
0.00772531
-0.00317523
-0.182853
0.178303
0.000820538
-0.0305308
0.0297103
-0.0308209
0.0303314
0.000489506
-0.00507323
0.00903401
-0.250667
0.246706
-0.0138466
0.0173185
-0.424985
0.421513
-0.0191523
0.0191888
-0.553541
0.553505
-0.0182043
0.0167042
-0.657374
0.658874
-0.0149116
0.0131548
-0.773736
0.775493
-0.0110854
0.00905656
-0.916166
0.918195
-0.00667879
0.00436985
-1.08894
1.09125
-0.00168553
-0.000902099
-1.298
1.30059
0.0038851
-0.00673749
-1.55181
1.55467
0.00946193
-0.0120602
-1.55157
1.55417
0.0141304
-0.0161255
-1.29752
1.29952
0.0177397
-0.0193211
-1.08862
1.0902
0.0206285
-0.0219513
-0.916523
0.917845
0.0230895
-0.0242765
-0.775725
0.776912
0.0252658
-0.0256052
-0.65897
0.659309
0.0248996
-0.022119
-0.537896
0.535116
0.0176304
-0.0116511
-0.366665
0.360685
0.00670947
-0.00275921
-0.174089
0.170138
0.000718319
-0.0289545
0.0282361
-0.0299119
0.0295449
0.000367015
-0.0039633
0.00720823
-0.24313
0.239885
-0.0113546
0.014561
-0.418195
0.414989
-0.0164601
0.01667
-0.553438
0.553228
-0.0157971
0.0143995
-0.660392
0.66179
-0.012634
0.0108888
-0.777227
0.778973
-0.00883323
0.00682852
-0.920105
0.92211
-0.0044954
0.00224675
-1.09343
1.09567
0.000344466
-0.00283209
-1.30306
1.30554
0.00567373
-0.00835695
-1.55739
1.56007
0.0108833
-0.0132526
-1.55666
1.55903
0.0151051
-0.0168606
-1.30144
1.30319
0.018265
-0.0196257
-1.09171
1.09307
0.0207413
-0.0218656
-0.91909
0.920214
0.0228388
-0.0238536
-0.777999
0.779014
0.0245962
-0.0246664
-0.659504
0.659574
0.023585
-0.0204745
-0.532196
0.529086
0.0159915
-0.0104053
-0.354933
0.349347
0.00596016
-0.00245875
-0.166447
0.162946
0.000646219
-0.0275688
0.0269225
-0.0292411
0.0289847
0.000256419
-0.00297548
0.00556407
-0.236993
0.234405
-0.00903549
0.0118864
-0.411993
0.409142
-0.0137306
0.0140363
-0.553042
0.552737
-0.0132301
0.0119011
-0.663232
0.664561
-0.0101403
0.00838529
-0.780691
0.782446
-0.00632527
0.00432906
-0.923983
0.925979
-0.00202336
-0.000180593
-1.09779
1.1
0.00271585
-0.0051169
-1.30791
1.31031
0.007825
-0.0103421
-1.56263
1.56515
0.012668
-0.0148031
-1.56128
1.56341
0.0164321
-0.0179387
-1.30487
1.30638
0.0191181
-0.0202417
-1.09436
1.09548
0.021154
-0.0220738
-0.921269
0.922189
0.0228725
-0.0236906
-0.779911
0.780729
0.0241835
-0.023988
-0.659478
0.659282
0.0225491
-0.0191618
-0.525871
0.522483
0.0147178
-0.00947521
-0.343971
0.338729
0.0054181
-0.00224902
-0.159646
0.156477
0.000598667
-0.0263166
0.0257179
-0.0287876
0.0286384
0.000149218
-0.0020438
0.0040047
-0.232154
0.230193
-0.00678218
0.00919676
-0.406548
0.404133
-0.0108762
0.0112083
-0.552508
0.552175
-0.0104554
0.009178
-0.665961
0.667238
-0.00741639
0.00563631
-0.784167
0.785947
-0.00354254
0.00151976
-0.927844
0.929867
0.000803599
-0.00301171
-1.10209
1.10429
0.00551091
-0.00784462
-1.31259
1.31493
0.0104292
-0.0127799
-1.56753
1.56988
0.0148989
-0.0167858
-1.56541
1.5673
0.018183
-0.0194328
-1.3078
1.30905
0.020386
-0.0212726
-1.09653
1.09742
0.0219776
-0.0226725
-0.92304
0.923735
0.0232649
-0.0238686
-0.781449
0.782052
0.0240408
-0.0235635
-0.65887
0.658392
0.0217837
-0.0181508
-0.519023
0.515391
0.0137532
-0.00879735
-0.333682
0.328726
0.00503872
-0.00211087
-0.15347
0.150542
0.000570769
-0.0251529
0.0245822
-0.0285457
0.0285047
4.09846e-05
-0.00111985
0.00245729
-0.228564
0.227227
-0.00451433
0.00641795
-0.402016
0.400112
-0.00782268
0.00810016
-0.551981
0.551704
-0.00736179
0.00610944
-0.668614
0.669867
-0.00431922
0.00248745
-0.787687
0.789519
-0.000329311
-0.00174581
-0.931755
0.93383
0.0041077
-0.0063281
-1.10638
1.1086
0.00881272
-0.0110988
-1.31714
1.31943
0.0135832
-0.0157831
-1.57209
1.57429
0.0176976
-0.0193268
-1.56904
1.57067
0.020464
-0.0214198
-1.31022
1.31118
0.0221024
-0.0227058
-1.09821
1.09882
0.0231558
-0.0235916
-0.92435
0.924786
0.0239747
-0.0243647
-0.782533
0.782923
0.0242231
-0.0233918
-0.657604
0.656773
0.0212552
-0.0174016
-0.51172
0.507867
0.0130495
-0.00832462
-0.323955
0.31923
0.00478956
-0.00202965
-0.147746
0.144986
0.000558207
-0.0240401
0.0234819
-0.0285214
0.0285901
-6.87774e-05
-0.00015811
0.000864611
-0.226222
0.225516
-0.00217374
0.00350053
-0.398546
0.39722
-0.0045257
0.00465471
-0.55165
0.551521
-0.0038536
0.00255683
-0.67127
0.672567
-0.000698128
-0.00121074
-0.7913
0.793208
0.00344908
-0.00558375
-0.935754
0.937888
0.00800161
-0.0102577
-1.11069
1.11294
0.0127564
-0.0150207
-1.3216
1.32386
0.0174212
-0.0194713
-1.57635
1.5784
0.021171
-0.0225284
-1.57214
1.57349
0.0233933
-0.0240304
-1.31203
1.31267
0.0244164
-0.0246832
-1.09931
1.09958
0.0248332
-0.0249641
-0.925139
0.92527
0.025116
-0.0252021
-0.783065
0.783151
0.0248121
-0.0235505
-0.655593
0.654332
0.0210528
-0.0169745
-0.504024
0.499946
0.0126345
-0.00806543
-0.314674
0.310105
0.00467412
-0.00200776
-0.142329
0.139662
0.000562284
-0.0229477
0.0223854
-0.028725
0.028932
-0.000207012
0.000826758
-0.000820182
-0.225158
0.225151
0.000321998
0.000357672
-0.396265
0.395585
-0.000912193
0.000822981
-0.551697
0.551787
7.94692e-05
-0.00146556
-0.674058
0.675444
0.00341514
-0.00542996
-0.795062
0.797077
0.00780133
-0.0100621
-0.939878
0.942139
0.0126096
-0.0149621
-1.11508
1.11743
0.017522
-0.0197886
-1.32601
1.32828
0.0221173
-0.0240123
-1.5803
1.58219
0.0254766
-0.0265267
-1.57468
1.57573
0.0270824
-0.0273637
-1.31318
1.31346
0.0274255
-0.027354
-1.09973
1.09966
0.0272022
-0.0270116
-0.925294
0.925104
0.0268544
-0.0265665
-0.782887
0.782599
0.0258478
-0.0240771
-0.652785
0.651014
0.0211892
-0.0168615
-0.495903
0.491575
0.012492
-0.00800414
-0.305688
0.3012
0.00468141
-0.0020402
-0.137073
0.134432
0.000581785
-0.0218423
0.0212605
-0.0292041
0.0295499
-0.000345858
0.00195631
-0.00261826
-0.22545
0.226112
0.0030231
-0.00312166
-0.395323
0.395421
0.0031919
-0.00360859
-0.552308
0.552725
0.00465227
-0.00614661
-0.677045
0.67854
0.0082349
-0.0104081
-0.799037
0.80121
0.0129747
-0.0154117
-0.944262
0.946698
0.0181366
-0.0206219
-1.11967
1.12215
0.0232817
-0.0255767
-1.33042
1.33272
0.0278508
-0.0295981
-1.58392
1.58567
0.0308177
-0.031526
-1.57657
1.57728
0.0317515
-0.0316384
-1.3136
1.31349
0.0313306
-0.0308629
-1.09942
1.09895
0.0303662
-0.0297998
-0.924732
0.924166
0.0292873
-0.0285561
-0.781894
0.781163
0.0273849
-0.0250409
-0.649036
0.646692
0.0217341
-0.0171251
-0.487313
0.482704
0.012662
-0.0081571
-0.296842
0.292337
0.004815
-0.00212451
-0.131845
0.129154
0.000614223
-0.0206956
0.0200814
-0.0299759
0.0305007
-0.000524872
0.00321847
-0.00467499
-0.227192
0.228648
0.00600693
-0.00693747
-0.395915
0.396845
0.00776005
-0.00863568
-0.553701
0.554577
0.00997066
-0.011681
-0.680334
0.682044
0.0140078
-0.0164076
-0.803333
0.805733
0.019222
-0.0218739
-0.948984
0.951636
0.024813
-0.0274646
-1.12451
1.12716
0.0302599
-0.0326191
-1.3349
1.33726
0.0348642
-0.036464
-1.58725
1.58885
0.0374237
-0.0377512
-1.57775
1.57807
0.0375858
-0.0370207
-1.31317
1.3126
0.036282
-0.0353475
-1.09824
1.09731
0.034437
-0.0334354
-0.923336
0.922335
0.0325586
-0.0313
-0.779947
0.778688
0.0296132
-0.0266835
-0.644224
0.641294
0.022906
-0.0179227
-0.47817
0.473187
0.013253
-0.00859298
-0.287925
0.283265
0.00511368
-0.002275
-0.126486
0.123647
0.000662211
-0.0194819
0.0188197
-0.0311155
0.0318657
-0.000750115
0.00472042
-0.00704905
-0.23054
0.232869
0.00941632
-0.0112354
-0.398198
0.400017
0.0128961
-0.0143383
-0.556143
0.557585
0.0160898
-0.0181138
-0.684143
0.686167
0.0207837
-0.0235016
-0.808092
0.81081
0.0266622
-0.0296214
-0.954149
0.957108
0.0328778
-0.0357841
-1.1297
1.1326
0.0387914
-0.0412495
-1.33949
1.34195
0.0434647
-0.044882
-1.59024
1.59166
0.0455237
-0.0454295
-1.57813
1.57804
0.0448118
-0.0437569
-1.31177
1.31072
0.0425506
-0.0410959
-1.09606
1.0946
0.0397222
-0.038233
-0.920993
0.919504
0.0369299
-0.035106
-0.776925
0.775101
0.0328572
-0.0292549
-0.638271
0.634669
0.0249095
-0.0194259
-0.468279
0.462795
0.0144036
-0.00940416
-0.278647
0.273648
0.00562935
-0.00251146
-0.120786
0.117668
0.00073006
-0.0181688
0.0174388
-0.0326978
0.0337275
-0.00102976
0.00650769
-0.00984112
-0.235635
0.238968
0.0133914
-0.0162279
-0.40239
0.405227
0.018819
-0.0209115
-0.559861
0.561953
0.0231936
-0.0256416
-0.688678
0.691126
0.0287905
-0.0319609
-0.813503
0.816673
0.0356217
-0.0390207
-0.959961
0.96336
0.0427181
-0.0459598
-1.13542
1.13866
0.0492318
-0.0518119
-1.34427
1.34685
0.0540011
-0.055216
-1.59285
1.59407
0.0554992
-0.0548982
-1.57762
1.57702
0.0537681
-0.0521145
-1.30929
1.30764
0.0503859
-0.0483822
-1.09275
1.09075
0.0465204
-0.0445137
-0.917589
0.915582
0.0426791
-0.0402509
-0.772758
0.770329
0.0373432
-0.0329795
-0.631003
0.62664
0.0279672
-0.0218253
-0.457396
0.451254
0.0162496
-0.0106662
-0.26862
0.263037
0.0064004
-0.00285018
-0.114471
0.110921
0.000823247
-0.0167145
0.0158913
-0.0348246
0.0362315
-0.00140692
0.00881705
-0.0133735
-0.242714
0.24727
0.0182961
-0.0222836
-0.408768
0.412756
0.0259442
-0.0288463
-0.56514
0.568042
0.0318688
-0.0349448
-0.694202
0.697278
0.0387854
-0.0425795
-0.819848
0.823642
0.0469005
-0.0508509
-0.966683
0.970633
0.0550646
-0.0586686
-1.14181
1.14541
0.0621909
-0.0648423
-1.34926
1.35191
0.0669098
-0.0678035
-1.59498
1.59587
0.067591
-0.0663534
-1.57601
1.57478
0.0646034
-0.0622608
-1.30555
1.30321
0.0599287
-0.0573114
-1.08824
1.08562
0.0549395
-0.0523787
-0.913039
0.910478
0.049954
-0.0468557
-0.767395
0.764297
0.0432318
-0.0380228
-0.62224
0.617031
0.0322066
-0.0251751
-0.445191
0.438159
0.0187893
-0.0123492
-0.25735
0.25091
0.00739813
-0.00327621
-0.107245
0.103123
0.00093757
-0.0150699
0.0141323
-0.0376776
0.0396263
-0.0019487
0.0120092
-0.0181328
-0.252179
0.258302
0.0246877
-0.0299942
-0.417737
0.423043
0.0348874
-0.0388062
-0.572404
0.576323
0.0428125
-0.0467692
-0.701154
0.705111
0.0515651
-0.0561563
-0.827458
0.832049
0.061255
-0.0658132
-0.974504
0.979063
0.0705611
-0.0745109
-1.14888
1.15283
0.0782277
-0.0808603
-1.35432
1.35695
0.0826618
-0.0830765
-1.59636
1.59677
0.0822089
-0.0801745
-1.57304
1.571
0.077674
-0.0745248
-1.30035
1.2972
0.0714842
-0.0681438
-1.08237
1.07903
0.0651738
-0.0620451
-0.907254
0.904126
0.0590124
-0.0552166
-0.760651
0.756856
0.0507785
-0.0445358
-0.611768
0.605526
0.0376756
-0.0294392
-0.431177
0.422941
0.0219469
-0.0143735
-0.244307
0.236734
0.00856302
-0.00376072
-0.0988483
0.094046
0.00106511
-0.0131971
0.012132
-0.041565
0.044353
-0.00278805
0.0167094
-0.0249154
-0.264701
0.272907
0.0334826
-0.0403639
-0.429885
0.436766
0.0467361
-0.0518599
-0.582136
0.58726
0.0571416
-0.062294
-0.710017
0.71517
0.0682279
-0.0737145
-0.836641
0.842128
0.0796446
-0.0848155
-0.98352
0.988691
0.0900602
-0.0942716
-1.15659
1.1608
0.0980341
-0.100469
-1.35923
1.36167
0.101774
-0.101474
-1.59665
1.59634
0.0997382
-0.0967149
-1.56835
1.56532
0.0933199
-0.0892237
-1.29344
1.28934
0.0853696
-0.0812101
-1.07496
1.0708
0.077579
-0.0737848
-0.900134
0.89634
0.0700861
-0.0654293
-0.752386
0.747729
0.0599779
-0.0524195
-0.599148
0.59159
0.0442266
-0.0344476
-0.414728
0.404949
0.02555
-0.0165917
-0.228991
0.220033
0.00978976
-0.00424902
-0.0891061
0.0835654
0.00118729
-0.0110805
0.00989325
-0.0470458
0.0512752
-0.00422944
0.0241377
-0.0352298
-0.281422
0.292515
0.0464608
-0.055478
-0.446224
0.455241
0.0636198
-0.0701447
-0.594818
0.601343
0.0769636
-0.0834783
-0.721208
0.727722
0.0906338
-0.0969957
-0.847568
0.85393
0.103655
-0.109279
-0.993689
0.999313
0.114767
-0.118955
-1.16467
1.16886
0.122407
-0.124304
-1.36357
1.36546
0.124739
-0.123399
-1.59532
1.59398
0.120509
-0.11625
-1.56155
1.55729
0.111793
-0.106607
-1.28454
1.27935
0.101828
-0.0967358
-1.06579
1.0607
0.0923287
-0.0877101
-0.891381
0.886763
0.0832276
-0.0774809
-0.742164
0.736417
0.0707607
-0.0615668
-0.583767
0.574573
0.0517238
-0.0400452
-0.395162
0.383484
0.0294413
-0.0188769
-0.210982
0.200418
0.0109861
-0.00469057
-0.0779612
0.0716657
0.00128543
-0.00874207
0.00745664
-0.0551903
0.0624804
-0.00729012
0.0374986
-0.0529434
-0.304509
0.319954
0.0679738
-0.0798131
-0.46825
0.48009
0.0898507
-0.0977839
-0.610856
0.618789
0.106179
-0.113902
-0.734839
0.742562
0.121948
-0.128759
-0.860032
0.866843
0.135598
-0.141111
-1.00452
1.01003
0.146191
-0.149727
-1.1724
1.17594
0.152205
-0.152948
-1.36652
1.36726
0.151902
-0.148996
-1.59164
1.58874
0.144506
-0.138652
-1.55209
1.54624
0.132855
-0.126373
-1.27337
1.26689
0.120549
-0.114451
-1.05466
1.04856
0.109212
-0.103672
-0.8807
0.875161
0.098305
-0.0912559
-0.729421
0.722372
0.0830499
-0.071871
-0.564893
0.553714
0.0599458
-0.0459657
-0.371676
0.357696
0.0334438
-0.0211659
-0.189979
0.177702
0.0121258
-0.00507006
-0.0655051
0.0584493
0.00134664
-0.00624296
0.00489632
-0.0693367
0.0733004
-0.00396366
0.0283258
-0.0417025
-0.337995
0.351371
0.0550924
-0.0658237
-0.49721
0.507941
0.0754451
-0.0846279
-0.630102
0.639285
0.095077
-0.104327
-0.749927
0.759177
0.114584
-0.1237
-0.872803
0.88192
0.133325
-0.141742
-1.0146
1.02302
0.150303
-0.157353
-1.17835
1.1854
0.163912
-0.168564
-1.36676
1.37141
0.171747
-0.172437
-1.58449
1.58518
0.170538
-0.166537
-1.53916
1.53516
0.161521
-0.155095
-1.25947
1.25304
0.148998
-0.141826
-1.04145
1.03428
0.135596
-0.128816
-0.867917
0.861137
0.122123
-0.112883
-0.713757
0.704517
0.101088
-0.0853102
-0.54161
0.525832
0.0690811
-0.0506745
-0.343337
0.32493
0.0352286
-0.0210878
-0.165839
0.151698
0.0113797
-0.00444258
-0.0520587
0.0451216
0.00106074
-0.00369903
0.00263829
-0.0805212
0.0784035
0.00211762
0.00650502
-0.0151349
-0.367556
0.376186
0.0252901
-0.0330044
-0.523338
0.531052
0.0408547
-0.0488687
-0.650873
0.658887
0.0585228
-0.0673511
-0.768173
0.777001
0.0766905
-0.0851836
-0.890553
0.899046
0.0940984
-0.101549
-1.03116
1.03861
0.109294
-0.115301
-1.19223
1.19824
0.120795
-0.124345
-1.37566
1.37921
0.126068
-0.125501
-1.58486
1.58429
0.122389
-0.117188
-1.53011
1.52491
0.110954
-0.103274
-1.24585
1.23817
0.0960066
-0.0878872
-1.02627
1.01815
0.0804297
-0.0720782
-0.851732
0.84338
0.0641438
-0.054987
-0.690767
0.68161
0.0453217
-0.0337948
-0.507549
0.496022
0.0235723
-0.0143534
-0.306033
0.296814
0.00828744
-0.00395611
-0.138118
0.133787
0.00162565
-0.00042851
-0.0386377
0.0374405
4.46655e-05
-0.00148551
0.00144085
-0.0816317
0.0786624
0.00296935
-0.00248826
-0.0022519
-0.387369
0.392109
0.00901059
-0.0148241
-0.542745
0.548559
0.0209881
-0.0279843
-0.668818
0.675815
0.036408
-0.0441379
-0.785012
0.792741
0.0525472
-0.0600288
-0.90685
0.914332
0.0676324
-0.0743472
-1.0459
1.05261
0.081134
-0.0865043
-1.20383
1.2092
0.0910086
-0.0937466
-1.38213
1.38487
0.0950525
-0.0941016
-1.58313
1.58217
0.0908105
-0.0856072
-1.51927
1.51407
0.0795248
-0.0721912
-1.23049
1.22316
0.0647044
-0.0562323
-1.00939
1.00092
0.0479793
-0.0383467
-0.833419
0.823786
0.0294205
-0.0198932
-0.668078
0.658551
0.0117018
-0.00342609
-0.482213
0.473938
-0.00180506
0.00458389
-0.286403
0.283624
-0.00514695
0.00436745
-0.128062
0.128841
-0.00305937
0.00152376
-0.0356603
0.0371959
-0.000476266
-0.00115929
0.00163556
-0.0802126
0.0773868
0.0028258
-0.00597336
0.003887
-0.400314
0.402401
0.000157251
-0.00466849
-0.557349
0.561861
0.0100652
-0.0159935
-0.68375
0.689678
0.0232535
-0.0299675
-0.799944
0.806658
0.0372398
-0.0437162
-0.921328
0.927804
0.0506767
-0.0564495
-1.05892
1.0647
0.062505
-0.0669049
-1.21422
1.21862
0.0709698
-0.0734789
-1.38752
1.39003
0.0745869
-0.0735071
-1.58106
1.57998
0.0706717
-0.0660742
-1.50869
1.50409
0.0604974
-0.0532328
-1.2158
1.20854
0.0459301
-0.0373075
-0.99183
0.983207
0.028479
-0.0184414
-0.812718
0.802681
0.0089863
0.00022702
-0.645571
0.636358
-0.00691115
0.011875
-0.463921
0.458958
-0.0136751
0.0129157
-0.277906
0.278665
-0.0109109
0.00789913
-0.128041
0.131052
-0.00516879
0.00243471
-0.037873
0.0406071
-0.000735777
-0.00179468
0.00253045
-0.078583
0.0761207
0.00246228
-0.00693003
0.00639679
-0.40876
0.409294
-0.00344914
0.000350608
-0.56924
0.572339
0.00406486
-0.00946324
-0.69632
0.701719
0.0155781
-0.0215061
-0.812733
0.818661
0.0278447
-0.0335141
-0.933868
0.939537
0.0395579
-0.0447954
-1.07037
1.07561
0.0500715
-0.0543027
-1.22296
1.22719
0.0580493
-0.0604207
-1.39234
1.39471
0.061546
-0.060625
-1.57896
1.57804
0.0580484
-0.0535722
-1.49904
1.49456
0.0482596
-0.0413508
-1.20128
1.19437
0.0341787
-0.0255029
-0.974031
0.965355
0.0169824
-0.0073927
-0.791713
0.782123
-0.00100854
0.00869113
-0.625225
0.617542
-0.0137127
0.0169788
-0.451437
0.448171
-0.0176135
0.0156343
-0.275536
0.277515
-0.0126187
0.0090122
-0.132296
0.135902
-0.00580815
0.00268647
-0.042424
0.0455457
-0.000814389
-0.00295902
0.00377341
-0.0771288
0.0750379
0.0020909
-0.00668413
0.00661804
-0.414393
0.414459
-0.00501993
0.00248643
-0.578199
0.580733
0.00162792
-0.0062076
-0.706955
0.711534
0.0114508
-0.0165928
-0.823821
0.828963
0.0222375
-0.0273393
-0.944888
0.94999
0.0329441
-0.0376425
-1.08062
1.08532
0.0425507
-0.0465465
-1.23123
1.23522
0.0500888
-0.0523678
-1.39694
1.39922
0.0534589
-0.0529359
-1.57713
1.57661
0.0504057
-0.0461887
-1.48969
1.48548
0.0410001
-0.0342822
-1.18725
1.18053
0.0276193
-0.0193444
-0.956494
0.948219
0.0114991
-0.0030867
-0.77229
0.763877
-0.00408818
0.010519
-0.608415
0.601984
-0.014527
0.0169726
-0.442484
0.440038
-0.017059
0.0150518
-0.27569
0.277697
-0.0122236
0.00867253
-0.137686
0.141238
-0.00552216
0.00257302
-0.0474798
0.050429
-0.000785049
-0.00421009
0.00499514
-0.0760523
0.0744378
0.00161449
-0.00568024
0.00590244
-0.418462
0.41824
-0.00467911
0.00284604
-0.585941
0.587774
0.000920937
-0.00500621
-0.716068
0.720153
0.00992958
-0.0143353
-0.833708
0.838114
0.0192998
-0.0238611
-0.955084
0.959645
0.0292495
-0.0336221
-1.0901
1.09447
0.0381378
-0.0420656
-1.23911
1.24304
0.0458957
-0.048137
-1.40159
1.40384
0.0493607
-0.0488044
-1.57572
1.57517
0.0466444
-0.0423264
-1.48101
1.47669
0.0375147
-0.0313336
-1.17365
1.16747
0.0250784
-0.0178216
-0.940086
0.932829
0.0109165
-0.00354916
-0.755259
0.747892
-0.00228065
0.00769692
-0.594305
0.588889
-0.0112046
0.0131313
-0.435332
0.433406
-0.0133972
0.0120762
-0.27649
0.277811
-0.00979591
0.00691305
-0.142717
0.1456
-0.00439089
0.00206781
-0.0519909
0.054314
-0.000650084
-0.00534189
0.00599198
-0.0755148
0.0742647
0.00125015
-0.00448514
0.0047775
-0.421637
0.421345
-0.00367153
0.00195122
-0.592562
0.594282
0.00155978
-0.00512299
-0.724144
0.727707
0.00928026
-0.0134916
-0.842453
0.846664
0.0180756
-0.0227919
-0.96404
0.968756
0.0275127
-0.0317684
-1.09898
1.10324
0.0364929
-0.0402585
-1.24691
1.25067
0.0436892
-0.0463683
-1.40602
1.4087
0.0477585
-0.0474289
-1.57465
1.57432
0.0453538
-0.041542
-1.47251
1.4687
0.0370715
-0.0313765
-1.16101
1.15531
0.0258056
-0.0193822
-0.925604
0.919181
0.0134256
-0.00730159
-0.740698
0.734574
0.00206875
0.00256907
-0.582519
0.577881
-0.00555432
0.00749542
-0.429029
0.427088
-0.00808032
0.00735016
-0.276449
0.277179
-0.00601424
0.00420824
-0.146166
0.147972
-0.00268178
0.00128447
-0.0551714
0.0565687
-0.000424768
-0.00617238
0.00659715
-0.0755325
0.0745113
0.00102115
-0.00309942
0.00309579
-0.424523
0.424526
-0.00213687
0.000464166
-0.598592
0.600265
0.00278603
-0.00616658
-0.73152
0.734901
0.0100926
-0.0138707
-0.850651
0.854429
0.0185595
-0.0225141
-0.972925
0.97688
0.0272417
-0.0313639
-1.10768
1.1118
0.0360242
-0.040016
-1.25446
1.25845
0.043743
-0.0461934
-1.41116
1.41361
0.0478693
-0.0478634
-1.57388
1.57388
0.0463445
-0.0427976
-1.46473
1.46119
0.0387856
-0.0336211
-1.14974
1.14458
0.0286597
-0.0228999
-0.912672
0.906912
0.0177544
-0.0122765
-0.728288
0.72281
0.00765885
-0.00332737
-0.572421
0.568089
0.000211349
0.00174193
-0.422937
0.420984
-0.00263741
0.00263814
-0.275191
0.27519
-0.00232976
0.00164716
-0.147586
0.148269
-0.00106698
0.000568037
-0.0565722
0.0570711
-0.000211295
-0.00657683
0.00678813
-0.0758611
0.0751737
0.000687401
-0.0018657
0.00141141
-0.427629
0.428083
-0.000612825
-0.00136452
-0.603764
0.605742
0.00422733
-0.00744543
-0.73829
0.741508
0.0111673
-0.0150511
-0.858062
0.861946
0.0191305
-0.0232577
-0.98106
0.985187
0.0279734
-0.0319154
-1.11638
1.12032
0.0366869
-0.0406405
-1.26227
1.26623
0.0444088
-0.047344
-1.41646
1.4194
0.0494429
-0.0496579
-1.57389
1.5741
0.0483352
-0.0454743
-1.45779
1.45493
0.042027
-0.0373244
-1.13932
1.13461
0.0327673
-0.0277676
-0.901153
0.896154
0.0228114
-0.0180191
-0.717111
0.712319
0.0138166
-0.00967557
-0.563306
0.559165
0.0067051
-0.00423912
-0.41679
0.414324
0.00281643
-0.00188384
-0.272691
0.271759
0.00128723
-0.000746408
-0.146907
0.146367
0.000280509
2.63701e-05
-0.0563335
0.0560266
-8.58821e-05
-0.00655595
0.00664184
-0.0766298
0.0761102
0.0005196
-0.00083694
0.00044734
-0.431065
0.431455
0.00108428
-0.00294043
-0.609159
0.611016
0.00594571
-0.00903013
-0.74451
0.747595
0.0125818
-0.0160655
-0.865507
0.868991
0.0202744
-0.0241044
-0.989338
0.993168
0.0287857
-0.0331679
-1.12473
1.12911
0.0375861
-0.0418513
-1.27024
1.2745
0.0460023
-0.0489855
-1.42222
1.42521
0.0514
-0.0523413
-1.57451
1.57545
0.0514313
-0.0491835
-1.45192
1.44968
0.0459728
-0.0417918
-1.12995
1.12577
0.0377348
-0.0330388
-0.890795
0.886099
0.0285941
-0.02407
-0.707035
0.702511
0.0200993
-0.0159898
-0.554473
0.550363
0.0127941
-0.00998547
-0.410252
0.407443
0.00778652
-0.00592407
-0.268523
0.266661
0.00432441
-0.00270253
-0.144076
0.142454
0.00143043
-0.000461476
-0.0545579
0.053589
4.84615e-05
-0.0061984
0.00614994
-0.0776818
0.0773586
0.000323218
0.000266146
-0.000976575
-0.434685
0.435396
0.00241445
-0.00458494
-0.614217
0.616388
0.00752273
-0.0104572
-0.750494
0.753428
0.0140924
-0.0174348
-0.872466
0.875809
0.0214988
-0.0254591
-0.997489
1.00145
0.0300526
-0.0343988
-1.13336
1.13771
0.0390225
-0.0432894
-1.27869
1.28296
0.0475835
-0.0512617
-1.42846
1.43214
0.0540677
-0.0552672
-1.57631
1.57751
0.0550204
-0.0530941
-1.44731
1.44538
0.0504507
-0.0468284
-1.12152
1.1179
0.0428867
-0.038483
-0.881134
0.87673
0.0342875
-0.0298081
-0.69759
0.69311
0.0259984
-0.0217985