/*--------------------------------*- C++ -*----------------------------------*\
| =========                 |                                                 |
| \\      /  F ield         | OpenFOAM: The Open Source CFD Toolbox           |
|  \\    /   O peration     | Version:  2306                                  |
|   \\  /    A nd           | Website:  www.openfoam.com                      |
|    \\/     M anipulation  |                                                 |
\*---------------------------------------------------------------------------*/
FoamFile
{
    version     2.0;
    format      ascii;
    arch        "LSB;label=32;scalar=64";
    class       volVectorField;
    location    "38";
    object      U;
}
// * * * * * * * * * * * * * * * * * * * * * * * * * * * * * * * * * * * * * //

dimensions      [0 1 -1 0 0 0 0];

internalField   nonuniform List<vector> 
8800
(
(0.984962 -0.0884525 0)
(1.00213 -0.0568241 0)
(0.999673 -0.0305572 0)
(1.00001 -0.0158613 0)
(1.00006 -0.00871534 0)
(1.00005 -0.00507636 0)
(1.00003 -0.00299895 0)
(0.999997 -0.00170502 0)
(0.999982 -0.000808403 0)
(1.00006 -0.000111119 0)
(0.999983 0.000595687 0)
(0.999996 0.00134986 0)
(1.00001 0.00238414 0)
(1.00002 0.00399126 0)
(1.00003 0.00670525 0)
(1 0.0117326 0)
(0.999846 0.0220492 0)
(0.999173 0.0411685 0)
(1.00747 0.0768957 0)
(0.773651 0.0450708 0)
(0.360993 -0.0151726 0)
(1.04555 -0.0742085 0)
(1.08711 -0.0679022 0)
(1.04777 -0.0523156 0)
(1.02458 -0.0384125 0)
(1.01236 -0.0261329 0)
(1.00646 -0.0167962 0)
(1.00359 -0.0103018 0)
(1.00217 -0.0056665 0)
(1.00151 -0.00206306 0)
(1.00138 0.00115903 0)
(1.00174 0.00447949 0)
(1.00271 0.00839006 0)
(1.0047 0.0137422 0)
(1.00879 0.0214867 0)
(1.01733 0.0323141 0)
(1.03445 0.0456583 0)
(1.06549 0.059773 0)
(1.09409 0.0729294 0)
(0.842238 0.0557098 0)
(0.217042 -0.0016473 0)
(1.07584 -0.0503749 0)
(1.09983 -0.0487472 0)
(1.06464 -0.0402035 0)
(1.03994 -0.0330433 0)
(1.02373 -0.025752 0)
(1.01396 -0.0183923 0)
(1.00849 -0.0116848 0)
(1.00564 -0.00589078 0)
(1.00448 -0.000580156 0)
(1.0048 0.004549 0)
(1.00665 0.00987549 0)
(1.01056 0.0159346 0)
(1.01785 0.0228668 0)
(1.03051 0.0301472 0)
(1.05065 0.0371572 0)
(1.08038 0.0445033 0)
(1.10622 0.0517299 0)
(0.942897 0.0413147 0)
(0.216521 0.00166552 0)
(0.175843 -0.000646525 0)
(1.01861 -0.0354407 0)
(1.10556 -0.041468 0)
(1.07809 -0.0363141 0)
(1.05279 -0.0302953 0)
(1.0355 -0.0245845 0)
(1.0235 -0.0188895 0)
(1.0156 -0.0128928 0)
(1.01095 -0.00677588 0)
(1.00892 -0.000520048 0)
(1.00946 0.00566279 0)
(1.01259 0.011619 0)
(1.01861 0.0174461 0)
(1.02833 0.0230426 0)
(1.04269 0.0284946 0)
(1.06341 0.0341695 0)
(1.09383 0.0401479 0)
(1.09421 0.0417996 0)
(0.828998 0.0227538 0)
(0.174961 0.000665582 0)
(0.154265 -0.000488496 0)
(0.957156 -0.025592 0)
(1.10403 -0.0351567 0)
(1.08788 -0.03273 0)
(1.06131 -0.0281896 0)
(1.04341 -0.0232178 0)
(1.03102 -0.0180001 0)
(1.02234 -0.0125328 0)
(1.01673 -0.00666262 0)
(1.01407 -0.0002237 0)
(1.01474 0.00623876 0)
(1.0186 0.0121154 0)
(1.02548 0.017422 0)
(1.03569 0.0224156 0)
(1.0504 0.0272666 0)
(1.07209 0.0317752 0)
(1.1008 0.035677 0)
(1.06931 0.0338592 0)
(0.741596 0.0143192 0)
(0.152941 0.000509761 0)
(0.139704 -0.000359993 0)
(0.900078 -0.0192526 0)
(1.09631 -0.0302276 0)
(1.09594 -0.0293719 0)
(1.06889 -0.0256405 0)
(1.05017 -0.0215796 0)
(1.03725 -0.0169171 0)
(1.02826 -0.0117192 0)
(1.02229 -0.00605856 0)
(1.0193 0.000241204 0)
(1.01998 0.0065769 0)
(1.02405 0.0122056 0)
(1.03112 0.0171875 0)
(1.04164 0.0217016 0)
(1.05698 0.0257079 0)
(1.07959 0.0292336 0)
(1.10315 0.031937 0)
(1.03757 0.0279587 0)
(0.675214 0.0101873 0)
(0.137842 0.000384846 0)
(0.129018 -0.000275736 0)
(0.850193 -0.0148817 0)
(1.08382 -0.0261347 0)
(1.10153 -0.0264975 0)
(1.07564 -0.0232226 0)
(1.0564 -0.0196304 0)
(1.04305 -0.015501 0)
(1.0337 -0.0106962 0)
(1.02749 -0.0052706 0)
(1.02431 0.000822263 0)
(1.02489 0.0069201 0)
(1.02897 0.0122602 0)
(1.0362 0.0168255 0)
(1.04702 0.0207351 0)
(1.06275 0.0241229 0)
(1.08581 0.0271735 0)
(1.10245 0.029014 0)
(1.00309 0.0233739 0)
(0.623664 0.00778597 0)
(0.126502 0.000305605 0)
(0.120856 -0.000213273 0)
(0.807707 -0.0117083 0)
(1.06837 -0.0225398 0)
(1.10494 -0.0238866 0)
(1.08178 -0.0210601 0)
(1.06209 -0.0177052 0)
(1.04846 -0.0138873 0)
(1.03885 -0.00943485 0)
(1.03238 -0.00430652 0)
(1.029 0.00152089 0)
(1.02944 0.00732187 0)
(1.0335 0.0122931 0)
(1.04081 0.0163951 0)
(1.05176 0.0198276 0)
(1.06776 0.0228188 0)
(1.09122 0.0255786 0)
(1.09893 0.0265359 0)
(0.96838 0.0197339 0)
(0.582473 0.00620752 0)
(0.117547 0.000249351 0)
(0.114522 -0.00016529 0)
(0.771897 -0.00932575 0)
(1.05137 -0.0193623 0)
(1.10714 -0.0214643 0)
(1.08749 -0.019041 0)
(1.0674 -0.0158674 0)
(1.05353 -0.0122323 0)
(1.04374 -0.00801228 0)
(1.03704 -0.00316687 0)
(1.03342 0.0023624 0)
(1.03369 0.0078276 0)
(1.03768 0.0123928 0)
(1.04496 0.0160839 0)
(1.05595 0.0191499 0)
(1.07219 0.0218026 0)
(1.09538 0.0242314 0)
(1.0927 0.0244084 0)
(0.934817 0.0168715 0)
(0.548679 0.00510808 0)
(0.110248 0.000208984 0)
(0.109576 -0.000127154 0)
(0.741859 -0.00746875 0)
(1.03392 -0.016528 0)
(1.10835 -0.0191598 0)
(1.09287 -0.0170629 0)
(1.07248 -0.0140077 0)
(1.05835 -0.0105008 0)
(1.04838 -0.00645277 0)
(1.0415 -0.00183475 0)
(1.03763 0.00338404 0)
(1.03767 0.00846807 0)
(1.04149 0.0126268 0)
(1.04866 0.0159289 0)
(1.05968 0.0186474 0)
(1.07617 0.0210089 0)
(1.09833 0.0231023 0)
(1.08419 0.0225608 0)
(0.903059 0.0146286 0)
(0.520291 0.00431804 0)
(0.104131 0.000180052 0)
(0.105733 -9.57308e-05 0)
(0.716802 -0.00596131 0)
(1.01684 -0.0139631 0)
(1.10869 -0.0169242 0)
(1.0981 -0.0151486 0)
(1.07743 -0.0121509 0)
(1.063 -0.00871558 0)
(1.05282 -0.00477532 0)
(1.04573 -0.000328484 0)
(1.04159 0.00460843 0)
(1.04134 0.00932171 0)
(1.04492 0.0130943 0)
(1.05195 0.0160404 0)
(1.06297 0.0184285 0)
(1.07969 0.0205055 0)
(1.10001 0.0222155 0)
(1.07384 0.0209939 0)
(0.873303 0.0128891 0)
(0.495906 0.00374757 0)
(0.0988606 0.000160533 0)
(0.102806 -6.84415e-05 0)
(0.696122 -0.0046838 0)
(1.0008 -0.0115921 0)
(1.10828 -0.0146881 0)
(1.10307 -0.013157 0)
(1.0823 -0.0101801 0)
(1.06756 -0.00677702 0)
(1.05713 -0.00291325 0)
(1.04976 0.00139229 0)
(1.0453 0.00608589 0)
(1.04468 0.0104535 0)
(1.04796 0.0138397 0)
(1.05482 0.0164088 0)
(1.06584 0.0184411 0)
(1.08274 0.0202164 0)
(1.10072 0.0215435 0)
(1.06199 0.0196757 0)
(0.845515 0.0115463 0)
(0.47452 0.00333452 0)
(0.0941934 0.000147597 0)
(0.100681 -4.3091e-05 0)
(0.67939 -0.00354422 0)
(0.986297 -0.00934102 0)
(1.10736 -0.0123654 0)
(1.10776 -0.0109896 0)
(1.08714 -0.00800888 0)
(1.07205 -0.00460349 0)
(1.0613 -0.000784741 0)
(1.05358 0.00340436 0)
(1.04869 0.0078761 0)
(1.04763 0.0118996 0)
(1.05057 0.0148838 0)
(1.05724 0.017046 0)
(1.06825 0.0187028 0)
(1.08525 0.0201597 0)
(1.10044 0.0210937 0)
(1.04894 0.0186045 0)
(0.819515 0.010524 0)
(0.455373 0.00304222 0)
(0.0899418 0.00014042 0)
(0.0993012 -1.74305e-05 0)
(0.666365 -0.00247205 0)
(0.973719 -0.00712459 0)
(1.10623 -0.00989193 0)
(1.11229 -0.0086246 0)
(1.09201 -0.00563889 0)
(1.07655 -0.00217858 0)
(1.06546 0.00166623 0)
(1.05734 0.00579331 0)
(1.05192 0.0100591 0)
(1.05032 0.013728 0)
(1.05283 0.0162894 0)
(1.05922 0.0180376 0)
(1.07019 0.0193284 0)
(1.08726 0.0204275 0)
(1.09913 0.0209133 0)
(1.03488 0.0177746 0)
(0.795057 0.00976815 0)
(0.437883 0.00284607 0)
(0.0859603 0.000138089 0)
(0.0986543 1.06312e-05 0)
(0.656948 -0.00141199 0)
(0.96343 -0.00487117 0)
(1.10519 -0.00719846 0)
(1.11672 -0.00595901 0)
(1.09698 -0.00293675 0)
(1.08114 0.000627908 0)
(1.06964 0.00453456 0)
(1.06099 0.00863241 0)
(1.05494 0.0127271 0)
(1.05268 0.0160405 0)
(1.05467 0.0181401 0)
(1.06073 0.0193981 0)
(1.0716 0.0202424 0)
(1.08862 0.0209757 0)
(1.09666 0.0209261 0)
(1.01995 0.0171605 0)
(0.771886 0.0092291 0)
(0.421588 0.00272694 0)
(0.0821273 0.000139249 0)
(0.0987634 3.08213e-05 0)
(0.651121 -0.000314833 0)
(0.95577 -0.00253238 0)
(1.10463 -0.00424223 0)
(1.12122 -0.00289319 0)
(1.1021 0.000231784 0)
(1.08583 0.003926 0)
(1.07382 0.0079162 0)
(1.06457 0.0120368 0)
(1.05776 0.0159892 0)
(1.05467 0.0189368 0)
(1.05596 0.0205433 0)
(1.06161 0.0212661 0)
(1.07238 0.0215502 0)
(1.08924 0.0218307 0)
(1.09289 0.0212542 0)
(1.00426 0.016828 0)
(0.749712 0.00891867 0)
(0.406072 0.00268715 0)
(0.0783355 0.000144639 0)
(0.0996978 7.7024e-05 0)
(0.649072 0.000861419 0)
(0.95107 -1.65814e-05 0)
(1.1049 -0.000952977 0)
(1.12598 0.00058786 0)
(1.10742 0.00382769 0)
(1.09068 0.0077505 0)
(1.07808 0.0119502 0)
(1.06804 0.0161649 0)
(1.06022 0.0199893 0)
(1.05614 0.0225373 0)
(1.05669 0.0235891 0)
(1.06181 0.0237301 0)
(1.07239 0.0234725 0)
(1.08876 0.0231788 0)
(1.08776 0.0219196 0)
(0.9877 0.0167765 0)
(0.728168 0.00882054 0)
(0.390928 0.00272087 0)
(0.074472 0.000153874 0)
(0.101609 0.000105964 0)
(0.650837 0.00205491 0)
(0.949665 0.00270047 0)
(1.10638 0.00275465 0)
(1.13112 0.00456675 0)
(1.11314 0.00806506 0)
(1.09594 0.0123052 0)
(1.08267 0.0167929 0)
(1.07175 0.0211665 0)
(1.06277 0.0248927 0)
(1.05744 0.0270205 0)
(1.05693 0.0274796 0)
(1.06136 0.0269484 0)
(1.07161 0.0260677 0)
(1.08719 0.0250723 0)
(1.08107 0.0229879 0)
(0.970209 0.0170636 0)
(0.706878 0.00896027 0)
(0.375771 0.0028286 0)
(0.070446 0.000165321 0)
(0.104622 0.00015919 0)
(0.657234 0.00352111 0)
(0.951981 0.0056621 0)
(1.10955 0.00692285 0)
(1.13684 0.00924903 0)
(1.11931 0.0131637 0)
(1.10153 0.0178079 0)
(1.08736 0.0226407 0)
(1.07524 0.0272319 0)
(1.06477 0.0309076 0)
(1.05793 0.032595 0)
(1.05629 0.032347 0)
(1.05993 0.0310384 0)
(1.06977 0.0294274 0)
(1.08425 0.0276872 0)
(1.07262 0.0246452 0)
(0.951557 0.0178623 0)
(0.685278 0.00941168 0)
(0.360117 0.00303173 0)
(0.0661654 0.000178907 0)
(0.109017 0.000227849 0)
(0.668396 0.00519809 0)
(0.958299 0.00902039 0)
(1.11493 0.0116619 0)
(1.14355 0.014661 0)
(1.12622 0.0191713 0)
(1.10774 0.0243777 0)
(1.09255 0.0297299 0)
(1.07903 0.0346673 0)
(1.06678 0.0382832 0)
(1.05809 0.0394287 0)
(1.05497 0.0384112 0)
(1.05753 0.0362546 0)
(1.06679 0.0338133 0)
(1.07981 0.0312738 0)
(1.06225 0.027129 0)
(0.931326 0.0193404 0)
(0.662635 0.0102771 0)
(0.343314 0.00335692 0)
(0.0615115 0.000195388 0)
(0.115063 0.000315771 0)
(0.684822 0.00717792 0)
(0.969388 0.0129671 0)
(1.12296 0.0171124 0)
(1.15162 0.0209605 0)
(1.13416 0.0263011 0)
(1.11478 0.0323192 0)
(1.09824 0.0383918 0)
(1.08291 0.0437594 0)
(1.06842 0.0473337 0)
(1.05753 0.0478606 0)
(1.0527 0.0459181 0)
(1.05403 0.0428058 0)
(1.06258 0.0394966 0)
(1.07377 0.0360959 0)
(1.04964 0.0306624 0)
(0.909034 0.0216806 0)
(0.637957 0.0116478 0)
(0.324539 0.00382322 0)
(0.0563281 0.000216962 0)
(0.123179 0.000437602 0)
(0.707189 0.00972468 0)
(0.985731 0.017765 0)
(1.13424 0.0236624 0)
(1.16151 0.0286887 0)
(1.1435 0.0352263 0)
(1.12291 0.0423181 0)
(1.10455 0.0492381 0)
(1.08687 0.0550174 0)
(1.06964 0.0583918 0)
(1.05617 0.0580817 0)
(1.04934 0.0550113 0)
(1.0493 0.0508186 0)
(1.05697 0.0465744 0)
(1.06604 0.0421885 0)
(1.03452 0.0353835 0)
(0.884 0.0249716 0)
(0.610046 0.0135008 0)
(0.302961 0.00441075 0)
(0.0504534 0.000242684 0)
(0.134074 0.000616148 0)
(0.736572 0.0132257 0)
(1.00827 0.0239116 0)
(1.14969 0.031859 0)
(1.17405 0.0384433 0)
(1.15475 0.0466437 0)
(1.13237 0.0549992 0)
(1.11155 0.0628063 0)
(1.09093 0.0689125 0)
(1.07041 0.0718625 0)
(1.05389 0.0704374 0)
(1.0448 0.0659976 0)
(1.04327 0.0605323 0)
(1.05002 0.0551872 0)
(1.05636 0.0498657 0)
(1.01651 0.0414681 0)
(0.855235 0.0292164 0)
(0.577686 0.0157616 0)
(0.277903 0.00508068 0)
(0.0437731 0.000270741 0)
(0.148933 0.000897996 0)
(0.774734 0.0183247 0)
(1.03847 0.0322167 0)
(1.17018 0.0426799 0)
(1.19009 0.0514464 0)
(1.1682 0.0614373 0)
(1.14314 0.0711806 0)
(1.11904 0.0798198 0)
(1.09471 0.0860246 0)
(1.07027 0.088169 0)
(1.05034 0.0852499 0)
(1.03878 0.0791841 0)
(1.03565 0.0722132 0)
(1.04143 0.0655544 0)
(1.04452 0.0590061 0)
(0.994838 0.0488872 0)
(0.821566 0.0342688 0)
(0.539831 0.0182851 0)
(0.248996 0.00576433 0)
(0.0362772 0.000294874 0)
(0.1699 0.00139027 0)
(0.824888 0.0262002 0)
(1.0791 0.0443809 0)
(1.19657 0.057984 0)
(1.20996 0.0694033 0)
(1.18398 0.0811937 0)
(1.15512 0.0922027 0)
(1.12679 0.10127 0)
(1.09797 0.106996 0)
(1.06905 0.107723 0)
(1.04537 0.102803 0)
(1.03114 0.09477 0)
(1.02626 0.0860995 0)
(1.03082 0.0779626 0)
(1.02988 0.0698755 0)
(0.968545 0.0575576 0)
(0.781833 0.0400082 0)
(0.495819 0.0209467 0)
(0.216324 0.00639837 0)
(0.0281104 0.000308431 0)
(0.200376 0.00249892 0)
(0.89291 0.0396942 0)
(1.13289 0.064281 0)
(1.22908 0.0813239 0)
(1.23344 0.0955291 0)
(1.20153 0.108597 0)
(1.16759 0.119963 0)
(1.13401 0.128389 0)
(1.09999 0.132512 0)
(1.06617 0.1308 0)
(1.03856 0.12305 0)
(1.02165 0.112524 0)
(1.01496 0.101916 0)
(1.01785 0.0922394 0)
(1.01172 0.0823592 0)
(0.936607 0.0674088 0)
(0.734853 0.0461959 0)
(0.445901 0.023651 0)
(0.180938 0.00696655 0)
(0.0197055 0.000304463 0)
(0.242089 0.0087459 1.24112e-19)
(0.982826 0.066825 1.10238e-19)
(1.19769 0.0982519 -3.82749e-20)
(1.26538 0.116584 0)
(1.25796 0.133686 -9.39027e-34)
(1.21889 0.146256 1.36225e-20)
(1.17903 0.156246 -2.38695e-20)
(1.13953 0.162586 0)
(1.09984 0.163969 4.75008e-34)
(1.06066 0.158899 -2.81157e-20)
(1.02872 0.147689 0)
(1.00884 0.134317 -3.26909e-20)
(1.00017 0.121612 -9.59166e-20)
(1.00085 0.110602 -4.51296e-20)
(0.988761 0.0995456 -1.34958e-20)
(0.895091 0.0813918 -7.98321e-21)
(0.675378 0.054624 0)
(0.387369 0.0274495 5.575e-21)
(0.143632 0.00841264 6.56271e-21)
(0.0118082 0.000526206 1.16371e-19)
(0.270593 0.0241206 1.00187e-19)
(1.05676 0.109392 1.02032e-21)
(1.25049 0.146862 1.06161e-20)
(1.29889 0.165533 0)
(1.2798 0.18222 -4.90728e-20)
(1.23392 0.192966 -5.49645e-20)
(1.18799 0.200839 -2.44671e-20)
(1.14234 0.20482 -8.50072e-20)
(1.09652 0.203484 0)
(1.05119 0.195272 1.20477e-19)
(1.01379 0.181016 1.18291e-19)
(0.989856 0.165217 3.49251e-20)
(0.978536 0.150655 1.2601e-19)
(0.975682 0.137902 1.75701e-19)
(0.952651 0.123678 0)
(0.837952 0.100108 2.461e-19)
(0.605838 0.0660839 3.52578e-19)
(0.328564 0.0333113 3.90608e-19)
(0.110924 0.0105442 -4.45036e-19)
(0.00541508 0.000522158 -8.23063e-21)
(0.271056 0.0398426 0)
(1.10286 0.164796 1.98849e-20)
(1.28635 0.206653 0)
(1.32521 0.225292 -6.96708e-20)
(1.29725 0.238536 0)
(1.24543 0.245703 -1.10565e-19)
(1.19369 0.25005 5.05982e-20)
(1.1422 0.250651 -1.73581e-19)
(1.09057 0.246004 -3.13095e-21)
(1.03951 0.234653 6.28888e-20)
(0.997032 0.217928 2.59796e-19)
(0.969141 0.200474 -6.04529e-22)
(0.954575 0.184599 -9.15591e-20)
(0.946824 0.169559 -1.6584e-19)
(0.914114 0.150839 1.96059e-19)
(0.793701 0.12143 -3.45947e-19)
(0.568589 0.0810369 -4.54455e-20)
(0.308134 0.042259 0)
(0.105947 0.0141553 1.14119e-23)
(0.00506623 0.000722339 0)
(0.264204 0.0533847 3.06833e-19)
(1.12685 0.223275 -1.44149e-19)
(1.30863 0.271252 -1.01944e-19)
(1.3427 0.2898 3.43427e-20)
(1.30871 0.299013 -5.71785e-20)
(1.25231 0.30187 2.33235e-19)
(1.19577 0.302026 1.06393e-19)
(1.13931 0.298724 0)
(1.08264 0.290494 -3.20868e-19)
(1.02656 0.275948 0)
(0.979498 0.256758 -1.3712e-19)
(0.947678 0.237438 -1.67088e-19)
(0.928857 0.219567 -9.97953e-20)
(0.914922 0.20148 -1.205e-19)
(0.876386 0.179004 0)
(0.761148 0.145517 0)
(0.552068 0.100644 -2.97355e-19)
(0.309976 0.0557324 5.8533e-20)
(0.114065 0.0203874 -3.43628e-20)
(0.00773592 0.00146228 -3.95657e-20)
(0.256424 0.0653794 -1.59546e-19)
(1.13645 0.281566 0)
(1.32085 0.336613 2.27885e-19)
(1.35226 0.355533 1.01351e-19)
(1.31416 0.360764 1.28977e-19)
(1.25437 0.35921 0)
(1.19414 0.355119 1.06413e-19)
(1.1337 0.347865 1.93919e-19)
(1.07286 0.335977 1.65883e-19)
(1.01243 0.318009 2.95805e-19)
(0.961242 0.295756 0)
(0.925445 0.273745 -3.60649e-19)
(0.901995 0.25318 -2.1579e-19)
(0.882323 0.232395 -1.27099e-19)
(0.841235 0.207697 7.7595e-19)
(0.735559 0.172544 9.21227e-20)
(0.544367 0.123636 4.32162e-19)
(0.318499 0.072219 -2.0318e-18)
(0.126811 0.0289442 1.20732e-18)
(0.0118768 0.00286024 -1.43307e-18)
(0.249181 0.0762211 -1.22365e-19)
(1.137 0.337803 3.07686e-20)
(1.32532 0.400944 -2.93244e-20)
(1.3553 0.420686 -1.1794e-19)
(1.31441 0.422149 -1.17909e-19)
(1.25215 0.416328 3.49655e-21)
(1.18912 0.40821 -1.14949e-19)
(1.12553 0.397174 2.02102e-19)
(1.06125 0.381654 -3.56749e-19)
(0.996995 0.359958 0)
(0.941994 0.334037 -1.64338e-19)
(0.902417 0.308748 -3.22168e-21)
(0.874661 0.285368 -2.3549e-19)
(0.850694 0.262612 0)
(0.809494 0.236747 -1.67857e-19)
(0.713475 0.200533 -3.98263e-19)
(0.538785 0.148006 1.06195e-18)
(0.327466 0.0902481 -1.03917e-18)
(0.138974 0.0387303 1.47792e-18)
(0.0158268 0.00461136 -1.51243e-18)
(0.243233 0.0862783 -8.03036e-22)
(1.13199 0.391342 -2.44157e-20)
(1.32419 0.463338 -1.04983e-19)
(1.3531 0.484119 5.42005e-20)
(1.3104 0.482208 -6.06027e-20)
(1.24643 0.472467 0)
(1.18127 0.460638 -1.10756e-19)
(1.11515 0.446045 -2.12524e-19)
(1.0479 0.426943 -1.86419e-19)
(0.980171 0.401303 0)
(0.921652 0.371378 -1.71272e-19)
(0.878671 0.342683 -2.09514e-19)
(0.847453 0.316777 2.54881e-19)
(0.820617 0.292576 -1.53843e-19)
(0.780102 0.266073 -7.30253e-19)
(0.692507 0.228829 4.35517e-19)
(0.532061 0.172873 1.29844e-19)
(0.33314 0.108622 0)
(0.148015 0.048788 -1.42542e-18)
(0.0190128 0.006477 -5.14453e-20)
(0.238653 0.0958893 -1.13385e-20)
(1.12375 0.442071 2.07371e-20)
(1.31899 0.523505 5.3572e-20)
(1.34692 0.545179 1.83267e-19)
(1.30299 0.540381 -2.36301e-19)
(1.23792 0.527169 2.42753e-19)
(1.17118 0.511987 2.37824e-19)
(1.10295 0.494076 -3.39643e-19)
(1.03305 0.471465 1.12036e-19)
(0.96209 0.441799 -7.26564e-19)
(0.900319 0.4078 -1.92062e-19)
(0.854447 0.375774 0)
(0.820659 0.347595 2.7564e-19)
(0.792106 0.32216 3.2847e-19)
(0.752616 0.295079 3.91963e-19)
(0.670912 0.256347 -4.71191e-19)
(0.522426 0.197133 -1.38902e-19)
(0.333581 0.126162 1.62957e-19)
(0.152312 0.0579963 0)
(0.0209256 0.00813324 -1.11277e-19)
(0.235314 0.10521 7.77146e-20)
(1.11394 0.490149 -6.6327e-20)
(1.31102 0.581381 -5.38028e-20)
(1.33774 0.603551 1.19938e-19)
(1.29295 0.596334 -1.14116e-19)
(1.22728 0.5801 -8.05472e-21)
(1.15933 0.561947 -2.58087e-19)
(1.0893 0.540969 -1.22395e-19)
(1.01697 0.514956 -3.22758e-19)
(0.942982 0.481322 5.06801e-22)
(0.878194 0.443314 -6.02796e-19)
(0.829878 0.408051 5.00801e-19)
(0.79422 0.37767 -3.01167e-19)
(0.76464 0.350831 3.59953e-19)
(0.726123 0.322599 0)
(0.649069 0.281911 -2.54298e-19)
(0.50975 0.219239 -1.22477e-21)
(0.329063 0.141472 -7.06973e-19)
(0.15175 0.06537 -1.03373e-19)
(0.0214759 0.00931663 0)
(0.233077 0.114382 0)
(1.10354 0.535823 -6.39747e-20)
(1.30101 0.636254 -9.23364e-20)
(1.32638 0.659081 -1.18644e-19)
(1.281 0.649862 -1.34635e-19)
(1.21504 0.631051 0)
(1.14617 0.610275 -1.22299e-19)
(1.07456 0.586478 -2.29098e-21)
(0.999976 0.55724 6.90591e-19)
(0.923122 0.51979 -1.00271e-19)
(0.8555 0.477895 -4.34133e-19)
(0.805061 0.439452 2.61308e-19)
(0.767995 0.406772 -4.12492e-21)
(0.737752 0.378335 3.82518e-19)
(0.69993 0.348527 2.34494e-19)
(0.626355 0.305345 -5.4818e-19)
(0.494112 0.238638 6.48411e-19)
(0.319601 0.153892 1.90927e-19)
(0.147302 0.0704536 7.83896e-19)
(0.0208767 0.00993688 -2.06837e-18)
(0.231854 0.123545 2.67849e-21)
(1.09319 0.579258 -1.85772e-20)
(1.28991 0.688205 2.51745e-20)
(1.31354 0.711758 1.10418e-19)
(1.2677 0.70084 0)
(1.20167 0.679853 -1.22184e-19)
(1.13208 0.656785 4.04704e-19)
(1.05905 0.630424 2.69843e-19)
(0.982364 0.598181 0)
(0.902773 0.557143 -1.43368e-18)
(0.832438 0.511505 1.17015e-18)
(0.780063 0.469885 0)
(0.741838 0.434737 3.49746e-19)
(0.711152 0.404416 -4.06016e-21)
(0.673849 0.372652 -7.47647e-19)
(0.602658 0.326416 2.92537e-19)
(0.475323 0.254771 0)
(0.305905 0.162986 1.02827e-18)
(0.139182 0.0731497 0)
(0.019234 0.00994703 -9.75308e-19)
(0.231452 0.132749 3.57338e-21)
(1.08332 0.62058 -4.46109e-21)
(1.27809 0.737327 3.0283e-20)
(1.29975 0.761592 0)
(1.25356 0.749227 -1.28641e-19)
(1.18758 0.726419 0)
(1.11741 0.701344 -4.07716e-19)
(1.0431 0.672674 -1.29191e-19)
(0.964418 0.637695 1.23247e-19)
(0.88219 0.593347 -7.0821e-19)
(0.809173 0.544132 1.21315e-19)
(0.754897 0.499295 0)
(0.71563 0.461473 -7.46136e-19)
(0.684574 0.428925 4.11414e-21)
(0.647574 0.394734 0)
(0.577856 0.344839 4.14448e-21)
(0.453704 0.267424 9.399e-19)
(0.288457 0.168399 -8.87308e-19)
(0.128257 0.0735003 2.60043e-19)
(0.0169263 0.0094829 0)
(0.231513 0.141872 0)
(1.07414 0.659892 7.28416e-21)
(1.26586 0.783768 -1.39844e-20)
(1.28546 0.808614 -4.72316e-21)
(1.23897 0.795025 -5.46497e-20)
(1.1731 0.770697 -2.74302e-19)
(1.10244 0.743874 1.50272e-19)
(1.02695 0.713151 -1.48748e-19)
(0.946397 0.675723 5.4472e-19)
(0.861587 0.628391 -1.12997e-18)
(0.78584 0.57579 -7.0077e-21)
(0.729592 0.527689 -3.295e-19)
(0.689252 0.486958 1.20712e-18)
(0.657828 0.451853 -4.81339e-21)
(0.620894 0.414774 -5.77291e-19)
(0.551794 0.360524 -1.0299e-18)
(0.429589 0.276592 0)
(0.26794 0.170281 0)
(0.115158 0.071529 2.81127e-19)
(0.0142148 0.00854326 -1.62056e-19)
(0.23213 0.151049 1.95859e-20)
(1.0656 0.697045 -3.02673e-20)
(1.25353 0.827613 1.42449e-20)
(1.27104 0.852894 0)
(1.22422 0.838272 -3.10579e-21)
(1.1585 0.812668 -2.65678e-19)
(1.08742 0.784336 3.72502e-19)
(1.01086 0.751812 5.95576e-19)
(0.928527 0.712245 7.10285e-19)
(0.84117 0.66228 -9.23973e-19)
(0.762592 0.606532 -1.00007e-18)
(0.704181 0.555145 8.80138e-19)
(0.662641 0.511258 0)
(0.630769 0.473216 -2.62295e-19)
(0.593685 0.432742 -6.23574e-19)
(0.524508 0.373376 -7.38386e-19)
(0.403165 0.282086 -8.74978e-19)
(0.245023 0.168656 2.57935e-19)
(0.100458 0.0672884 -1.51078e-19)
(0.0111688 0.00717497 5.57835e-22)
(0.232882 0.160103 0)
(1.0578 0.732598 0)
(1.24133 0.868985 5.0563e-21)
(1.2567 0.894546 0)
(1.20956 0.879039 1.56913e-19)
(1.14398 0.852358 1.92606e-19)
(1.07257 0.822723 0)
(0.995016 0.788646 7.25387e-20)
(0.911009 0.747254 1.18798e-18)
(0.821135 0.695033 -2.11965e-18)
(0.739588 0.636434 0)
(0.678742 0.581791 -5.64869e-19)
(0.63574 0.53449 -5.83853e-21)
(0.603259 0.493064 -4.72812e-21)
(0.565833 0.448575 6.65447e-19)
(0.496014 0.383252 -7.41748e-22)
(0.374505 0.283818 -1.88092e-18)
(0.220045 0.163484 5.54345e-19)
(0.0851598 0.0612739 1.63077e-19)
(0.00812225 0.00555947 0)
(0.233646 0.169008 -1.14761e-19)
(1.05044 0.766506 -4.25121e-20)
(1.22931 0.907943 -1.69588e-20)
(1.24262 0.933688 -1.06113e-19)
(1.19515 0.917392 2.46997e-19)
(1.12974 0.889806 0)
(1.05802 0.859058 2.32152e-19)
(0.979588 0.823662 -1.5953e-19)
(0.894007 0.780759 7.68913e-21)
(0.801661 0.726675 1.54978e-19)
(0.716986 0.665576 1.29133e-18)
(0.65336 0.607789 -1.98282e-19)
(0.6085 0.556844 -7.40312e-19)
(0.575122 0.511473 -3.04303e-19)
(0.537168 0.462127 3.61302e-19)
(0.466387 0.389833 -3.9245e-22)
(0.344499 0.281618 5.06466e-19)
(0.194277 0.155175 -1.19108e-18)
(0.0699603 0.0539387 1.40189e-18)
(0.0052279 0.00382516 2.01301e-19)
(0.234239 0.177636 4.89126e-20)
(1.04348 0.798863 -2.77561e-20)
(1.21758 0.944604 1.20512e-20)
(1.2289 0.970442 -3.26397e-20)
(1.18114 0.953431 -3.92779e-20)
(1.11588 0.92507 -3.46597e-19)
(1.04393 0.893377 7.18794e-20)
(0.964701 0.856877 -6.67411e-19)
(0.877663 0.812759 -1.31209e-18)
(0.782892 0.757209 -1.26253e-18)
(0.694948 0.694026 0)
(0.628141 0.633303 -8.64975e-19)
(0.58091 0.578571 1.06317e-18)
(0.54613 0.528588 0)
(0.507387 0.473184 -7.7241e-19)
(0.435626 0.392594 4.61111e-19)
(0.313765 0.275152 -5.4345e-19)
(0.168928 0.144062 -6.40479e-19)
(0.0557686 0.0458421 -1.12816e-18)
(0.00266427 0.00212083 -8.66372e-19)
(0.235127 0.186104 -6.03263e-20)
(1.03678 0.829633 2.97695e-20)
(1.20618 0.979049 5.7729e-20)
(1.21561 1.0049 -2.57614e-20)
(1.1676 0.987243 9.08241e-20)
(1.1025 0.958227 -2.00942e-19)
(1.03037 0.925724 2.35766e-19)
(0.950454 0.888331 -6.90211e-19)
(0.862068 0.843276 -7.76976e-19)
(0.764957 0.786648 1.32134e-18)
(0.673621 0.721835 2.82635e-18)
(0.603237 0.658495 0)
(0.553005 0.599963 0)
(0.516007 0.544692 -3.49355e-19)
(0.475927 0.481564 0)
(0.403453 0.390655 9.91323e-19)
(0.28319 0.263553 1.16854e-18)
(0.145808 0.130198 0)
(0.0438706 0.0375745 0)
(0.000598973 0.000630472 9.30288e-19)
(0.235632 0.194104 7.44539e-20)
(1.03033 0.858798 5.98717e-20)
(1.19516 1.01139 4.47809e-20)
(1.20282 1.03719 -1.32875e-21)
(1.1546 1.01893 8.20357e-20)
(1.08967 0.989346 2.25727e-19)
(1.01742 0.95616 -3.26216e-19)
(0.936914 0.918052 9.02409e-23)
(0.847307 0.872316 -9.92476e-21)
(0.747954 0.814983 -1.08269e-20)
(0.653172 0.749038 1.45302e-18)
(0.578829 0.683494 0)
(0.524898 0.62133 1.06913e-18)
(0.484518 0.560234 7.43524e-19)
(0.44191 0.487399 1.79579e-18)
(0.368904 0.382916 5.32483e-19)
(0.253461 0.244634 -6.2939e-19)
(0.128443 0.111661 -3.68502e-19)
(0.0388115 0.0284362 0)
(0.000345986 -0.000196433 9.98574e-19)
(0.236394 0.202088 -1.79026e-19)
(1.02411 0.886457 0)
(1.18448 1.04169 6.63835e-20)
(1.19052 1.06739 -1.12209e-20)
(1.14218 1.04858 -6.45385e-20)
(1.07741 1.01851 -2.743e-19)
(1.00512 0.98474 6.51275e-19)
(0.924123 0.94608 -5.50022e-20)
(0.833426 0.899892 0)
(0.731965 0.842187 -1.45771e-18)
(0.633755 0.775636 -3.15456e-18)
(0.555124 0.708399 1.27121e-19)
(0.496823 0.642943 1.46709e-18)
(0.451593 0.575805 0)
(0.404295 0.491453 1.20781e-18)
(0.329677 0.368895 0)
(0.222481 0.214389 0)
(0.120079 0.077274 -3.98721e-19)
(0.060251 0.00744644 0)
(0.0261678 0.0103233 2.67311e-19)
(0.236758 0.20944 -2.10059e-19)
(1.01805 0.912927 0)
(1.17413 1.07014 1.21528e-19)
(1.17867 1.09573 0)
(1.13028 1.07645 2.39877e-20)
(1.06568 1.04601 0)
(0.993413 1.01178 3.52523e-20)
(0.911996 0.97276 9.49147e-20)
(0.820315 0.926374 9.66795e-20)
(0.716843 0.868652 -1.59748e-18)
(0.615229 0.80207 9.51146e-20)
(0.531956 0.733802 1.01548e-18)
(0.468516 0.665466 1.42636e-18)
(0.416609 0.59231 1.91412e-19)
(0.361367 0.495504 9.42823e-19)
(0.281361 0.350307 0)
(0.179249 0.171841 1.32608e-18)
(0.0929162 0.0198225 -7.72028e-19)
(0.0423913 0.0459946 8.86764e-19)
(-0.0596827 0.428458 -1.05306e-18)
(0.237068 0.216569 1.79778e-19)
(1.01192 0.938 2.67521e-19)
(1.16403 1.09705 0)
(1.16713 1.12265 1.00584e-20)
(1.11872 1.10312 -4.22942e-20)
(1.05421 1.07253 4.10857e-19)
(0.981999 1.03808 2.3563e-19)
(0.900141 0.999041 0)
(0.807464 0.952862 6.51065e-19)
(0.701938 0.895682 -8.45501e-20)
(0.596707 0.829801 0)
(0.508191 0.761463 0)
(0.438495 0.690653 1.27407e-18)
(0.377867 0.61119 -5.89528e-19)
(0.310272 0.502367 -9.51523e-19)
(0.219335 0.332409 0)
(0.103273 0.160963 6.59879e-19)
(0.00921752 0.438414 -7.58873e-19)
(0.0339652 1.87973 -4.20494e-19)
(0.0654407 2.80257 -5.53266e-19)
(0.237126 0.222901 -1.41227e-19)
(1.0058 0.961834 -3.55442e-19)
(1.15418 1.12242 7.97615e-20)
(1.15588 1.148 4.2041e-20)
(1.10755 1.12838 0)
(1.04307 1.09777 2.62279e-19)
(0.971073 1.06333 3.36518e-19)
(0.88874 1.02449 -4.68591e-20)
(0.795136 0.978834 9.64829e-20)
(0.687623 0.922663 1.52643e-18)
(0.578782 0.85814 1.59081e-18)
(0.484815 0.791002 1.1336e-18)
(0.407782 0.718232 1.27656e-18)
(0.337282 0.631133 -1.37575e-18)
(0.25721 0.514959 -1.43044e-18)
(0.144249 0.361517 0)
(0.0514225 0.831401 0)
(0.104635 2.54524 3.65945e-19)
(0.107363 3.19558 0)
(0.10973 3.38538 8.20926e-19)
(0.240208 0.228713 0)
(1.00027 0.984665 0)
(1.1443 1.14611 0)
(1.14468 1.17158 1.71012e-20)
(1.09644 1.15197 -2.80509e-20)
(1.03204 1.12161 1.63541e-19)
(0.960538 1.08743 2.21624e-19)
(0.877737 1.04899 -4.62564e-20)
(0.783282 1.00414 8.22062e-19)
(0.673911 0.949445 -1.93809e-20)
(0.561581 0.886941 3.14376e-18)
(0.462219 0.822309 -1.2976e-19)
(0.376714 0.748931 1.54773e-19)
(0.297177 0.649535 1.97774e-19)
(0.196704 0.534712 -2.38171e-21)
(0.11139 0.963676 3.47513e-21)
(0.147087 2.70432 -1.89944e-18)
(0.156552 3.2893 -7.14268e-19)
(0.144235 3.42596 3.66559e-19)
(0.130189 3.44845 -4.0574e-19)
(0.159263 0.18011 8.5335e-20)
(0.990249 1.00939 0)
(1.1342 1.16834 -1.8079e-19)
(1.13397 1.19374 -1.38346e-19)
(1.08605 1.17457 6.9439e-21)
(1.02193 1.14461 -1.60339e-19)
(0.950245 1.11045 -2.33866e-19)
(0.867213 1.07264 5.39331e-19)
(0.772076 1.02887 -6.75883e-19)
(0.661118 0.976106 0)
(0.54552 0.916307 1.54539e-18)
(0.440966 0.855141 -9.22065e-19)
(0.345831 0.78574 0)
(0.255155 0.671008 1.77593e-19)
(0.161884 0.80875 4.30797e-19)
(0.162156 2.46943 -5.17471e-19)
(0.22248 3.32283 5.74283e-19)
(0.201062 3.44102 3.15613e-19)
(0.166369 3.46266 3.52722e-19)
(0.143841 3.47289 5.75417e-19)
(0.280662 0.267671 -1.46941e-19)
(0.974654 1.01941 0)
(1.1163 1.19359 2.1118e-19)
(1.11919 1.22622 1.84611e-19)
(1.06965 1.20799 -5.32363e-20)
(1.00503 1.17867 1.09108e-19)
(0.932445 1.14596 2.62304e-19)
(0.848784 1.10928 4.18132e-20)
(0.752317 1.06752 6.59219e-19)
(0.638678 1.01837 1.33504e-18)
(0.518104 0.964366 8.84332e-20)
(0.40528 0.910198 8.22552e-19)
(0.291891 0.847224 1.44426e-19)
(0.221086 0.976095 -1.79996e-19)
(0.235447 2.32105 -4.08718e-19)
(0.296624 3.32768 3.93493e-19)
(0.280798 3.47285 -4.49677e-19)
(0.24445 3.49442 -2.6326e-19)
(0.206795 3.52153 -2.23876e-19)
(0.155172 3.51438 -2.14428e-20)
(0.269835 0.265208 0)
(0.972704 1.04244 7.09573e-20)
(1.10836 1.21694 -4.69464e-20)
(1.10919 1.24951 -2.56839e-20)
(1.05931 1.23117 -5.71542e-20)
(0.994801 1.20218 -9.3493e-20)
(0.921912 1.1697 -1.52464e-19)
(0.838104 1.13378 3.83653e-20)
(0.741219 1.0934 -6.94666e-19)
(0.626501 1.0469 -2.82035e-20)
(0.503612 0.997389 -2.81946e-18)
(0.387008 0.94863 1.16779e-19)
(0.280425 0.915832 -1.36438e-19)
(0.260096 1.48808 -1.68696e-19)
(0.334135 3.09221 3.4441e-20)
(0.356841 3.47176 2.03932e-21)
(0.315114 3.52867 6.8976e-19)
(0.27743 3.55367 3.47535e-19)
(0.228255 3.57664 -1.04161e-19)
(0.169704 3.57185 -1.09435e-19)
(0.253949 0.263115 1.87602e-19)
(0.96928 1.06802 4.9712e-19)
(1.09997 1.2424 -1.36709e-19)
(1.09866 1.27422 -9.73494e-20)
(1.0485 1.25574 0)
(0.984161 1.22686 -6.30667e-20)
(0.911236 1.19465 -1.90992e-19)
(0.827552 1.15947 3.4698e-20)
(0.730571 1.12055 -7.67217e-20)
(0.615292 1.0769 -1.2314e-18)
(0.490901 1.03223 -1.31147e-18)
(0.37231 0.989888 -9.68117e-19)
(0.282778 1.04579 -1.03493e-18)
(0.32769 2.18 1.0613e-18)
(0.419979 3.37969 8.86892e-19)
(0.400823 3.53187 0)
(0.353481 3.57515 0)
(0.314981 3.61513 -8.69093e-20)
(0.262938 3.67445 0)
(0.181506 3.6494 -1.09693e-19)
(0.243271 0.264852 -2.92464e-19)
(0.963708 1.0945 -4.37008e-19)
(1.0902 1.26908 0)
(1.08686 1.29978 1.194e-20)
(1.03651 1.28094 -1.01104e-19)
(0.97245 1.25205 -4.05378e-20)
(0.899806 1.22011 -1.0492e-19)
(0.816456 1.18556 2.45067e-20)
(0.719623 1.14803 -5.13213e-19)
(0.604187 1.1072 6.34587e-20)
(0.479104 1.06752 0)
(0.361287 1.03468 0)