0.490941 	2.03857 	0.00564124 	3.00061 	-6.30361e-20
0.561075 	2.03857 	0.00564124 	3.00061 	-6.30361e-20
0.63121 	2.03857 	0.00564124 	3.00061 	-6.30361e-20
0.701344 	2.03857 	0.00564124 	3.00061 	-6.30361e-20
0.771478 	2.03857 	0.00564124 	3.00061 	-6.30361e-20
0.841613 	2.03857 	0.00564124 	3.00061 	-6.30361e-20
0.911747 	2.03857 	0.00564124 	3.00061 	-6.30361e-20
0.981881 	2.03857 	0.00564124 	3.00061 	-6.30361e-20
1.05202 	2.03857 	0.00564124 	3.00061 	-6.30361e-20
1.12215 	2.03857 	0.00564124 	3.00061 	-6.30361e-20
1.19228 	2.03857 	0.00564124 	3.00061 	-6.30361e-20
1.26242 	2.03857 	0.00564124 	3.00061 	-6.30361e-20
1.33255 	1.99922 	0.014192 	3.01445 	-6.51503e-20
1.40269 	1.99922 	0.014192 	3.01445 	-6.51503e-20
1.47282 	1.99922 	0.014192 	3.01445 	-6.51503e-20
1.54296 	1.99922 	0.014192 	3.01445 	-6.51503e-20
1.61309 	1.99922 	0.014192 	3.01445 	-6.51503e-20
1.68323 	1.99922 	0.014192 	3.01445 	-6.51503e-20
1.75336 	1.99922 	0.014192 	3.01445 	-6.51503e-20
1.82349 	1.99922 	0.014192 	3.01445 	-6.51503e-20
1.89363 	1.99922 	0.014192 	3.01445 	-6.51503e-20
1.96376 	1.99922 	0.014192 	3.01445 	-6.51503e-20
2.0339 	1.99922 	0.014192 	3.01445 	-6.51503e-20
2.10403 	1.99922 	0.014192 	3.01445 	-6.51503e-20
2.17417 	1.93847 	0.0140874 	3.03181 	1.35221e-19
2.2443 	1.93847 	0.0140874 	3.03181 	1.35221e-19
2.31443 	1.93847 	0.0140874 	3.03181 	1.35221e-19
2.38457 	1.93847 	0.0140874 	3.03181 	1.35221e-19
2.4547 	1.93847 	0.0140874 	3.03181 	1.35221e-19
2.52484 	1.93847 	0.0140874 	3.03181 	1.35221e-19
2.59497 	1.93847 	0.0140874 	3.03181 	1.35221e-19
2.66511 	1.93847 	0.0140874 	3.03181 	1.35221e-19
2.73524 	1.93847 	0.0140874 	3.03181 	1.35221e-19
2.80538 	1.93847 	0.0140874 	3.03181 	1.35221e-19
2.87551 	1.93847 	0.0140874 	3.03181 	1.35221e-19
2.94564 	1.93847 	0.0140874 	3.03181 	1.35221e-19
3.01578 	1.86452 	0.016558 	3.05893 	-1.58957e-20
3.08591 	1.86452 	0.016558 	3.05893 	-1.58957e-20
3.15605 	1.86452 	0.016558 	3.05893 	-1.58957e-20
3.22618 	1.86452 	0.016558 	3.05893 	-1.58957e-20
3.29632 	1.86452 	0.016558 	3.05893 	-1.58957e-20
3.36645 	1.86452 	0.016558 	3.05893 	-1.58957e-20
3.43659 	1.86452 	0.016558 	3.05893 	-1.58957e-20
3.50672 	1.86452 	0.016558 	3.05893 	-1.58957e-20
3.57685 	1.86452 	0.016558 	3.05893 	-1.58957e-20
3.64699 	1.86452 	0.016558 	3.05893 	-1.58957e-20
3.71712 	1.86452 	0.016558 	3.05893 	-1.58957e-20
3.78726 	1.85734 	0.00718396 	3.05538 	3.1117e-20
3.85739 	1.77843 	-0.000829855 	3.08431 	-2.32571e-19
3.92753 	1.77843 	-0.000829855 	3.08431 	-2.32571e-19
3.99766 	1.77843 	-0.000829855 	3.08431 	-2.32571e-19
4.06779 	1.77843 	-0.000829855 	3.08431 	-2.32571e-19
4.13793 	1.77843 	-0.000829855 	3.08431 	-2.32571e-19
4.20806 	1.77843 	-0.000829855 	3.08431 	-2.32571e-19
4.2782 	1.77843 	-0.000829855 	3.08431 	-2.32571e-19
4.34833 	1.77843 	-0.000829855 	3.08431 	-2.32571e-19
4.41847 	1.77843 	-0.000829855 	3.08431 	-2.32571e-19
4.4886 	1.77843 	-0.000829855 	3.08431 	-2.32571e-19
4.55874 	1.77843 	-0.000829855 	3.08431 	-2.32571e-19
4.62887 	1.77843 	-0.000829855 	3.08431 	-2.32571e-19
4.699 	1.77843 	-0.000829855 	3.08431 	-2.32571e-19
4.76914 	1.69971 	0.00556373 	3.10647 	4.54757e-19
4.83927 	1.69971 	0.00556373 	3.10647 	4.54757e-19
4.90941 	1.69971 	0.00556373 	3.10647 	4.54757e-19
4.97954 	1.69971 	0.00556373 	3.10647 	4.54757e-19
5.04968 	1.69971 	0.00556373 	3.10647 	4.54757e-19
5.11981 	1.69971 	0.00556373 	3.10647 	4.54757e-19
5.18994 	1.69971 	0.00556373 	3.10647 	4.54757e-19
5.26008 	1.69971 	0.00556373 	3.10647 	4.54757e-19
5.33021 	1.69971 	0.00556373 	3.10647 	4.54757e-19
5.40035 	1.69971 	0.00556373 	3.10647 	4.54757e-19
5.47048 	1.69971 	0.00556373 	3.10647 	4.54757e-19
5.54062 	1.69971 	0.00556373 	3.10647 	4.54757e-19
5.61075 	1.62506 	-0.00216864 	3.13375 	-2.21959e-19
5.68089 	1.62506 	-0.00216864 	3.13375 	-2.21959e-19
5.75102 	1.62506 	-0.00216864 	3.13375 	-2.21959e-19
5.82115 	1.62506 	-0.00216864 	3.13375 	-2.21959e-19
5.89129 	1.62506 	-0.00216864 	3.13375 	-2.21959e-19
5.96142 	1.62506 	-0.00216864 	3.13375 	-2.21959e-19
6.03156 	1.62506 	-0.00216864 	3.13375 	-2.21959e-19
6.10169 	1.62506 	-0.00216864 	3.13375 	-2.21959e-19
6.17183 	1.62506 	-0.00216864 	3.13375 	-2.21959e-19
6.24196 	1.62506 	-0.00216864 	3.13375 	-2.21959e-19
6.3121 	1.62506 	-0.00216864 	3.13375 	-2.21959e-19
6.38223 	1.62506 	-0.00216864 	3.13375 	-2.21959e-19
6.45236 	1.55378 	0.0053951 	3.15312 	0
6.5225 	1.55378 	0.0053951 	3.15312 	0
6.59263 	1.55378 	0.0053951 	3.15312 	0
6.66277 	1.55378 	0.0053951 	3.15312 	0
6.7329 	1.55378 	0.0053951 	3.15312 	0
6.80304 	1.55378 	0.0053951 	3.15312 	0
6.87317 	1.55378 	0.0053951 	3.15312 	0
6.9433 	1.55378 	0.0053951 	3.15312 	0
7.01344 	1.55378 	0.0053951 	3.15312 	0
7.08357 	1.55378 	0.0053951 	3.15312 	0
7.15371 	1.55378 	0.0053951 	3.15312 	0
7.22384 	1.55378 	0.0053951 	3.15312 	0
7.29398 	1.48579 	-0.00120894 	3.17807 	0
7.36411 	1.48579 	-0.00120894 	3.17807 	0
7.43425 	1.48579 	-0.00120894 	3.17807 	0
7.50438 	1.48579 	-0.00120894 	3.17807 	0
7.57451 	1.48579 	-0.00120894 	3.17807 	0
7.64465 	1.48579 	-0.00120894 	3.17807 	0
7.71478 	1.48579 	-0.00120894 	3.17807 	0
7.78492 	1.48579 	-0.00120894 	3.17807 	0
7.85505 	1.48579 	-0.00120894 	3.17807 	0
7.92519 	1.48579 	-0.00120894 	3.17807 	0
7.99532 	1.48579 	-0.00120894 	3.17807 	0
8.06545 	1.48579 	-0.00120894 	3.17807 	0
8.13559 	1.48579 	-0.00120894 	3.17807 	0
8.20572 	1.41864 	0.00801326 	3.19577 	3.71804e-22
8.27586 	1.41864 	0.00801326 	3.19577 	3.71804e-22
8.34599 	1.41864 	0.00801326 	3.19577 	3.71804e-22
8.41613 	1.41864 	0.00801326 	3.19577 	3.71804e-22
8.48626 	1.41864 	0.00801326 	3.19577 	3.71804e-22
8.5564 	1.41864 	0.00801326 	3.19577 	3.71804e-22
8.62653 	1.41864 	0.00801326 	3.19577 	3.71804e-22
8.69666 	1.41864 	0.00801326 	3.19577 	3.71804e-22
8.7668 	1.41864 	0.00801326 	3.19577 	3.71804e-22
8.83693 	1.41864 	0.00801326 	3.19577 	3.71804e-22
8.90707 	1.41864 	0.00801326 	3.19577 	3.71804e-22
8.9772 	1.41864 	0.00801326 	3.19577 	3.71804e-22
9.04734 	1.35225 	0.0038527 	3.22 	3.52052e-19
9.11747 	1.35225 	0.0038527 	3.22 	3.52052e-19
9.18761 	1.35225 	0.0038527 	3.22 	3.52052e-19
9.25774 	1.35225 	0.0038527 	3.22 	3.52052e-19
9.32787 	1.35225 	0.0038527 	3.22 	3.52052e-19
9.39801 	1.35225 	0.0038527 	3.22 	3.52052e-19
9.46814 	1.35225 	0.0038527 	3.22 	3.52052e-19
9.53828 	1.35225 	0.0038527 	3.22 	3.52052e-19
9.60841 	1.35225 	0.0038527 	3.22 	3.52052e-19
9.67855 	1.35225 	0.0038527 	3.22 	3.52052e-19
9.74868 	1.35225 	0.0038527 	3.22 	3.52052e-19
9.81881 	1.35225 	0.0038527 	3.22 	3.52052e-19
9.88895 	1.35225 	0.0038527 	3.22 	3.52052e-19
9.95908 	1.28511 	0.0182092 	3.2374 	3.04805e-21
10.0292 	1.28511 	0.0182092 	3.2374 	3.04805e-21
10.0994 	1.28511 	0.0182092 	3.2374 	3.04805e-21
10.1695 	1.28511 	0.0182092 	3.2374 	3.04805e-21
10.2396 	1.28511 	0.0182092 	3.2374 	3.04805e-21
10.3098 	1.28511 	0.0182092 	3.2374 	3.04805e-21
10.3799 	1.28511 	0.0182092 	3.2374 	3.04805e-21
10.45 	1.28511 	0.0182092 	3.2374 	3.04805e-21
10.5202 	1.28511 	0.0182092 	3.2374 	3.04805e-21
10.5903 	1.28511 	0.0182092 	3.2374 	3.04805e-21
10.6604 	1.28511 	0.0182092 	3.2374 	3.04805e-21
10.7306 	1.28511 	0.0182092 	3.2374 	3.04805e-21
10.8007 	1.21715 	0.0243019 	3.26182 	-3.52533e-19
10.8708 	1.21715 	0.0243019 	3.26182 	-3.52533e-19
10.941 	1.21715 	0.0243019 	3.26182 	-3.52533e-19
11.0111 	1.21715 	0.0243019 	3.26182 	-3.52533e-19
11.0812 	1.21715 	0.0243019 	3.26182 	-3.52533e-19
11.1514 	1.21715 	0.0243019 	3.26182 	-3.52533e-19
11.2215 	1.21715 	0.0243019 	3.26182 	-3.52533e-19
11.2916 	1.21715 	0.0243019 	3.26182 	-3.52533e-19
11.3618 	1.21715 	0.0243019 	3.26182 	-3.52533e-19
11.4319 	1.21715 	0.0243019 	3.26182 	-3.52533e-19
11.502 	1.21715 	0.0243019 	3.26182 	-3.52533e-19
11.5722 	1.21715 	0.0243019 	3.26182 	-3.52533e-19
11.6423 	1.21715 	0.0243019 	3.26182 	-3.52533e-19
11.7124 	1.14306 	0.0560052 	3.28158 	-5.67156e-19
11.7826 	1.14306 	0.0560052 	3.28158 	-5.67156e-19
11.8527 	1.14306 	0.0560052 	3.28158 	-5.67156e-19
11.9228 	1.14306 	0.0560052 	3.28158 	-5.67156e-19
11.993 	1.14306 	0.0560052 	3.28158 	-5.67156e-19
12.0631 	1.14306 	0.0560052 	3.28158 	-5.67156e-19
12.1332 	1.14306 	0.0560052 	3.28158 	-5.67156e-19
12.2034 	1.14306 	0.0560052 	3.28158 	-5.67156e-19
12.2735 	1.14306 	0.0560052 	3.28158 	-5.67156e-19
12.3437 	1.14306 	0.0560052 	3.28158 	-5.67156e-19
12.4138 	1.14306 	0.0560052 	3.28158 	-5.67156e-19
12.4839 	1.14306 	0.0560052 	3.28158 	-5.67156e-19
12.5541 	1.14306 	0.0560052 	3.28158 	-5.67156e-19
12.6242 	1.05867 	0.0822004 	3.30897 	1.10681e-18
12.6943 	1.05867 	0.0822004 	3.30897 	1.10681e-18
12.7645 	1.05867 	0.0822004 	3.30897 	1.10681e-18
12.8346 	1.05867 	0.0822004 	3.30897 	1.10681e-18
12.9047 	1.05867 	0.0822004 	3.30897 	1.10681e-18
12.9749 	1.05867 	0.0822004 	3.30897 	1.10681e-18
13.045 	1.05867 	0.0822004 	3.30897 	1.10681e-18
13.1151 	1.05867 	0.0822004 	3.30897 	1.10681e-18
13.1853 	1.05867 	0.0822004 	3.30897 	1.10681e-18
13.2554 	1.05867 	0.0822004 	3.30897 	1.10681e-18
13.3255 	1.05867 	0.0822004 	3.30897 	1.10681e-18
13.3957 	1.05867 	0.0822004 	3.30897 	1.10681e-18
13.4658 	1.05867 	0.0822004 	3.30897 	1.10681e-18
13.5359 	0.948087 	0.158851 	3.34448 	-5.42669e-19
13.6061 	0.948087 	0.158851 	3.34448 	-5.42669e-19
13.6762 	0.948087 	0.158851 	3.34448 	-5.42669e-19
13.7463 	0.948087 	0.158851 	3.34448 	-5.42669e-19
13.8165 	0.948087 	0.158851 	3.34448 	-5.42669e-19
13.8866 	0.948087 	0.158851 	3.34448 	-5.42669e-19
13.9567 	0.948087 	0.158851 	3.34448 	-5.42669e-19
14.0269 	0.948087 	0.158851 	3.34448 	-5.42669e-19
14.097 	0.948087 	0.158851 	3.34448 	-5.42669e-19
14.1671 	0.948087 	0.158851 	3.34448 	-5.42669e-19
14.2373 	0.948087 	0.158851 	3.34448 	-5.42669e-19
14.3074 	0.948087 	0.158851 	3.34448 	-5.42669e-19
14.3776 	0.842505 	0.183794 	3.36683 	0
14.4477 	0.635414 	0.181227 	3.42638 	6.27025e-19
14.5178 	0.635414 	0.181227 	3.42638 	6.27025e-19
14.588 	0.635414 	0.181227 	3.42638 	6.27025e-19
14.6581 	0.635414 	0.181227 	3.42638 	6.27025e-19
14.7282 	0.635414 	0.181227 	3.42638 	6.27025e-19
14.7984 	0.635414 	0.181227 	3.42638 	6.27025e-19
14.8685 	0.659936 	0.206699 	3.41745 	-1.25383e-18
14.9386 	0.659936 	0.206699 	3.41745 	-1.25383e-18
15.0088 	0.659936 	0.206699 	3.41745 	-1.25383e-18
15.0789 	0.659936 	0.206699 	3.41745 	-1.25383e-18
15.149 	0.659936 	0.206699 	3.41745 	-1.25383e-18
15.2192 	0.416969 	0.271689 	3.48509 	8.58841e-19
15.2893 	0.416969 	0.271689 	3.48509 	8.58841e-19
15.3594 	0.416969 	0.271689 	3.48509 	8.58841e-19
15.4296 	0.544491 	0.343792 	3.44086 	-5.01038e-20
15.4997 	0.544491 	0.343792 	3.44086 	-5.01038e-20
15.5698 	0.544491 	0.343792 	3.44086 	-5.01038e-20
15.64 	0.544491 	0.343792 	3.44086 	-5.01038e-20
15.7101 	0.544491 	0.343792 	3.44086 	-5.01038e-20
15.7802 	0.544491 	0.343792 	3.44086 	-5.01038e-20
15.8504 	0.544491 	0.343792 	3.44086 	-5.01038e-20
15.9205 	0.28256 	0.345508 	3.54095 	9.51324e-20
15.9906 	0.28256 	0.345508 	3.54095 	9.51324e-20
16.0608 	0.28256 	0.345508 	3.54095 	9.51324e-20
16.1309 	0.4963 	0.432563 	3.45321 	3.748e-19
16.201 	0.4963 	0.432563 	3.45321 	3.748e-19
16.2712 	0.4963 	0.432563 	3.45321 	3.748e-19
16.3413 	0.4963 	0.432563 	3.45321 	3.748e-19
16.4114 	0.4963 	0.432563 	3.45321 	3.748e-19
16.4816 	0.4963 	0.432563 	3.45321 	3.748e-19
16.5517 	0.4963 	0.432563 	3.45321 	3.748e-19
16.6219 	0.305609 	0.533455 	3.53071 	0
16.692 	0.305609 	0.533455 	3.53071 	0
16.7621 	0.305609 	0.533455 	3.53071 	0
16.8323 	0.305609 	0.533455 	3.53071 	0
16.9024 	0.305609 	0.533455 	3.53071 	0
16.9725 	0.541363 	0.539536 	3.43209 	3.34205e-19
17.0427 	0.541363 	0.539536 	3.43209 	3.34205e-19
17.1128 	0.541363 	0.539536 	3.43209 	3.34205e-19
17.1829 	0.541363 	0.539536 	3.43209 	3.34205e-19
17.2531 	0.386115 	0.62742 	3.48553 	4.12151e-19
17.3232 	0.386115 	0.62742 	3.48553 	4.12151e-19
17.3933 	0.386115 	0.62742 	3.48553 	4.12151e-19
17.4635 	0.386115 	0.62742 	3.48553 	4.12151e-19
17.5336 	0.386115 	0.62742 	3.48553 	4.12151e-19
17.6037 	0.386115 	0.62742 	3.48553 	4.12151e-19
17.6739 	0.386115 	0.62742 	3.48553 	4.12151e-19
17.744 	0.386115 	0.62742 	3.48553 	4.12151e-19
17.8141 	0.386115 	0.62742 	3.48553 	4.12151e-19
17.8843 	0.386115 	0.62742 	3.48553 	4.12151e-19
17.9544 	0.46634 	0.646316 	3.40569 	0
18.0245 	0.46634 	0.646316 	3.40569 	0
18.0947 	0.46634 	0.646316 	3.40569 	0
18.1648 	0.46634 	0.646316 	3.40569 	0
18.2349 	0.46634 	0.646316 	3.40569 	0
18.3051 	0.46634 	0.646316 	3.40569 	0
18.3752 	0.46634 	0.646316 	3.40569 	0
18.4453 	0.46634 	0.646316 	3.40569 	0
18.5155 	0.46634 	0.646316 	3.40569 	0
18.5856 	0.367463 	0.732411 	3.44357 	0
18.6557 	0.367463 	0.732411 	3.44357 	0
18.7259 	0.367463 	0.732411 	3.44357 	0
18.796 	0.367463 	0.732411 	3.44357 	0
18.8662 	0.367463 	0.732411 	3.44357 	0
18.9363 	0.367463 	0.732411 	3.44357 	0
19.0064 	0.367463 	0.732411 	3.44357 	0
19.0766 	0.367463 	0.732411 	3.44357 	0
19.1467 	0.367463 	0.732411 	3.44357 	0
19.2168 	0.315295 	0.792167 	3.43593 	-6.89138e-20
19.287 	0.550212 	0.71769 	3.21728 	-1.43009e-19
19.3571 	0.550212 	0.71769 	3.21728 	-1.43009e-19
19.4272 	0.550212 	0.71769 	3.21728 	-1.43009e-19
19.4974 	0.550212 	0.71769 	3.21728 	-1.43009e-19
19.5675 	0.550212 	0.71769 	3.21728 	-1.43009e-19
19.6376 	0.550212 	0.71769 	3.21728 	-1.43009e-19
19.7078 	0.550212 	0.71769 	3.21728 	-1.43009e-19
19.7779 	0.550212 	0.71769 	3.21728 	-1.43009e-19
19.848 	0.550212 	0.71769 	3.21728 	-1.43009e-19
19.9182 	0.49872 	0.769023 	3.28422 	-4.64992e-19
19.9883 	0.49872 	0.769023 	3.28422 	-4.64992e-19
20.0584 	0.49872 	0.769023 	3.28422 	-4.64992e-19
20.1286 	0.49872 	0.769023 	3.28422 	-4.64992e-19
20.1987 	0.49872 	0.769023 	3.28422 	-4.64992e-19
20.2688 	0.49872 	0.769023 	3.28422 	-4.64992e-19
20.339 	0.49872 	0.769023 	3.28422 	-4.64992e-19
20.4091 	0.49872 	0.769023 	3.28422 	-4.64992e-19
20.4792 	0.49872 	0.769023 	3.28422 	-4.64992e-19
20.5494 	0.49872 	0.769023 	3.28422 	-4.64992e-19
20.6195 	0.437648 	0.834605 	3.32868 	-6.14075e-20
20.6896 	0.437648 	0.834605 	3.32868 	-6.14075e-20
20.7598 	0.437648 	0.834605 	3.32868 	-6.14075e-20
20.8299 	0.437648 	0.834605 	3.32868 	-6.14075e-20
20.9 	0.528295 	0.718478 	2.73072 	-5.8353e-19
20.9702 	0.528295 	0.718478 	2.73072 	-5.8353e-19
21.0403 	0.528295 	0.718478 	2.73072 	-5.8353e-19
21.1105 	0.528295 	0.718478 	2.73072 	-5.8353e-19
21.1806 	0.528295 	0.718478 	2.73072 	-5.8353e-19
21.2507 	0.528295 	0.718478 	2.73072 	-5.8353e-19
21.3209 	0.48561 	0.772978 	2.92048 	0
21.391 	0.48561 	0.772978 	2.92048 	0
21.4611 	0.48561 	0.772978 	2.92048 	0
21.5313 	0.48561 	0.772978 	2.92048 	0
21.6014 	0.48561 	0.772978 	2.92048 	0
21.6715 	0.48561 	0.772978 	2.92048 	0
21.7417 	0.48561 	0.772978 	2.92048 	0
21.8118 	0.48561 	0.772978 	2.92048 	0
21.8819 	0.48561 	0.772978 	2.92048 	0
21.9521 	0.48561 	0.772978 	2.92048 	0
22.0222 	0.48561 	0.772978 	2.92048 	0
22.0923 	0.442325 	0.82607 	3.05332 	-2.99019e-19
22.1625 	0.442325 	0.82607 	3.05332 	-2.99019e-19
22.2326 	0.442325 	0.82607 	3.05332 	-2.99019e-19
22.3027 	0.442325 	0.82607 	3.05332 	-2.99019e-19
22.3729 	0.442325 	0.82607 	3.05332 	-2.99019e-19
22.443 	0.442325 	0.82607 	3.05332 	-2.99019e-19
22.5131 	0.442325 	0.82607 	3.05332 	-2.99019e-19
22.5833 	0.442325 	0.82607 	3.05332 	-2.99019e-19
22.6534 	0.442325 	0.82607 	3.05332 	-2.99019e-19
22.7235 	0.442325 	0.82607 	3.05332 	-2.99019e-19
22.7937 	0.442325 	0.82607 	3.05332 	-2.99019e-19
22.8638 	0.39263 	0.873003 	3.12573 	5.80101e-19
22.9339 	0.39263 	0.873003 	3.12573 	5.80101e-19
23.0041 	0.39263 	0.873003 	3.12573 	5.80101e-19
23.0742 	0.416383 	0.701742 	2.20315 	1.81106e-19
23.1443 	0.416383 	0.701742 	2.20315 	1.81106e-19
23.2145 	0.416383 	0.701742 	2.20315 	1.81106e-19
23.2846 	0.416383 	0.701742 	2.20315 	1.81106e-19
23.3548 	0.416383 	0.701742 	2.20315 	1.81106e-19
23.4249 	0.416383 	0.701742 	2.20315 	1.81106e-19
23.495 	0.416383 	0.701742 	2.20315 	1.81106e-19
23.5652 	0.416383 	0.701742 	2.20315 	1.81106e-19
23.6353 	0.416383 	0.701742 	2.20315 	1.81106e-19
23.7054 	0.367255 	0.747302 	2.38074 	-5.44184e-20
23.7756 	0.367255 	0.747302 	2.38074 	-5.44184e-20
23.8457 	0.367255 	0.747302 	2.38074 	-5.44184e-20
23.9158 	0.367255 	0.747302 	2.38074 	-5.44184e-20
23.986 	0.367255 	0.747302 	2.38074 	-5.44184e-20
24.0561 	0.367255 	0.747302 	2.38074 	-5.44184e-20
24.1262 	0.367255 	0.747302 	2.38074 	-5.44184e-20
24.1964 	0.367255 	0.747302 	2.38074 	-5.44184e-20
24.2665 	0.367255 	0.747302 	2.38074 	-5.44184e-20
24.3366 	0.367255 	0.747302 	2.38074 	-5.44184e-20
24.4068 	0.367255 	0.747302 	2.38074 	-5.44184e-20
24.4769 	0.367255 	0.747302 	2.38074 	-5.44184e-20
24.547 	0.367255 	0.747302 	2.38074 	-5.44184e-20
24.6172 	0.320324 	0.791872 	2.52421 	4.1747e-19
24.6873 	0.320324 	0.791872 	2.52421 	4.1747e-19
24.7574 	0.320324 	0.791872 	2.52421 	4.1747e-19
24.8276 	0.320324 	0.791872 	2.52421 	4.1747e-19
24.8977 	0.320324 	0.791872 	2.52421 	4.1747e-19
24.9678 	0.320324 	0.791872 	2.52421 	4.1747e-19
25.038 	0.320324 	0.791872 	2.52421 	4.1747e-19
25.1081 	0.320324 	0.791872 	2.52421 	4.1747e-19
25.1782 	0.320324 	0.791872 	2.52421 	4.1747e-19
25.2484 	0.320324 	0.791872 	2.52421 	4.1747e-19
25.3185 	0.320324 	0.791872 	2.52421 	4.1747e-19
25.3886 	0.320324 	0.791872 	2.52421 	4.1747e-19
25.4588 	0.274147 	0.833999 	2.64473 	-3.50067e-19
25.5289 	0.274147 	0.833999 	2.64473 	-3.50067e-19
25.5991 	0.274147 	0.833999 	2.64473 	-3.50067e-19
25.6692 	0.274147 	0.833999 	2.64473 	-3.50067e-19
25.7393 	0.274147 	0.833999 	2.64473 	-3.50067e-19
25.8095 	0.274147 	0.833999 	2.64473 	-3.50067e-19
25.8796 	0.274147 	0.833999 	2.64473 	-3.50067e-19
25.9497 	0.274147 	0.833999 	2.64473 	-3.50067e-19
26.0199 	0.274147 	0.833999 	2.64473 	-3.50067e-19
26.09 	0.294144 	0.623743 	1.71236 	-9.6184e-20
26.1601 	0.294144 	0.623743 	1.71236 	-9.6184e-20
26.2303 	0.294144 	0.623743 	1.71236 	-9.6184e-20
26.3004 	0.294144 	0.623743 	1.71236 	-9.6184e-20
26.3705 	0.294144 	0.623743 	1.71236 	-9.6184e-20
26.4407 	0.255234 	0.636332 	1.77394 	5.85292e-20
26.5108 	0.255234 	0.636332 	1.77394 	5.85292e-20
26.5809 	0.255234 	0.636332 	1.77394 	5.85292e-20
26.6511 	0.255234 	0.636332 	1.77394 	5.85292e-20
26.7212 	0.255234 	0.636332 	1.77394 	5.85292e-20
26.7913 	0.255234 	0.636332 	1.77394 	5.85292e-20
26.8615 	0.255234 	0.636332 	1.77394 	5.85292e-20
26.9316 	0.255234 	0.636332 	1.77394 	5.85292e-20
27.0017 	0.255234 	0.636332 	1.77394 	5.85292e-20
27.0719 	0.255234 	0.636332 	1.77394 	5.85292e-20
27.142 	0.255234 	0.636332 	1.77394 	5.85292e-20
27.2121 	0.255234 	0.636332 	1.77394 	5.85292e-20
27.2823 	0.255234 	0.636332 	1.77394 	5.85292e-20
27.3524 	0.218459 	0.652969 	1.82504 	0
27.4225 	0.218459 	0.652969 	1.82504 	0
27.4927 	0.218459 	0.652969 	1.82504 	0
27.5628 	0.218459 	0.652969 	1.82504 	0
27.6329 	0.218459 	0.652969 	1.82504 	0
27.7031 	0.218459 	0.652969 	1.82504 	0
27.7732 	0.218459 	0.652969 	1.82504 	0
27.8434 	0.218459 	0.652969 	1.82504 	0
27.9135 	0.218459 	0.652969 	1.82504 	0
27.9836 	0.218459 	0.652969 	1.82504 	0
28.0538 	0.218459 	0.652969 	1.82504 	0
28.1239 	0.218459 	0.652969 	1.82504 	0
28.194 	0.218459 	0.652969 	1.82504 	0
28.2642 	0.218459 	0.652969 	1.82504 	0
28.3343 	0.218459 	0.652969 	1.82504 	0
28.4044 	0.183199 	0.65741 	1.85355 	0
28.4746 	0.183199 	0.65741 	1.85355 	0
28.5447 	0.183199 	0.65741 	1.85355 	0
28.6148 	0.183199 	0.65741 	1.85355 	0
28.685 	0.183199 	0.65741 	1.85355 	0
28.7551 	0.183199 	0.65741 	1.85355 	0
28.8252 	0.183199 	0.65741 	1.85355 	0
28.8954 	0.183199 	0.65741 	1.85355 	0
28.9655 	0.183199 	0.65741 	1.85355 	0
29.0356 	0.183199 	0.65741 	1.85355 	0
29.1058 	0.183199 	0.65741 	1.85355 	0
29.1759 	0.183199 	0.65741 	1.85355 	0
29.246 	0.183199 	0.65741 	1.85355 	0
29.3162 	0.183199 	0.65741 	1.85355 	0
29.3863 	0.183199 	0.65741 	1.85355 	0
29.4564 	0.153871 	0.658294 	1.85722 	6.2339e-20
29.5266 	0.153871 	0.658294 	1.85722 	6.2339e-20
29.5967 	0.153871 	0.658294 	1.85722 	6.2339e-20
29.6668 	0.153871 	0.658294 	1.85722 	6.2339e-20
29.737 	0.153871 	0.658294 	1.85722 	6.2339e-20
29.8071 	0.153871 	0.658294 	1.85722 	6.2339e-20
29.8773 	0.153871 	0.658294 	1.85722 	6.2339e-20
29.9474 	0.153871 	0.658294 	1.85722 	6.2339e-20
30.0175 	0.153871 	0.658294 	1.85722 	6.2339e-20
30.0877 	0.153871 	0.658294 	1.85722 	6.2339e-20
30.1578 	0.153871 	0.658294 	1.85722 	6.2339e-20
30.2279 	0.153871 	0.658294 	1.85722 	6.2339e-20
30.2981 	0.153871 	0.658294 	1.85722 	6.2339e-20
30.3682 	0.153871 	0.658294 	1.85722 	6.2339e-20
30.4383 	0.153871 	0.658294 	1.85722 	6.2339e-20
30.5085 	0.153871 	0.658294 	1.85722 	6.2339e-20
30.5786 	0.140541 	0.644763 	1.83271 	3.72026e-21
30.6487 	0.140541 	0.644763 	1.83271 	3.72026e-21
30.7189 	0.140541 	0.644763 	1.83271 	3.72026e-21
30.789 	0.140541 	0.644763 	1.83271 	3.72026e-21
30.8591 	0.140541 	0.644763 	1.83271 	3.72026e-21
30.9293 	0.140541 	0.644763 	1.83271 	3.72026e-21
30.9994 	0.140541 	0.644763 	1.83271 	3.72026e-21
31.0695 	0.140541 	0.644763 	1.83271 	3.72026e-21
31.1397 	0.140541 	0.644763 	1.83271 	3.72026e-21
31.2098 	0.140541 	0.644763 	1.83271 	3.72026e-21
31.2799 	0.140541 	0.644763 	1.83271 	3.72026e-21
31.3501 	0.140541 	0.644763 	1.83271 	3.72026e-21
31.4202 	0.140541 	0.644763 	1.83271 	3.72026e-21
31.4903 	0.140541 	0.644763 	1.83271 	3.72026e-21
31.5605 	0.106767 	0.525819 	1.5762 	7.34242e-20
31.6306 	0.106767 	0.525819 	1.5762 	7.34242e-20
31.7007 	0.119416 	0.50672 	1.56575 	-4.47125e-20
31.7709 	0.119416 	0.50672 	1.56575 	-4.47125e-20
31.841 	0.119416 	0.50672 	1.56575 	-4.47125e-20
31.9111 	0.119416 	0.50672 	1.56575 	-4.47125e-20
31.9813 	0.119416 	0.50672 	1.56575 	-4.47125e-20
32.0514 	0.119416 	0.50672 	1.56575 	-4.47125e-20
32.1216 	0.119416 	0.50672 	1.56575 	-4.47125e-20
32.1917 	0.119416 	0.50672 	1.56575 	-4.47125e-20
32.2618 	0.119416 	0.50672 	1.56575 	-4.47125e-20
32.332 	0.119416 	0.50672 	1.56575 	-4.47125e-20
32.4021 	0.119416 	0.50672 	1.56575 	-4.47125e-20
32.4722 	0.119416 	0.50672 	1.56575 	-4.47125e-20
32.5424 	0.119416 	0.50672 	1.56575 	-4.47125e-20
32.6125 	0.119416 	0.50672 	1.56575 	-4.47125e-20
32.6826 	0.119416 	0.50672 	1.56575 	-4.47125e-20
32.7528 	0.119416 	0.50672 	1.56575 	-4.47125e-20
32.8229 	0.119416 	0.50672 	1.56575 	-4.47125e-20
32.893 	0.119416 	0.50672 	1.56575 	-4.47125e-20
32.9632 	0.153726 	0.478017 	1.54361 	-8.12734e-21
33.0333 	0.153726 	0.478017 	1.54361 	-8.12734e-21
33.1034 	0.153726 	0.478017 	1.54361 	-8.12734e-21
33.1736 	0.153726 	0.478017 	1.54361 	-8.12734e-21
33.2437 	0.153726 	0.478017 	1.54361 	-8.12734e-21
33.3138 	0.153726 	0.478017 	1.54361 	-8.12734e-21
33.384 	0.153726 	0.478017 	1.54361 	-8.12734e-21
33.4541 	0.153726 	0.478017 	1.54361 	-8.12734e-21
33.5242 	0.153726 	0.478017 	1.54361 	-8.12734e-21
33.5944 	0.153726 	0.478017 	1.54361 	-8.12734e-21
33.6645 	0.153726 	0.478017 	1.54361 	-8.12734e-21
33.7346 	0.153726 	0.478017 	1.54361 	-8.12734e-21
33.8048 	0.153726 	0.478017 	1.54361 	-8.12734e-21
33.8749 	0.153726 	0.478017 	1.54361 	-8.12734e-21
33.945 	0.153726 	0.478017 	1.54361 	-8.12734e-21
34.0152 	0.153726 	0.478017 	1.54361 	-8.12734e-21
34.0853 	0.153726 	0.478017 	1.54361 	-8.12734e-21
34.1554 	0.153726 	0.478017 	1.54361 	-8.12734e-21
34.2256 	0.204975 	0.427328 	1.51024 	2.16982e-20
34.2957 	0.204975 	0.427328 	1.51024 	2.16982e-20
34.3659 	0.204975 	0.427328 	1.51024 	2.16982e-20
34.436 	0.204975 	0.427328 	1.51024 	2.16982e-20
34.5061 	0.204975 	0.427328 	1.51024 	2.16982e-20
34.5763 	0.204975 	0.427328 	1.51024 	2.16982e-20
34.6464 	0.204975 	0.427328 	1.51024 	2.16982e-20
34.7165 	0.204975 	0.427328 	1.51024 	2.16982e-20
34.7867 	0.204975 	0.427328 	1.51024 	2.16982e-20
34.8568 	0.204975 	0.427328 	1.51024 	2.16982e-20
34.9269 	0.204975 	0.427328 	1.51024 	2.16982e-20
34.9971 	0.204975 	0.427328 	1.51024 	2.16982e-20
35.0672 	0.204975 	0.427328 	1.51024 	2.16982e-20
35.1373 	0.204975 	0.427328 	1.51024 	2.16982e-20
35.2075 	0.204975 	0.427328 	1.51024 	2.16982e-20
35.2776 	0.204975 	0.427328 	1.51024 	2.16982e-20
35.3477 	0.204975 	0.427328 	1.51024 	2.16982e-20
35.4179 	0.204975 	0.427328 	1.51024 	2.16982e-20
35.488 	0.204975 	0.427328 	1.51024 	2.16982e-20
35.5581 	0.204975 	0.427328 	1.51024 	2.16982e-20
35.6283 	0.25165 	0.351421 	1.47711 	3.83709e-21
35.6984 	0.25165 	0.351421 	1.47711 	3.83709e-21
35.7685 	0.25165 	0.351421 	1.47711 	3.83709e-21
35.8387 	0.25165 	0.351421 	1.47711 	3.83709e-21
35.9088 	0.25165 	0.351421 	1.47711 	3.83709e-21
35.9789 	0.25165 	0.351421 	1.47711 	3.83709e-21
36.0491 	0.25165 	0.351421 	1.47711 	3.83709e-21
36.1192 	0.25165 	0.351421 	1.47711 	3.83709e-21
36.1893 	0.25165 	0.351421 	1.47711 	3.83709e-21
36.2595 	0.25165 	0.351421 	1.47711 	3.83709e-21
36.3296 	0.25165 	0.351421 	1.47711 	3.83709e-21
36.3997 	0.25165 	0.351421 	1.47711 	3.83709e-21
36.4699 	0.25165 	0.351421 	1.47711 	3.83709e-21
36.54 	0.25165 	0.351421 	1.47711 	3.83709e-21
36.6102 	0.25165 	0.351421 	1.47711 	3.83709e-21
36.6803 	0.25165 	0.351421 	1.47711 	3.83709e-21
36.7504 	0.25165 	0.351421 	1.47711 	3.83709e-21
36.8206 	0.25165 	0.351421 	1.47711 	3.83709e-21
36.8907 	0.25165 	0.351421 	1.47711 	3.83709e-21
36.9608 	0.25165 	0.351421 	1.47711 	3.83709e-21
37.031 	0.25165 	0.351421 	1.47711 	3.83709e-21
37.1011 	0.272172 	0.276108 	1.46137 	0
37.1712 	0.272172 	0.276108 	1.46137 	0
37.2414 	0.272172 	0.276108 	1.46137 	0
37.3115 	0.272172 	0.276108 	1.46137 	0
37.3816 	0.272172 	0.276108 	1.46137 	0
37.4518 	0.272172 	0.276108 	1.46137 	0
37.5219 	0.272172 	0.276108 	1.46137 	0
37.592 	0.272172 	0.276108 	1.46137 	0
37.6622 	0.272172 	0.276108 	1.46137 	0
37.7323 	0.272172 	0.276108 	1.46137 	0
37.8024 	0.272172 	0.276108 	1.46137 	0
37.8726 	0.272172 	0.276108 	1.46137 	0
37.9427 	0.272172 	0.276108 	1.46137 	0
38.0128 	0.272172 	0.276108 	1.46137 	0
38.083 	0.272172 	0.276108 	1.46137 	0
38.1531 	0.272172 	0.276108 	1.46137 	0
38.2232 	0.272172 	0.276108 	1.46137 	0
38.2934 	0.270401 	0.20933 	1.46318 	0
38.3635 	0.270401 	0.20933 	1.46318 	0
38.4336 	0.270401 	0.20933 	1.46318 	0
38.5038 	0.270401 	0.20933 	1.46318 	0
38.5739 	0.270401 	0.20933 	1.46318 	0
38.644 	0.270401 	0.20933 	1.46318 	0
38.7142 	0.270401 	0.20933 	1.46318 	0
38.7843 	0.270401 	0.20933 	1.46318 	0
38.8545 	0.270401 	0.20933 	1.46318 	0
38.9246 	0.270401 	0.20933 	1.46318 	0
38.9947 	0.270401 	0.20933 	1.46318 	0
39.0649 	0.270401 	0.20933 	1.46318 	0
39.135 	0.270401 	0.20933 	1.46318 	0
39.2051 	0.270401 	0.20933 	1.46318 	0
39.2753 	0.270401 	0.20933 	1.46318 	0
39.3454 	0.270401 	0.20933 	1.46318 	0
39.4155 	0.270401 	0.20933 	1.46318 	0
39.4857 	0.270401 	0.20933 	1.46318 	0
39.5558 	0.258315 	0.151484 	1.47077 	0
39.6259 	0.258315 	0.151484 	1.47077 	0
39.6961 	0.258315 	0.151484 	1.47077 	0
39.7662 	0.258315 	0.151484 	1.47077 	0
39.8363 	0.258315 	0.151484 	1.47077 	0
39.9065 	0.258315 	0.151484 	1.47077 	0
39.9766 	0.258315 	0.151484 	1.47077 	0
40.0467 	0.258315 	0.151484 	1.47077 	0
40.1169 	0.258315 	0.151484 	1.47077 	0
40.187 	0.258315 	0.151484 	1.47077 	0
40.2571 	0.258315 	0.151484 	1.47077 	0
40.3273 	0.258315 	0.151484 	1.47077 	0
40.3974 	0.258315 	0.151484 	1.47077 	0
40.4675 	0.258315 	0.151484 	1.47077 	0
40.5377 	0.258315 	0.151484 	1.47077 	0
40.6078 	0.258315 	0.151484 	1.47077 	0
40.6779 	0.258315 	0.151484 	1.47077 	0
40.7481 	0.246915 	0.104682 	1.47506 	0
40.8182 	0.246915 	0.104682 	1.47506 	0
40.8883 	0.246915 	0.104682 	1.47506 	0
40.9585 	0.246915 	0.104682 	1.47506 	0
41.0286 	0.246915 	0.104682 	1.47506 	0
41.0988 	0.246915 	0.104682 	1.47506 	0
41.1689 	0.246915 	0.104682 	1.47506 	0
41.239 	0.246915 	0.104682 	1.47506 	0
41.3092 	0.246915 	0.104682 	1.47506 	0
41.3793 	0.246915 	0.104682 	1.47506 	0
41.4494 	0.246915 	0.104682 	1.47506 	0
41.5196 	0.246915 	0.104682 	1.47506 	0
41.5897 	0.246915 	0.104682 	1.47506 	0
41.6598 	0.246915 	0.104682 	1.47506 	0
41.73 	0.246915 	0.104682 	1.47506 	0
41.8001 	0.246915 	0.104682 	1.47506 	0
41.8702 	0.246915 	0.104682 	1.47506 	0
41.9404 	0.246915 	0.104682 	1.47506 	0
42.0105 	0.242312 	0.0637898 	1.47559 	0
42.0806 	0.242312 	0.0637898 	1.47559 	0
42.1508 	0.242312 	0.0637898 	1.47559 	0
42.2209 	0.242312 	0.0637898 	1.47559 	0
42.291 	0.242312 	0.0637898 	1.47559 	0
42.3612 	0.242312 	0.0637898 	1.47559 	0
42.4313 	0.242312 	0.0637898 	1.47559 	0
42.5014 	0.242312 	0.0637898 	1.47559 	0
42.5716 	0.242312 	0.0637898 	1.47559 	0
42.6417 	0.242312 	0.0637898 	1.47559 	0
42.7118 	0.242312 	0.0637898 	1.47559 	0
42.782 	0.242312 	0.0637898 	1.47559 	0
42.8521 	0.242312 	0.0637898 	1.47559 	0
42.9222 	0.242312 	0.0637898 	1.47559 	0
42.9924 	0.242312 	0.0637898 	1.47559 	0
43.0625 	0.242312 	0.0637898 	1.47559 	0
43.1327 	0.242312 	0.0637898 	1.47559 	0
43.2028 	0.245929 	0.0289826 	1.46987 	0
43.2729 	0.245929 	0.0289826 	1.46987 	0
43.3431 	0.245929 	0.0289826 	1.46987 	0
43.4132 	0.245929 	0.0289826 	1.46987 	0
43.4833 	0.245929 	0.0289826 	1.46987 	0
43.5535 	0.245929 	0.0289826 	1.46987 	0
43.6236 	0.245929 	0.0289826 	1.46987 	0
43.6937 	0.245929 	0.0289826 	1.46987 	0
43.7639 	0.245929 	0.0289826 	1.46987 	0
43.834 	0.245929 	0.0289826 	1.46987 	0
43.9041 	0.245929 	0.0289826 	1.46987 	0
43.9743 	0.245929 	0.0289826 	1.46987 	0
44.0444 	0.245929 	0.0289826 	1.46987 	0
44.1145 	0.245929 	0.0289826 	1.46987 	0
44.1847 	0.245929 	0.0289826 	1.46987 	0
44.2548 	0.245929 	0.0289826 	1.46987 	0
44.3249 	0.245929 	0.0289826 	1.46987 	0
44.3951 	0.245929 	0.0289826 	1.46987 	0
44.4652 	0.254054 	0.0042689 	1.45999 	0
44.5353 	0.254054 	0.0042689 	1.45999 	0
44.6055 	0.254054 	0.0042689 	1.45999 	0
44.6756 	0.254054 	0.0042689 	1.45999 	0
44.7457 	0.254054 	0.0042689 	1.45999 	0
44.8159 	0.254054 	0.0042689 	1.45999 	0
44.886 	0.254054 	0.0042689 	1.45999 	0
44.9561 	0.254054 	0.0042689 	1.45999 	0
45.0263 	0.254054 	0.0042689 	1.45999 	0
45.0964 	0.254054 	0.0042689 	1.45999 	0
45.1665 	0.254054 	0.0042689 	1.45999 	0
45.2367 	0.254054 	0.0042689 	1.45999 	0
45.3068 	0.254054 	0.0042689 	1.45999 	0