/*--------------------------------*- C++ -*----------------------------------*\
| =========                 |                                                 |
| \\      /  F ield         | OpenFOAM: The Open Source CFD Toolbox           |
|  \\    /   O peration     | Version:  2306                                  |
|   \\  /    A nd           | Website:  www.openfoam.com                      |
|    \\/     M anipulation  |                                                 |
\*---------------------------------------------------------------------------*/
FoamFile
{
    version     2.0;
    format      ascii;
    arch        "LSB;label=32;scalar=64";
    class       volScalarField;
    location    "50";
    object      p;
}
// * * * * * * * * * * * * * * * * * * * * * * * * * * * * * * * * * * * * * //

dimensions      [0 2 -2 0 0 0 0];

internalField   nonuniform List<scalar> 
8800
(
0.879253
0.831201
0.792822
0.764178
0.743549
0.728788
0.718176
0.71066
0.705807
0.703725
0.704989
0.709189
0.715857
0.725194
0.737949
0.755537
0.779981
0.813594
0.85604
0.913166
0.711787
0.718992
0.727429
0.730842
0.728923
0.723393
0.716673
0.710498
0.705726
0.702852
0.702557
0.705065
0.709575
0.715572
0.722482
0.729102
0.733235
0.732722
0.726659
0.717682
0.6885
0.694675
0.698872
0.702228
0.704723
0.705512
0.704392
0.702231
0.700177
0.699247
0.700199
0.70259
0.70542
0.707636
0.708168
0.706638
0.70379
0.700153
0.695619
0.691834
0.683373
0.686073
0.68879
0.691095
0.692734
0.69405
0.694945
0.695132
0.694848
0.694789
0.695525
0.696673
0.697457
0.697392
0.696594
0.695398
0.693648
0.691147
0.688722
0.687191
0.67819
0.679612
0.681407
0.683455
0.685199
0.686494
0.687505
0.688359
0.689013
0.689584
0.69021
0.690651
0.690672
0.690314
0.689614
0.688407
0.686707
0.684826
0.683503
0.68268
0.673195
0.674108
0.67534
0.676914
0.678557
0.680069
0.681324
0.682379
0.683349
0.68424
0.684901
0.685185
0.685109
0.684664
0.683786
0.682564
0.681207
0.679937
0.679114
0.67857
0.668343
0.669008
0.669961
0.671252
0.672656
0.674115
0.675543
0.676841
0.678016
0.6791
0.679892
0.680232
0.68013
0.679602
0.678768
0.677795
0.676771
0.675841
0.675254
0.674854
0.66361
0.664122
0.664898
0.666015
0.667279
0.668642
0.670077
0.67153
0.672929
0.674229
0.6752
0.675639
0.675581
0.675161
0.674528
0.673783
0.672995
0.672301
0.671865
0.671553
0.658932
0.65934
0.659988
0.660981
0.662172
0.663481
0.664906
0.666439
0.66803
0.669586
0.670784
0.671393
0.671509
0.671298
0.670882
0.67034
0.669748
0.669241
0.668915
0.668662
0.654229
0.654561
0.65512
0.656034
0.657173
0.658464
0.659918
0.66154
0.663307
0.665138
0.666633
0.667514
0.66789
0.667917
0.667718
0.667387
0.66698
0.666627
0.666384
0.666172
0.649416
0.649691
0.650189
0.651055
0.652175
0.653487
0.655008
0.656759
0.658739
0.660884
0.662755
0.663992
0.66468
0.664977
0.665012
0.664889
0.664664
0.664446
0.664269
0.664087
0.644408
0.644639
0.645098
0.645947
0.647087
0.648462
0.650092
0.652024
0.65428
0.656815
0.659149
0.660814
0.661865
0.66247
0.662763
0.662857
0.662809
0.662712
0.66259
0.662429
0.639119
0.639315
0.639755
0.640616
0.641816
0.643299
0.645093
0.647276
0.64989
0.652918
0.655813
0.657985
0.659455
0.660407
0.660988
0.661303
0.661447
0.661464
0.661388
0.661242
0.633453
0.633621
0.634058
0.634961
0.636263
0.637905
0.639931
0.642443
0.645514
0.64916
0.652737
0.65551
0.657472
0.65882
0.659726
0.66031
0.660638
0.660761
0.660723
0.660588
0.627299
0.627443
0.627892
0.628867
0.630318
0.632178
0.63451
0.637443
0.64109
0.645496
0.649901
0.653397
0.655944
0.657757
0.659031
0.659902
0.66044
0.660675
0.660674
0.660544
0.620527
0.620646
0.621122
0.6222
0.62385
0.625997
0.62872
0.632187
0.63655
0.641888
0.647299
0.651665
0.65491
0.657275
0.658979
0.660177
0.66095
0.6613
0.661334
0.661207
0.612969
0.613064
0.613581
0.614797
0.616704
0.619216
0.622442
0.626588
0.631844
0.638324
0.644953
0.650363
0.654432
0.657442
0.659663
0.661244
0.662276
0.662748
0.662814
0.662686
0.6044
0.604499
0.605068
0.606439
0.608675
0.61166
0.615532
0.620536
0.626914
0.634804
0.642901
0.649544
0.654582
0.65835
0.661182
0.66321
0.664537
0.665138
0.665237
0.665105
0.594528
0.594607
0.595265
0.596858
0.59952
0.603117
0.607803
0.613885
0.621653
0.631267
0.641133
0.649246
0.655434
0.660103
0.663642
0.666198
0.667861
0.668603
0.668733
0.668593
0.58299
0.583052
0.583807
0.585713
0.588924
0.593301
0.59903
0.606479
0.615982
0.627707
0.639697
0.649545
0.65708
0.662807
0.667168
0.670345
0.672384
0.673276
0.673435
0.673283
0.569255
0.569304
0.570204
0.572517
0.576453
0.58186
0.588952
0.598164
0.609855
0.624159
0.638677
0.650551
0.659636
0.666584
0.671903
0.675787
0.678238
0.679283
0.679464
0.679297
0.552563
0.552602
0.553714
0.556606
0.561536
0.568338
0.577252
0.588768
0.603232
0.620686
0.638162
0.652359
0.663213
0.67155
0.677954
0.682635
0.685527
0.686719
0.686914
0.686729
0.531796
0.531832
0.533281
0.537035
0.543394
0.552159
0.563567
0.578118
0.596059
0.61729
0.638214
0.655049
0.667898
0.677797
0.685401
0.690971
0.694313
0.695632
0.695827
0.695619
0.505218
0.505272
0.507302
0.512452
0.52102
0.532681
0.547615
0.566225
0.588557
0.614288
0.639099
0.658805
0.673806
0.685407
0.694324
0.700822
0.704584
0.705986
0.706159
0.705927
0.469805
0.469962
0.473188
0.480923
0.493241
0.509334
0.529302
0.553235
0.580924
0.611835
0.640942
0.663739
0.681011
0.694391
0.704716
0.71212
0.71621
0.717618
0.717738
0.71748
0.419809
0.420781
0.427222
0.440275
0.459111
0.482055
0.508956
0.539613
0.573619
0.610311
0.643971
0.669947
0.689525
0.704709
0.716439
0.724639
0.728895
0.730202
0.730239
0.729956
0.346517
0.353747
0.368622
0.391553
0.420129
0.452249
0.487632
0.526046
0.567092
0.610094
0.648686
0.678125
0.700252
0.717463
0.730689
0.73964
0.744012
0.745224
0.745211
0.744962
0.267824
0.284481
0.308598
0.342164
0.380938
0.422391
0.466344
0.51274
0.561273
0.611347
0.655902
0.689777
0.715216
0.734956
0.75008
0.759785
0.764073
0.765096
0.765114
0.764974
0.201631
0.221441
0.253326
0.295932
0.343737
0.393996
0.44629
0.50054
0.556428
0.613374
0.663615
0.701627
0.730126
0.75214
0.768678
0.778756
0.782884
0.783849
0.783956
0.783885
0.147373
0.169047
0.2064
0.255439
0.310339
0.368017
0.427704
0.489172
0.551981
0.615474
0.671108
0.712994
0.744261
0.768255
0.786073
0.796776
0.801349
0.802375
0.802474
0.802446
0.102236
0.125153
0.16629
0.22043
0.281025
0.344821
0.410835
0.478712
0.547856
0.617471
0.678191
0.723712
0.757586
0.783488
0.802648
0.814253
0.819213
0.820273
0.820422
0.820429
0.0637978
0.0874398
0.131438
0.189643
0.255034
0.324043
0.395542
0.469104
0.543999
0.619278
0.684753
0.73368
0.769991
0.797734
0.818105
0.830544
0.835951
0.837185
0.837375
0.8374
0.03006
0.0541957
0.100491
0.162021
0.231473
0.305014
0.38138
0.460059
0.540216
0.620754
0.690679
0.742777
0.781332
0.810632
0.832066
0.845199
0.851004
0.85252
0.852784
0.852826
-0.000442757
0.0241251
0.0723042
0.136678
0.209629
0.287141
0.367873
0.451221
0.536253
0.621731
0.695859
0.750925
0.791503
0.822154
0.844487
0.858144
0.864275
0.866028
0.866331
0.866361
-0.0286545
-0.00368817
0.0461367
0.112922
0.18896
0.26999
0.35465
0.442274
0.531865
0.622041
0.700214
0.758109
0.800558
0.832463
0.855499
0.869509
0.875897
0.877803
0.878114
0.878124
-0.0553459
-0.0299429
0.0214183
0.0902718
0.169064
0.253231
0.341439
0.432998
0.526868
0.621561
0.703697
0.764364
0.808619
0.841673
0.865236
0.879483
0.88599
0.887984
0.888277
0.888257
-0.080872
-0.0550155
-0.00251779
0.0684269
0.149658
0.236638
0.328062
0.423245
0.521142
0.620205
0.706272
0.769737
0.815808
0.849919
0.873933
0.888257
0.89482
0.896861
0.89713
0.897079
-0.105634
-0.079178
-0.025643
0.0471539
0.130554
0.220059
0.314405
0.412923
0.514601
0.617892
0.707913
0.774282
0.822251
0.857421
0.881797
0.896166
0.90272
0.904711
0.904988
0.904919
-0.129757
-0.102856
-0.0481117
0.0263035
0.111644
0.203417
0.300404
0.401983
0.507197
0.614578
0.708602
0.77805
0.828068
0.864319
0.889022
0.90339
0.909881
0.9118
0.912007
0.911898
-0.153362
-0.125887
-0.0700804
0.0057987
0.0928856
0.186686
0.286046
0.390411
0.498912
0.610223
0.708304
0.781065
0.833335
0.870742
0.895759
0.910062
0.91637
0.91815
0.918281
0.918131
-0.176538
-0.148448
-0.091619
-0.0143836
0.0742613
0.169873
0.271355
0.378235
0.489756
0.604803
0.706975
0.783306
0.838115
0.876827
0.90215
0.916263
0.92226
0.923819
0.923865
0.923689
-0.199299
-0.170513
-0.112719
-0.0342347
0.0558096
0.153013
0.256381
0.365503
0.479764
0.598306
0.704563
0.784718
0.842423
0.882721
0.908398
0.922136
0.927616
0.92887
0.928827
0.928636
-0.221481
-0.192038
-0.133316
-0.0537211
0.0375681
0.136176
0.24119
0.352296
0.469
0.590765
0.701009
0.785201
0.846211
0.888565
0.914798
0.927941
0.932553
0.93334
0.933198
0.933008
-0.24305
-0.212989
-0.153392
-0.0727867
0.0195972
0.119423
0.225876
0.338694
0.457547
0.582213
0.69627
0.784624
0.849368
0.894413
0.921718
0.934183
0.937391
0.937315
0.937006
0.936861
-0.264075
-0.233319
-0.172918
-0.0913952
0.00196238
0.102842
0.210528
0.324803
0.445502
0.572721
0.690301
0.782846
0.851692
0.900135
0.929456
0.941726
0.943083
0.941232
0.940347
0.940427
-0.284376
-0.253011
-0.19183
-0.109481
-0.0152758
0.0865185
0.195245
0.310736
0.432982
0.562389
0.683093
0.77971
0.85291
0.905342
0.937887
0.951511
0.951705
0.947237
0.944152
0.943465
-0.304043
-0.272061
-0.210141
-0.127072
-0.0321502
0.0704086
0.179971
0.296433
0.419917
0.551145
0.674506
0.774945
0.852713
0.909462
0.946223
0.963632
0.965486
0.959655
0.95035
0.94096
-0.323
-0.290451
-0.227978
-0.144364
-0.0489536
0.0541758
0.164288
0.281407
0.405764
0.538345
0.66388
0.767748
0.850512
0.911669
0.952514
0.975378
0.979953
0.969247
0.949353
0.942494
-0.341066
-0.308188
-0.245159
-0.161151
-0.0653818
0.0381498
0.148417
0.265988
0.390834
0.524254
0.651318
0.757642
0.845616
0.91085
0.95233
0.975091
0.983028
0.959359
0.893354
0.864282
-0.357768
-0.326511
-0.261295
-0.176882
-0.0806537
0.022852
0.132664
0.25043
0.375377
0.509026
0.636818
0.744304
0.836891
0.90636
0.941177
0.957749
0.949705
0.896947
0.828871
0.787608
-0.408503
-0.343641
-0.276045
-0.192426
-0.0960712
0.00701374
0.117055
0.234511
0.359083
0.492249
0.61984
0.727275
0.820618
0.896484
0.909943
0.908943
0.863172
0.795685
0.72031
0.678714
-0.37528
-0.358207
-0.298124
-0.214089
-0.119101
-0.0161802
0.0929864
0.209766
0.333316
0.464947
0.590453
0.695844
0.780294
0.861084
0.851126
0.741804
0.641448
0.570728
0.49936
0.531875
-0.407299
-0.376706
-0.315262
-0.23203
-0.136936
-0.0342148
0.0751625
0.191309
0.313819
0.443693
0.566416
0.667779
0.743401
0.786618
0.74073
0.596185
0.473686
0.385678
0.290043
0.341011
-0.431648
-0.398625
-0.335372
-0.25195
-0.156792
-0.0541276
0.0551784
0.170521
0.291668
0.419185
0.538167
0.633498
0.699941
0.708272
0.605228
0.438776
0.292707
0.17838
0.0527305
0.0883099
-0.455553
-0.421112
-0.356513
-0.27223
-0.176919
-0.0743598
0.0344766
0.148887
0.268478
0.393254
0.507611
0.595673
0.646629
0.624362
0.46933
0.279827
0.09887
-0.0617474
-0.243535
-0.252613
-0.478975
-0.444051
-0.378509
-0.293473
-0.197933
-0.0955407
0.0127
0.126061
0.24385
0.365523
0.474579
0.555318
0.587291
0.529237
0.340243
0.134805
-0.0718859
-0.247022
-0.490404
-0.751231
-0.50275
-0.467767
-0.401666
-0.316103
-0.220312
-0.118023
-0.0103018
0.101991
0.217889
0.336232
0.439701
0.512167
0.52366
0.415251
0.227255
0.0197023
-0.180399
-0.341534
-0.416894
-0.523274
-0.527849
-0.492742
-0.426326
-0.340468
-0.244566
-0.142467
-0.0353483
0.0757177
0.189416
0.303928
0.401415
0.463119
0.450327
0.307814
0.125948
-0.0650405
-0.229174
-0.318458
-0.341088
-0.357294
-0.554551
-0.519296
-0.452662
-0.366665
-0.270834
-0.169086
-0.0628013
0.0467486
0.157838
0.267874
0.358912
0.406634
0.376219
0.20759
0.0337338
-0.1326
-0.257746
-0.295325
-0.307183
-0.308381
-0.583077
-0.5476
-0.480733
-0.394691
-0.299066
-0.197885
-0.0926796
0.0150336
0.123088
0.228048
0.311772
0.345024
0.293985
0.115255
-0.0497169
-0.19701
-0.270923
-0.288274
-0.289239
-0.289011
-0.613492
-0.577713
-0.510563
-0.424546
-0.329277
-0.228856
-0.12499
-0.0194446
0.085174
0.184508
0.259934
0.281035
0.195084
0.0307554
-0.125992
-0.245404
-0.2819
-0.279206
-0.27844
-0.277834
-0.645506
-0.609481
-0.542054
-0.456144
-0.361381
-0.261945
-0.159701
-0.0566625
0.0441351
0.137348
0.204255
0.208463
0.104437
-0.0480942
-0.186099
-0.258272
-0.268851
-0.271709
-0.272169
-0.271791
-0.678569
-0.642411
-0.574966
-0.489259
-0.395192
-0.296995
-0.196662
-0.0964932
0.000158693
0.0869029
0.145198
0.134189
0.0210414
-0.115653
-0.227251
-0.265388
-0.268577
-0.268817
-0.268576
-0.26827
-0.71221
-0.675937
-0.608851
-0.523491
-0.430369
-0.333686
-0.235591
-0.138653
-0.0464828
0.0339089
0.0816379
0.0621128
-0.0577314
-0.171479
-0.255093
-0.263891
-0.264376
-0.265079
-0.265394
-0.265359
-0.745555
-0.709382
-0.642775
-0.558262
-0.466366
-0.371543
-0.276036
-0.182656
-0.0953555
-0.0209257
0.0165835
-0.00589306
-0.130879
-0.219644
-0.257195
-0.271238
-0.268062
-0.264836
-0.263702
-0.263475
-0.777
-0.741624
-0.675806
-0.59262
-0.502413
-0.409866
-0.317344
-0.227796
-0.145677
-0.0769807
-0.0435372
-0.079751
-0.197152
-0.281112
-0.273708
-0.279802
-0.274496
-0.267923
-0.264702
-0.263295
-0.804953
-0.770667
-0.706859
-0.625378
-0.537462
-0.447716
-0.358645
-0.273205
-0.196254
-0.133367
-0.101042
-0.146113
-0.252961
-0.356137
-0.360002
-0.323672
-0.291035
-0.275139
-0.269193
-0.266953
-0.827295
-0.794767
-0.733782
-0.655141
-0.570236
-0.483928
-0.398846
-0.317855
-0.245826
-0.188628
-0.158307
-0.194664
-0.276145
-0.414188
-0.45714
-0.366664
-0.316788
-0.295808
-0.288272
-0.284379
-0.841805
-0.812009
-0.754694
-0.680012
-0.599201
-0.517184
-0.436701
-0.360557
-0.293272
-0.240923
-0.209731
-0.224751
-0.227481
-0.29813
-0.30762
-0.337435
-0.357702
-0.358871
-0.35114
-0.348997
-0.845782
-0.820051
-0.767665
-0.698116
-0.622617
-0.546053
-0.470879
-0.400084
-0.337515
-0.289657
-0.251377
-0.238997
-0.135519
-0.0273976
-0.146137
-0.281517
-0.355646
-0.373418
-0.378336
-0.380261
-0.83715
-0.816319
-0.770474
-0.70783
-0.638976
-0.568924
-0.500019
-0.435076
-0.37796
-0.335404
-0.286963
-0.287642
-0.181314
0.0249392
-0.162356
-0.343931
-0.41968
-0.434364
-0.43805
-0.44092
-0.813544
-0.797827
-0.761261
-0.707881
-0.647217
-0.584669
-0.522691
-0.464021
-0.413391
-0.376054
-0.342552
-0.434958
-0.629961
-0.825946
-0.806024
-0.660226
-0.581614
-0.561631
-0.559768
-0.560466
-0.777444
-0.767253
-0.740641
-0.69829
-0.647124
-0.592791
-0.537883
-0.485264
-0.44056
-0.412014
-0.412041
-0.595247
-0.916214
-1.182
-1.07506
-0.791555
-0.708274
-0.671409
-0.654876
-0.648079
-0.73527
-0.729502
-0.713227
-0.681668
-0.640349
-0.593719
-0.545041
-0.497416
-0.455328
-0.430692
-0.423859
-0.519268
-0.528772
-0.468564
-0.36882
-0.464068
-0.561704
-0.601912
-0.576187
-0.579932
-0.696365
-0.693006
-0.68496
-0.663215
-0.629659
-0.589084
-0.545063
-0.499111
-0.456428
-0.422771
-0.420835
-0.426377
-0.510254
-0.705917
-0.995249
-1.20122
-1.22882
-1.08092
-0.916619
-0.835436
-0.667576
-0.665555
-0.661555
-0.647286
-0.619568
-0.582177
-0.539602
-0.493037
-0.444392
-0.403184
-0.390958
-0.414265
-0.427783
-0.477398
-0.493843
-0.513876
-0.507898
-0.455973
-0.379647
-0.339862
-0.644793
-0.644052
-0.642881
-0.635375
-0.612676
-0.576563
-0.532041
-0.481054
-0.426469
-0.370099
-0.325001
-0.286493
-0.173528
-0.00143437
0.133443
0.231598
0.343681
0.438989
0.510383
0.539952
-0.630533
-0.630128
-0.629636
-0.626347
-0.608756
-0.572549
-0.52351
-0.466202
-0.400431
-0.323078
-0.24302
-0.126983
0.0636327
0.356721
0.648484
0.905367
1.10036
1.23639
1.31838
1.34868
-0.621204
-0.621029
-0.620656
-0.619956
-0.607012
-0.570585
-0.517062
-0.450942
-0.371508
-0.278407
-0.172051
-0.0465438
0.235125
0.597316
0.968842
1.31646
1.58556
1.75652
1.84323
1.87188
-0.614533
-0.6144
-0.613729
-0.613094
-0.604859
-0.572073
-0.515176
-0.440463
-0.35008
-0.246674
-0.131914
-0.031598
0.219599
0.586069
0.995134
1.36846
1.65578
1.8302
1.91194
1.93561
-0.615487
-0.61336
-0.607367
-0.602677
-0.603445
-0.580782
-0.520452
-0.436784
-0.337627
-0.228635
-0.113926
0.00125744
0.168634
0.519012
0.873751
1.18743
1.43047
1.57711
1.64361
1.6621
-0.645229
-0.640851
-0.632901
-0.630411
-0.63469
-0.610519
-0.534791
-0.436049
-0.328397
-0.214139
-0.102646
0.0103598
0.146445
0.404276
0.693082
0.931275
1.11576
1.22485
1.27285
1.28479
-0.713628
-0.71517
-0.726774
-0.735745
-0.73035
-0.669378
-0.553781
-0.431806
-0.316376
-0.201852
-0.0972907
0.00159839
0.0979108
0.265249
0.484215
0.665169
0.805661
0.88579
0.91983
0.927015
-0.766963
-0.781369
-0.807422
-0.820261
-0.797622
-0.696732
-0.548908
-0.413345
-0.296779
-0.190136
-0.098928
-0.0188932
0.0466568
0.166065
0.323315
0.451855
0.549903
0.60478
0.626277
0.630829
-0.686715
-0.702826
-0.726541
-0.737674
-0.709375
-0.611501
-0.483465
-0.365364
-0.263776
-0.173977
-0.099528
-0.0381535
0.0118689
0.0859312
0.195308
0.285617
0.3531
0.388352
0.402735
0.403261
-0.454557
-0.466174
-0.483476
-0.494037
-0.478915
-0.423362
-0.353899
-0.282498
-0.214287
-0.148669
-0.0925045
-0.0486107
-0.0120686
0.0354086
0.10278
0.161765
0.203803
0.22724
0.235311
0.235428
-0.188206
-0.193526
-0.204051
-0.218192
-0.226094
-0.224486
-0.210963
-0.186998
-0.155632
-0.118122
-0.083265
-0.056989
-0.0342582
-0.001784
0.0414885
0.0778695
0.102277
0.114006
0.117709
0.116874
-0.000189013
-0.00266332
-0.010991
-0.0287996
-0.055688
-0.0817158
-0.0992808
-0.106242
-0.102108
-0.0885838
-0.0732118
-0.0609479
-0.0506616
-0.032815
-0.0067769
0.0166422
0.0311416
0.0370413
0.0385635
0.0376327
0.0907817
0.0890578
0.081796
0.0639698
0.0348184
0.00163808
-0.0277669
-0.0487395
-0.0595873
-0.06146
-0.0601386
-0.0610792
-0.0612975
-0.0477184
-0.0307528
-0.0189324
-0.0131886
-0.0114914
-0.0115513
-0.0124204
0.118899
0.117553
0.111766
0.0972251
0.0728038
0.0434528
0.0145438
-0.0100045
-0.0277693
-0.0390706
-0.0478041
-0.0576046
-0.0642079
-0.0547391
-0.0423295
-0.0368483
-0.0353542
-0.0366576
-0.0376922
-0.038434
0.117435
0.116454
0.112299
0.10179
0.083794
0.0609791
0.0365993
0.0138502
-0.00513437
-0.0199964
-0.0330015
-0.0466818
-0.0563215
-0.0487313
-0.0419668
-0.0399911
-0.0414636
-0.0435598
-0.0446563
-0.0452321
0.105225
0.104583
0.10181
0.0946839
0.0821707
0.0655766
0.0467785
0.0281278
0.0113421
-0.00274183
-0.0151039
-0.0272768
-0.0343294
-0.0280309
-0.0260761
-0.0279417
-0.0319439
-0.0351411
-0.0364928
-0.036974
0.0905032
0.0901269
0.0883837
0.0837766
0.0754367
0.0639526
0.0503823
0.0362932
0.023162
0.012313
0.00455034
-0.00182776
-0.00400709
-0.00022638
-0.00194225
-0.0067716
-0.0119875
-0.0152462
-0.0164874
-0.0169421
0.0762275
0.0760467
0.075031
0.0722032
0.0668731
0.0592756
0.050046
0.0403368
0.0314715
0.0252255
0.0238179
0.0262722
0.0315682
0.0327632
0.0266865
0.0197633
0.0143035
0.0115403
0.0105085
0.0100051
0.0632506
0.0631664
0.0626419
0.0610462
0.0578812
0.0532031
0.0474213
0.0413989
0.0364392
0.0349232
0.0401271
0.0513814
0.0635129
0.062546
0.053165
0.0454244
0.0409551
0.0391944
0.0383729
0.0376995
0.0515661
0.0515483
0.0513367
0.0505816
0.0489297
0.0463537
0.0431459
0.0400209
0.0381987
0.0403229
0.0499938
0.0661887
0.0810192
0.0782778
0.069198
0.0634438
0.0613469
0.0603114
0.0598392
0.0590867
0.0409846
0.041004
0.0409776
0.0407757
0.0401734
0.0390693
0.0376694
0.0365436
0.0368322
0.0410228
0.0522814
0.0691758
0.0827902
0.0794006
0.073539
0.0709827
0.0708581
0.0717348
0.0711105
0.0701971
0.0314347
0.0314568
0.0315247
0.0316562
0.0316909
0.0315204
0.0312623
0.0313495
0.0327017
0.0373052
0.0474913
0.0611441
0.0705808
0.0669083
0.0646623
0.0656556
0.0683044
0.0696685
0.0693793
0.068586
0.0228097
0.0228231
0.0229244
0.0231891
0.0235507
0.0238738
0.0242046
0.0248303
0.0264212
0.0302337
0.0372536
0.0456323
0.050204
0.0476236
0.048763
0.0531481
0.0571681
0.0589631
0.0587393
0.0579975
0.0150328
0.0150247
0.0151062
0.0153762
0.0158069
0.0162938
0.0168034
0.0175174
0.0187882
0.0212284
0.0245597
0.0262716
0.024242
0.0232678
0.0285498
0.0354258
0.0403428
0.0419347
0.0417185
0.0410858
0.007973
0.00795418
0.00799173
0.00818202
0.00850658
0.00888733
0.00929821
0.00981423
0.0105542
0.0115159
0.0120815
0.00895198
0.00333955
0.00350729
0.0106696
0.0169646
0.0212249
0.0226316
0.0222618
0.021716
0.00160271
0.00158917
0.00157924
0.00156224
0.00161525
0.0017518
0.00187494
0.0020018
0.00209871
0.00228805
0.00217148
0.00099173
-0.000251368
-0.00110778
0.00054228
0.00257294
0.00121376
0.000386542
0.00144902
0.00235612
-0.0561951
0.13116
0.331361
0.499543
0.63392
0.740037
0.828361
0.902608
0.932991
0.916782
0.268544
0.391619
0.520474
0.631795
0.725605
0.803402
0.866043
0.909935
0.932711
0.945564
0.487869
0.571345
0.659012
0.737009
0.803949
0.859884
0.904192
0.936818
0.960785
0.978675
0.647518
0.70687
0.76833
0.825308
0.874679
0.916514
0.950898
0.978686
1.00127
1.01954
0.772601
0.815138
0.862162
0.905321
0.943856
0.977513
1.00636
1.03068
1.05052
1.06847
0.876338
0.909377
0.947824
0.983218
1.01568
1.04488
1.07048
1.09219
1.10925
1.12685
0.968833
0.997701
1.03172
1.06389
1.09379
1.12096
1.1448
1.16465
1.17927
1.19672
1.05737
1.08679
1.12073
1.15287
1.18246
1.20906
1.23198
1.25042
1.26307
1.28053
1.15267
1.18624
1.22264
1.25633
1.28636
1.31249
1.33439
1.35147
1.36291
1.38071
1.26753
1.30608
1.34429
1.37848
1.40772
1.43237
1.45265
1.46834
1.47966
1.498
1.41222
1.45169
1.48723
1.51762
1.54317
1.56521
1.58421
1.59972
1.61236
1.63049
1.58693
1.61898
1.64475
1.66708
1.68712
1.70585
1.72347
1.74002
1.75575
1.77395
1.77452
1.79208
1.8076
1.82418
1.84033
1.85487
1.86789
1.88186
1.89894
1.91862
1.9561
1.96707
1.97921
1.99
1.99925
2.00881
2.01968
2.03127
2.04122
2.05639
2.16712
2.16913
2.15397
2.13874
2.13236
2.13802
2.15662
2.18704
2.21917
2.24992
2.47303
2.33598
2.25968
2.21758
2.20014
2.20417
2.23152
2.28767
2.39112
2.60641
0.775545
0.772169
0.766242
0.756434
0.743489
0.731064
0.720748
0.712798
0.707138
0.703849
0.703471
0.706203
0.711318
0.718566
0.728003
0.73969
0.752821
0.764811
0.772267
0.776987
0.69356
0.699446
0.706348
0.711585
0.714429
0.714097
0.711188
0.70726
0.703687
0.701389
0.701217
0.703407
0.707088
0.711439
0.715383
0.717382
0.716267
0.712175
0.706281
0.699237
0.685906
0.688253
0.691601
0.694505
0.696718
0.698513
0.699466
0.699203
0.698162
0.697252
0.697403
0.698812
0.700617
0.701888
0.701927
0.70075
0.698939
0.696593
0.693436
0.690472
0.680766
0.681853
0.683716
0.686093
0.688048
0.689433
0.69052
0.691368
0.691824
0.692053
0.692522
0.693287
0.693815
0.693771
0.693239
0.692358
0.690948
0.688887
0.686772
0.685357
0.675674
0.676329
0.677435
0.679151
0.680949
0.682557
0.683812
0.684825
0.685729
0.686529
0.687235
0.687731
0.687855
0.687635
0.687061
0.686021
0.684574
0.682995
0.681667
0.680883
0.670755
0.67121
0.67199
0.67328
0.674765
0.676287
0.67774
0.679009
0.68012
0.681156
0.682037
0.682555
0.682659
0.682364
0.681651
0.68063
0.679476
0.678329
0.677412
0.67689
0.665967
0.666308
0.666914
0.667974
0.669253
0.670618
0.67205
0.673478
0.674818
0.676058
0.67712
0.677763
0.677901
0.677589
0.676952
0.676142
0.675271
0.674393
0.673715
0.673332
0.661272
0.661537
0.662025
0.662925
0.66408
0.66536
0.666737
0.668205
0.669713
0.671186
0.672475
0.673283
0.673528
0.673356
0.67292
0.672327
0.671654
0.670997
0.670498
0.670205
0.656592
0.656803
0.657209
0.657998
0.659071
0.660301
0.661662
0.663168
0.664802
0.666504
0.668065
0.669112
0.669576
0.669631
0.669416
0.669034
0.668557
0.668086
0.667723
0.667493
0.651845
0.652015
0.652362
0.653077
0.654103
0.655308
0.656693
0.658275
0.660054
0.661996
0.663879
0.66526
0.666027
0.666351
0.666373
0.666206
0.665929
0.665622
0.665372
0.665189
0.646945
0.647083
0.647389
0.648058
0.649065
0.650292
0.651738
0.653438
0.655412
0.657645
0.659922
0.661722
0.662853
0.663489
0.663777
0.663837
0.663756
0.663606
0.663451
0.663303
0.641808
0.641919
0.642197
0.642847
0.643871
0.645163
0.646715
0.648585
0.650824
0.653429
0.656194
0.658495
0.660053
0.661046
0.661632
0.661934
0.662052
0.66206
0.661987
0.661868
0.636343
0.636432
0.636693
0.637348
0.638425
0.639824
0.641537
0.643646
0.646228
0.649309
0.652676
0.655579
0.657639
0.659041
0.659961
0.660546
0.660881
0.661032
0.661032
0.660934
0.630448
0.630516
0.630771
0.631453
0.632621
0.634175
0.636111
0.63854
0.641559
0.645241
0.649347
0.652972
0.655627
0.65751
0.65881
0.659707
0.66028
0.660586
0.660653
0.660574
0.624002
0.624049
0.624306
0.625038
0.626336
0.628101
0.630332
0.633166
0.63674
0.641159
0.646165
0.650669
0.654038
0.656492
0.658237
0.659481
0.660329
0.660801
0.660936
0.660871
0.616857
0.616886
0.617147
0.617952
0.619425
0.621465
0.624076
0.627428
0.631698
0.63703
0.643136
0.648696
0.652917
0.656044
0.658317
0.659969
0.66113
0.66178
0.661982
0.661931
0.608832
0.608849
0.609111
0.610014
0.611714
0.614094
0.617194
0.621208
0.626355
0.63282
0.640265
0.647093
0.652323
0.65624
0.659135
0.661281
0.662793
0.663639
0.663911
0.663869
0.599625
0.599611
0.599935
0.600971
0.602952
0.605784
0.609512
0.614364
0.620613
0.628485
0.637561
0.6459
0.652322
0.65717
0.660795
0.663521
0.665439
0.666502
0.666846
0.666812
0.588962
0.588923
0.58929
0.590517
0.592864
0.596274
0.600797
0.606707
0.614332
0.623934
0.634987
0.645137
0.652972
0.658924
0.663415
0.666812
0.6692
0.670505
0.670923
0.670894
0.576374
0.576309
0.576752
0.578225
0.581051
0.585216
0.590772
0.598046
0.60742
0.619165
0.632607
0.644901
0.654381
0.661614
0.667117
0.67129
0.674216
0.67578
0.676272
0.676244
0.561227
0.561134
0.561698
0.563517
0.566983
0.572157
0.579086
0.588148
0.599766
0.614187
0.630499
0.645287
0.656657
0.665355
0.672025
0.677085
0.680607
0.682444
0.683003
0.68297
0.542595
0.542475
0.543235
0.545559
0.549927
0.556507
0.565314
0.576762
0.591264
0.608983
0.6287
0.64637
0.659897
0.670252
0.678234
0.684295
0.688466
0.690576
0.691188
0.691143
0.519088
0.518952
0.52004
0.523145
0.528868
0.537501
0.548967
0.563661
0.581898
0.603663
0.62737
0.648294
0.664204
0.676394
0.685813
0.692989
0.697835
0.700192
0.700832
0.700765
0.488402
0.48829
0.48998
0.494439
0.502434
0.514269
0.529656
0.548829
0.57187
0.598526
0.626783
0.651266
0.669723
0.683871
0.694839
0.703187
0.708667
0.711205
0.711829
0.711731
0.446414
0.446468
0.449484
0.456771
0.468991
0.486064
0.507244
0.532437
0.561434
0.59378
0.627081
0.655378
0.676505
0.692677
0.705252
0.714786
0.720771
0.723356
0.723907
0.723768
0.38544
0.386621
0.393997
0.407673
0.427618
0.453027
0.482364
0.515226
0.55129
0.590006
0.628659
0.660829
0.684614
0.702764
0.716876
0.727421
0.733733
0.736151
0.736531
0.736356
0.312604
0.314639
0.328884
0.352459
0.383154
0.418412
0.456659
0.497716
0.541383
0.587169
0.632105
0.66917
0.696518
0.717339
0.733414
0.745211
0.751837
0.754209
0.754584
0.754503
0.237554
0.243887
0.265089
0.298759
0.339799
0.384656
0.431799
0.481126
0.532513
0.58551
0.636935
0.679087
0.710115
0.733799
0.752071
0.764917
0.771539
0.773622
0.773885
0.773868
0.176294
0.184748
0.210489
0.2512
0.300312
0.353345
0.408537
0.465625
0.524392
0.584334
0.641967
0.688911
0.723331
0.749493
0.76948
0.78324
0.789925
0.791912
0.792384
0.792447
0.126312
0.135378
0.16466
0.210588
0.2658
0.325406
0.387393
0.45133
0.516835
0.583282
0.646792
0.698254
0.735832
0.764289
0.785885
0.800609
0.807766
0.810254
0.810837
0.810935
0.0843785
0.0937227
0.125452
0.175395
0.235606
0.300672
0.368409
0.438317
0.50987
0.582302
0.651308
0.707013
0.747551
0.778204
0.801441
0.817219
0.825124
0.827965
0.828638
0.828744
0.0481134
0.0575793
0.0911623
0.144323
0.208669
0.278402
0.351148
0.426338
0.503345
0.581271
0.655394
0.715063
0.758369
0.791017
0.81571
0.832452
0.841094
0.844195
0.844959
0.845061
0.0158688
0.0253913
0.0604064
0.116289
0.184104
0.25786
0.335038
0.414983
0.496978
0.579998
0.658922
0.722307
0.76816
0.802574
0.828473
0.846021
0.855272
0.858694
0.859495
0.859593
-0.0136005
-0.0040111
0.0321784
0.0904101
0.161211
0.238488
0.319608
0.403868
0.490464
0.578268
0.661753
0.728672
0.776884
0.812901
0.839815
0.857994
0.867661
0.871312
0.872177
0.872268
-0.0411339
-0.0314776
0.00577956
0.0660108
0.139472
0.21987
0.304513
0.392696
0.483561
0.575895
0.663786
0.734136
0.784612
0.822114
0.849949
0.868558
0.878463
0.882272
0.883172
0.883238
-0.0672865
-0.0575314
-0.0192682
0.0426363
0.118518
0.201692
0.289508
0.381269
0.476102
0.57275
0.664946
0.738701
0.791422
0.83035
0.858976
0.877871
0.887859
0.891748
0.892652
0.8927
-0.0925204
-0.0825666
-0.0434604
0.0200693
0.0980931
0.183745
0.274427
0.369456
0.467982
0.568741
0.665167
0.742377
0.797406
0.837771
0.867093
0.8862
0.896222
0.900096
0.900977
0.900974
-0.117069
-0.106882
-0.0670014
-0.0018708
0.0780373
0.165901
0.259171
0.357183
0.45913
0.563803
0.664408
0.745174
0.802659
0.84453
0.874515
0.893764
0.903778
0.907592
0.90842
0.908399
-0.141025
-0.130612
-0.0898686
-0.0233461
0.0582554
0.148108
0.243696
0.344414
0.449518
0.55789
0.662624
0.747103
0.80725
0.850739
0.881389
0.900747
0.910689
0.914373
0.915109
0.915054
-0.164508
-0.153783
-0.112256
-0.0444198
0.0387119
0.13034
0.228002
0.331158
0.439151
0.550994
0.659774
0.748138
0.811218
0.856503
0.887862
0.907264
0.917015
0.920487
0.921094
0.920991
-0.187497
-0.176476
-0.13417
-0.0651116
0.0194101
0.11262
0.212126
0.317458
0.428061
0.543115
0.655826
0.748225
0.814559
0.861918
0.894097
0.913456
0.922831
0.925961
0.926409
0.926267
-0.210032
-0.198676
-0.155548
-0.0853919
0.000379677
0.0949866
0.196117
0.30338
0.416309
0.534285
0.650753
0.747292
0.817208
0.867049
0.900315
0.919559
0.928281
0.930865
0.931113
0.930939
-0.231915
-0.220305
-0.176377
-0.105212
-0.0183247
0.0775147
0.180048
0.289
0.403974
0.524571
0.644544
0.745248
0.819055
0.871895
0.906751
0.925955
0.933644
0.935303
0.935235
0.93504
-0.253281
-0.241313
-0.19663
-0.124546
-0.0366655
0.0602493
0.164016
0.274406
0.391149
0.514058
0.637214
0.741994
0.81994
0.876335
0.913551
0.93321
0.9396
0.93964
0.938847
0.938627
-0.273966
-0.261666
-0.216277
-0.143339
-0.0545605
0.0432787
0.148105
0.25972
0.377948
0.502821
0.628807
0.737434
0.819666
0.8801
0.920587
0.941884
0.947486
0.945209
0.942545
0.94156
-0.294018
-0.281407
-0.235258
-0.161536
-0.0719703
0.0266742
0.132403
0.245026
0.364483
0.490999
0.6194
0.731478
0.818021
0.882791
0.927264
0.951877
0.958783
0.955271
0.94873
0.93958
-0.313356
-0.300499
-0.253655
-0.179294
-0.0891097
0.0101534
0.116569
0.229914
0.350299
0.478078
0.608453
0.723533
0.814489
0.883968
0.932745
0.962184
0.973579
0.970972
0.960773
0.956192
-0.331927
-0.31893
-0.271462
-0.196567
-0.105964
-0.00626625
0.10063
0.21437