/*--------------------------------*- C++ -*----------------------------------*\
| =========                 |                                                 |
| \\      /  F ield         | OpenFOAM: The Open Source CFD Toolbox           |
|  \\    /   O peration     | Version:  2306                                  |
|   \\  /    A nd           | Website:  www.openfoam.com                      |
|    \\/     M anipulation  |                                                 |
\*---------------------------------------------------------------------------*/
FoamFile
{
    version     2.0;
    format      ascii;
    arch        "LSB;label=32;scalar=64";
    class       surfaceScalarField;
    location    "50";
    object      phi;
}
// * * * * * * * * * * * * * * * * * * * * * * * * * * * * * * * * * * * * * //

dimensions      [0 3 -1 0 0 0 0];

oriented        oriented;

internalField   nonuniform List<scalar> 
17370
(
-0.0910992
0.0935458
0.286564
-0.0749555
0.0569558
0.364775
-0.0409394
0.0299557
0.427152
-0.0212013
0.0156014
0.504852
-0.0113519
0.00865264
0.602101
-0.00652063
0.00506871
0.720509
-0.00385112
0.00298078
0.863777
-0.00221365
0.0016383
1.03603
-0.00110855
0.000688797
1.24292
-0.000279168
-0.000112823
1.49158
0.000497544
-0.0009089
1.4916
0.00131056
-0.00181219
1.24319
0.00236003
-0.00309952
1.03638
0.00395062
-0.00515492
0.864111
0.00659996
-0.00872616
0.721184
0.0114188
-0.0156592
0.603455
0.0212499
-0.0299943
0.508184
0.0409686
-0.0569767
0.432176
0.0749718
-0.0935552
0.365359
0.0911117
0.197899
-0.127346
0.0881421
0.0392038
-0.364736
0.353787
-0.0726322
0.0835809
-0.446565
0.454367
-0.0817167
0.0739144
-0.520971
0.529523
-0.0658065
0.0572545
-0.61285
0.621015
-0.0495044
0.0413392
-0.727001
0.733788
-0.0344125
0.0276247
-0.867514
0.872449
-0.0222834
0.0173481
-1.03855
1.0419
-0.013629
0.0102759
-1.24471
1.24712
-0.00771999
0.00530813
-1.49284
1.49485
-0.00334104
0.00132481
-1.49269
1.49451
0.000495391
-0.0023156
-1.2441
1.24602
0.00429054
-0.00620421
-1.0376
1.04008
0.0085459
-0.0110314
-0.866159
0.869813
0.0143061
-0.0179598
-0.724479
0.729776
0.0228351
-0.0281318
-0.608888
0.615775
0.0348761
-0.0417633
-0.51499
0.522698
0.0498838
-0.0575917
-0.439772
0.447831
0.0660926
-0.0741519
-0.375157
0.377
0.0818956
-0.0837386
-0.256918
0.223422
0.0727421
-0.0392462
-0.0686504
0.0589189
0.0097315
-0.0520848
0.0587832
-0.37454
0.367841
-0.0578994
0.0540746
-0.453828
0.457653
-0.0487185
0.0443812
-0.527743
0.53208
-0.0401599
0.0363788
-0.621103
0.624884
-0.0321561
0.0280849
-0.734876
0.738947
-0.023612
0.0196183
-0.874046
0.87804
-0.01548
0.0119625
-1.0434
1.04692
-0.00839433
0.00532965
-1.24866
1.25173
-0.0020941
-0.000907138
-1.49695
1.49995
0.0038873
-0.00706222
-1.49743
1.50061
0.0100392
-0.0134897
-1.2501
1.25355
0.0168897
-0.0208954
-1.04573
1.04973
0.0247737
-0.0291334
-0.87732
0.88168
0.0331143
-0.0372485
-0.739314
0.743448
0.0409542
-0.0450986
-0.626345
0.63049
0.0493707
-0.0546635
-0.534938
0.540231
0.0584195
-0.0592161
-0.457922
0.458718
0.0524084
-0.0320357
-0.336399
0.316027
0.00978573
-0.0685056
0.0587199
-0.0531591
0.0491083
0.00405084
-0.0331763
0.0436734
-0.358368
0.347871
-0.0473945
0.0468104
-0.459509
0.460093
-0.0438365
0.040569
-0.536023
0.539291
-0.0368602
0.0335255
-0.628443
0.631778
-0.0299603
0.0268087
-0.742256
0.745408
-0.0234572
0.0202875
-0.881574
0.884744
-0.0166877
0.0133072
-1.0504
1.05378
-0.00957061
0.00613071
-1.25502
1.25846
-0.00230314
-0.00134762
-1.50333
1.50698
0.00496774
-0.0087066
-1.50414
1.50788
0.0120257
-0.0155997
-1.25717
1.26074
0.0188158
-0.0222272
-1.0535
1.05691
0.0252299
-0.0284148
-0.885291
0.888476
0.0314324
-0.0348671
-0.74694
0.750375
0.0380921
-0.0416873
-0.634506
0.638102
0.0448566
-0.04772
-0.544462
0.547325
0.0481887
-0.0443055
-0.456889
0.453006
0.0336137
-0.0162576
-0.296661
0.279305
0.00411663
-0.0529011
0.0487844
-0.0459857
0.043459
0.00252668
-0.0229374
0.0333098
-0.337228
0.326856
-0.0390968
0.040086
-0.459804
0.458815
-0.0388726
0.0365753
-0.541964
0.544261
-0.0339364
0.0313748
-0.634772
0.637334
-0.0283688
0.0255106
-0.74847
0.751328
-0.0222768
0.0192814
-0.887742
0.890738
-0.0159644
0.0128555
-1.05694
1.06005
-0.00931027
0.00590415
-1.26188
1.26529
-0.00197599
-0.00184498
-1.51074
1.51456
0.00562691
-0.00943648
-1.51169
1.5155
0.0126834
-0.0160158
-1.26421
1.26755
0.0189104
-0.0219825
-1.06008
1.06315
0.0247581
-0.0277672
-0.891622
0.894631
0.0304408
-0.0332661
-0.753564
0.756389
0.0356768
-0.0381632
-0.641107
0.643593
0.0403302
-0.0413713
-0.549146
0.550187
0.0402034
-0.034155
-0.447813
0.441765
0.0234972
-0.0102842
-0.264128
0.250915
0.00260753
-0.0455887
0.0429812
-0.0413596
0.0395715
0.00178807
-0.0168736
0.0261576
-0.316983
0.307699
-0.0327759
0.0349176
-0.45723
0.455088
-0.0344998
0.0328204
-0.546263
0.547943
-0.0306212
0.0285172
-0.639631
0.641735
-0.0260947
0.0237164
-0.75394
0.756318
-0.0208899
0.0181353
-0.893592
0.896347
-0.0149471
0.0119168
-1.06308
1.06611
-0.00846112
0.00515505
-1.2686
1.27191
-0.00132238
-0.00242463
-1.51834
1.52209
0.00612124
-0.00980549
-1.51925
1.52294
0.0129112
-0.0160987
-1.27081
1.274
0.0188582
-0.0217349
-1.06617
1.06905
0.024206
-0.0267394
-0.897434
0.899967
0.0288769
-0.0310656
-0.758843
0.761032
0.0329773
-0.0349807
-0.64579
0.647794
0.0364702
-0.0366539
-0.550749
0.550933
0.0342374
-0.0272377
-0.435154
0.428154
0.0175708
-0.0074245
-0.239382
0.229236
0.00188679
-0.0407928
0.038906
-0.0380309
0.0366853
0.00134566
-0.0129026
0.0208951
-0.299067
0.291074
-0.0276763
0.0306153
-0.45252
0.449581
-0.0308353
0.0297233
-0.54937
0.550482
-0.0277361
0.0258225
-0.643774
0.645687
-0.0236262
0.021498
-0.758544
0.760672
-0.0190016
0.0165387
-0.898895
0.901358
-0.01362
0.0107662
-1.06901
1.07186
-0.00743912
0.0042278
-1.27513
1.27835
-0.00050346
-0.00311741
-1.52575
1.52937
0.00667592
-0.0102145
-1.52655
1.53009
0.0131754
-0.0161673
-1.27712
1.28011
0.0186812
-0.0212084
-1.07177
1.0743
0.0233162
-0.0254442
-0.902281
0.904409
0.027267
-0.0291647
-0.763058
0.764955
0.0308349
-0.032588
-0.649648
0.651401
0.0334231
-0.0328757
-0.550757
0.550209
0.0295445
-0.0222423
-0.420948
0.413645
0.0137593
-0.0057388
-0.220254
0.212234
0.00146566
-0.037257
0.0357914
-0.0355091
0.0344708
0.00103828
-0.0100965
0.0168645
-0.28372
0.276952
-0.0233921
0.0267928
-0.446394
0.442993
-0.0275945
0.026913
-0.551373
0.552054
-0.0251632
0.0233916
-0.64757
0.649342
-0.0213404
0.0193438
-0.76273
0.764726
-0.0169949
0.0146898
-0.903671
0.905976
-0.0119773
0.00931458
-1.07455
1.07721
-0.00617808
0.00311433
-1.28144
1.28451
0.000466945
-0.00395017
-1.5329
1.53638
0.00735777
-0.0107092
-1.53353
1.53688
0.0134632
-0.0161843
-1.28299
1.28571
0.0184274
-0.0206577
-1.07669
1.07892
0.0225238
-0.0244152
-0.906429
0.908321
0.0260316
-0.0277105
-0.766743
0.768421
0.0291798
-0.0306053
-0.653007
0.654432
0.0309396
-0.0296784
-0.549316
0.548055
0.025738
-0.0185268
-0.406365
0.399154
0.0111443
-0.00461676
-0.205031
0.198503
0.00118417
-0.0344836
0.0332995
-0.033558
0.0327473
0.000810647
-0.00801705
0.013715
-0.270749
0.265052
-0.0197663
0.0233731
-0.439482
0.435875
-0.0246604
0.0242315
-0.552644
0.553073
-0.0227578
0.0211018
-0.651107
0.652763
-0.0191531
0.0172508
-0.766671
0.768573
-0.0150059
0.0127984
-0.908164
0.910372
-0.0101982
0.00765573
-1.07974
1.08228
-0.00467547
0.0017638
-1.28744
1.29035
0.0016435
-0.00495786
-1.53975
1.54307
0.00817959
-0.0113069
-1.54011
1.54324
0.01384
-0.0163138
-1.28832
1.29079
0.0183424
-0.0203497
-1.08106
1.08307
0.0220164
-0.0236974
-0.910128
0.911809
0.0251306
-0.0266189
-0.770011
0.771499
0.0278984
-0.0289564
-0.655649
0.656707
0.0289284
-0.0270104
-0.546469
0.544551
0.0226858
-0.0157592
-0.392081
0.385154
0.00929864
-0.00383696
-0.19256
0.187098
0.000988337
-0.0322268
0.0312385
-0.0320337
0.0313988
0.000634894
-0.00641556
0.0111996
-0.259839
0.255055
-0.0166681
0.0202842
-0.432263
0.428647
-0.0219049
0.0217096
-0.553425
0.55362
-0.0204779
0.0188883
-0.654438
0.656028
-0.0170031
0.0151571
-0.770441
0.772287
-0.0129798
0.0108406
-0.912467
0.914606
-0.00832196
0.00586256
-1.0847
1.08716
-0.00298812
0.000198561
-1.29315
1.29594
0.00304994
-0.00618528
-1.54625
1.54939
0.00920556
-0.0121091
-1.54624
1.54915
0.0144421
-0.0167007
-1.29318
1.29543
0.0185332
-0.0203273
-1.085
1.08679
0.0218038
-0.0232896
-0.913418
0.914904
0.02456
-0.0258779
-0.772914
0.774231
0.0270145
-0.0276703
-0.657542
0.658198
0.0272831
-0.0248234
-0.542376
0.539916
0.0202737
-0.0137025
-0.378416
0.371845
0.00797839
-0.00328648
-0.182061
0.177369
0.000850679
-0.030331
0.0294803
-0.030843
0.0303499
0.000493097
-0.00512906
0.00912569
-0.250691
0.246694
-0.0139669
0.0174449
-0.425108
0.42163
-0.0192616
0.0192678
-0.553763
0.553757
-0.0182424
0.0166956
-0.657669
0.659216
-0.014842
0.0130202
-0.774111
0.775933
-0.0108722
0.00876749
-0.916638
0.918742
-0.00629825
0.00389642
-1.0895
1.0919
-0.00109868
-0.00159921
-1.29862
1.30131
0.00471022
-0.00768195
-1.5524
1.55537
0.0105144
-0.0132103
-1.55193
1.55462
0.0153529
-0.0174024
-1.29761
1.29966
0.0190448
-0.0206335
-1.08853
1.09012
0.0219296
-0.0232335
-0.91633
0.917634
0.0243542
-0.0255129
-0.775487
0.776645
0.0264607
-0.0267547
-0.658647
0.658941
0.0259886
-0.0230782
-0.537241
0.534331
0.0184074
-0.0121903
-0.365471
0.359254
0.00703739
-0.00290095
-0.17299
0.168854
0.00075582
-0.0286888
0.027933
-0.0299243
0.0295509
0.000373398
-0.0040527
0.00735819
-0.243067
0.239761
-0.0115608
0.0147915
-0.418292
0.415061
-0.0166796
0.0168526
-0.553725
0.553552
-0.0159207
0.0144574
-0.660802
0.662265
-0.0126097
0.0107813
-0.777742
0.779571
-0.00862658
0.00652357
-0.920744
0.922847
-0.00407
0.00169705
-1.09419
1.09656
0.00104336
-0.00367201
-1.30391
1.30654
0.00667587
-0.00951004
-1.55823
1.56106
0.0121755
-0.0146737
-1.5572
1.5597
0.0166255
-0.018461
-1.30162
1.30345
0.0199107
-0.0212951
-1.09165
1.09304
0.0224145
-0.0235433
-0.918888
0.920017
0.0245193
-0.0255145
-0.777746
0.778741
0.0262166
-0.0262154
-0.659089
0.659087
0.0250551
-0.0217557
-0.531234
0.527935
0.017017
-0.0111081
-0.35322
0.347311
0.0063829
-0.00263936
-0.164947
0.161203
0.000693446
-0.0272208
0.0265273
-0.0292377
0.0289709
0.000266771
-0.00311025
0.00579258
-0.236789
0.234106
-0.00935729
0.012258
-0.412018
0.409118
-0.0141039
0.0143712
-0.553398
0.553131
-0.0134941
0.0120846
-0.663791
0.6652
-0.0102217
0.00836007
-0.781392
0.783254
-0.00616746
0.00403642
-0.924846
0.926977
-0.00156339
-0.000805161
-1.09882
1.10119
0.00352988
-0.00611465
-1.30906
1.31165
0.00903293
-0.0117466
-1.56378
1.56649
0.014256
-0.0165625
-1.56207
1.56438
0.0183287
-0.0199555
-1.30521
1.30683
0.0212139
-0.0223894
-1.09439
1.09556
0.0233232
-0.0242686
-0.921103
0.922048
0.0250966
-0.0259241
-0.77966
0.780487
0.0263642
-0.0261095
-0.658951
0.658697
0.0245221
-0.0208519
-0.524472
0.520801
0.0160535
-0.010379
-0.34156
0.335885
0.00595555
-0.00247547
-0.157626
0.154146
0.000656842
-0.025866
0.0252091
-0.0287608
0.0285952
0.000165652
-0.00223853
0.0043361
-0.231737
0.229639
-0.00725713
0.00975687
-0.406446
0.403947
-0.0114531
0.0117385
-0.552933
0.552648
-0.0108871
0.00949864
-0.666704
0.668092
-0.00759863
0.00567852
-0.78511
0.78703
-0.00341536
0.00122374
-0.929002
0.931194
0.00130236
-0.00370976
-1.10346
1.10587
0.00644578
-0.00901257
-1.31413
1.3167
0.011869
-0.0144778
-1.5691
1.5717
0.0168385
-0.0189537
-1.56656
1.56867
0.020531
-0.0219427
-1.30837
1.30978
0.0230028
-0.0239585
-1.09671
1.09766
0.0246937
-0.0254393
-0.922955
0.9237
0.0261045
-0.0267779
-0.781226
0.781899
0.0269203
-0.0263247
-0.658216
0.657621
0.0243281
-0.0203162
-0.517006
0.512994
0.015451
-0.00993335
-0.33034
0.324822
0.00570608
-0.00238748
-0.150783
0.147464
0.000640186
-0.0245756
0.0239355
-0.0284856
0.0284219
6.37727e-05
-0.00138831
0.00291427
-0.227847
0.226321
-0.00517529
0.00720891
-0.401711
0.399677
-0.00865175
0.00887427
-0.552487
0.552265
-0.00800422
0.00660247
-0.669609
0.671011
-0.00462851
0.00261952
-0.788947
0.790956
-0.000250024
-0.00203587
-0.933276
0.935562
0.00465224
-0.00712591
-1.10817
1.11065
0.00990787
-0.0124832
-1.31917
1.32175
0.0152995
-0.0178138
-1.5742
1.57671
0.0200283
-0.021948
-1.57065
1.57257
0.0233287
-0.0245123
-1.3111
1.31228
0.0253584
-0.0260729
-1.0986
1.09931
0.026587
-0.0271136
-0.924415
0.924941
0.0276118
-0.0280917
-0.782424
0.782904
0.0279502
-0.0269602
-0.656763
0.655773
0.0245351
-0.0201632
-0.508873
0.504501
0.0151912
-0.00973974
-0.319401
0.31395
0.00561112
-0.0023656
-0.144224
0.140978
0.000641281
-0.0233119
0.0226706
-0.0284151
0.0284601
-4.50007e-05
-0.000511563
0.00145916
-0.225103
0.224155
-0.00303221
0.0045355
-0.397942
0.396439
-0.0056235
0.00570003
-0.552231
0.552154
-0.00475601
0.00328717
-0.672591
0.67406
-0.00120901
-0.000925464
-0.792963
0.795098
0.00344295
-0.00585718
-0.937736
0.94015
0.00860412
-0.0111782
-1.11302
1.11559
0.0140416
-0.0166531
-1.32423
1.32684
0.0194526
-0.0218841
-1.57912
1.58155
0.0239525
-0.0256669
-1.57435
1.57606
0.0268357
-0.0277719
-1.31335
1.31428
0.0283873
-0.0288458
-1.10002
1.10048
0.0291233
-0.0294094
-0.925446
0.925733
0.0297156
-0.029928
-0.783119
0.783331
0.0295243
-0.0280576
-0.6545
0.653033
0.0251655
-0.0204007
-0.50004
0.495275
0.0152648
-0.00978225
-0.308561
0.303079
0.00565879
-0.00240467
-0.137775
0.134521
0.000658771
-0.0220398
0.0213811
-0.0285605
0.0287212
-0.000160669
0.000413314
-7.62517e-05
-0.223529
0.223192
-0.000758433
0.00164785
-0.395266
0.394377
-0.00227528
0.00212256
-0.552338
0.55249
-0.00104987
-0.000547696
-0.675759
0.677356
0.00277987
-0.00508365
-0.797232
0.799535
0.0077944
-0.0103811
-0.942454
0.94504
0.0133052
-0.0160213
-1.11807
1.12079
0.0190065
-0.0216846
-1.32937
1.33204
0.0244911
-0.0268508
-1.58386
1.58622
0.0287708
-0.0302626
-1.57762
1.57911
0.031202
-0.0318606
-1.31509
1.31575
0.0322167
-0.0323974
-1.10092
1.1011
0.032422
-0.0324426
-0.925992
0.926013
0.0325304
-0.0324182
-0.783187
0.783075
0.0316844
-0.0296584
-0.65131
0.649284
0.0262523
-0.0210395
-0.490432
0.48522
0.0156653
-0.0100477
-0.297621
0.292004
0.00583846
-0.0024994
-0.131277
0.127938
0.000691015
-0.0207276
0.0200366
-0.0289612
0.029262
-0.000300811
0.00141349
-0.00172819
-0.223213
0.223528
0.00173981
-0.00157125
-0.393813
0.393644
0.00153556
-0.00202452
-0.553019
0.553508
0.00331084
-0.0050886
-0.679242
0.68102
0.00753262
-0.0100518
-0.801831
0.80435
0.0130089
-0.0158163
-0.947518
0.950325
0.0189677
-0.0218672
-1.12342
1.12632
0.025013
-0.0277854
-1.33463
1.33741
0.0306163
-0.0329046
-1.58846
1.59075
0.0346605
-0.0358968
-1.58043
1.58166
0.0365759
-0.0369141
-1.31624
1.31658
0.0369786
-0.0368498
-1.10121
1.10108
0.0365926
-0.0363209
-0.925981
0.92571
0.0361843
-0.0356473
-0.782505
0.781968
0.0345001
-0.0318347
-0.647063
0.644398
0.0278484
-0.0221073
-0.479933
0.474192
0.0164013
-0.0105351
-0.286371
0.280505
0.00614742
-0.00264813
-0.124578
0.121079
0.000737485
-0.0193465
0.018609
-0.0296355
0.0301123
-0.000476809
0.00269869
-0.00376244
-0.224229
0.225293
0.00464546
-0.00527322
-0.393815
0.394443
0.00595602
-0.00689269
-0.554513
0.555449
0.00847646
-0.0105041
-0.683141
0.685169
0.0132391
-0.0160397
-0.806863
0.809664
0.0193106
-0.022397
-0.953028
0.956115
0.0258362
-0.0289683
-1.12913
1.13226
0.032317
-0.0352069
-1.34009
1.34298
0.0380671
-0.0402684
-1.59289
1.59509
0.041828
-0.0427702
-1.58269
1.58363
0.0431296
-0.0431139
-1.31673
1.31672
0.0428454
-0.0423623
-1.10082
1.10034
0.0417844
-0.0411825
-0.925329
0.924727
0.0407372
-0.0397381
-0.780919
0.779919
0.0380632
-0.0346689
-0.641601
0.638206
0.0300079
-0.0236294
-0.468372
0.461993
0.0174809
-0.0112433
-0.274583
0.268345
0.00658212
-0.00284801
-0.11753
0.113796
0.000796952
-0.0178684
0.0170714
-0.0306625
0.0313559
-0.000693425
0.00418433
-0.00613458
-0.226784
0.228734
0.0080944
-0.00961734
-0.395483
0.397006
0.0111218
-0.0126309
-0.557066
0.558575
0.0146457
-0.0170136
-0.687614
0.689982
0.0201328
-0.0232947
-0.81246
0.815622
0.0269646
-0.030404
-0.959106
0.962546
0.0342038
-0.0376225
-1.13532
1.13874
0.0412151
-0.0442402
-1.34577
1.34879
0.0471274
-0.0492155
-1.59713
1.59922
0.0505337
-0.0511261
-1.58433
1.58492
0.0510993
-0.0506774
-1.31646
1.31604
0.0500268
-0.0491364
-1.09965
1.09876
0.0481944
-0.0472101
-0.923944
0.92296
0.0463365
-0.0448385
-0.778378
0.77688
0.0425036
-0.0382603
-0.634718
0.630475
0.0328052
-0.0256504
-0.455521
0.448367
0.0189263
-0.0121794
-0.262005
0.255258
0.00714318
-0.00309755
-0.109983
0.105937
0.00086845
-0.016268
0.0153996
-0.0321207
0.0331
-0.000979305
0.00605997
-0.00907872
-0.231126
0.234144
0.0122773
-0.0148582
-0.399078
0.401659
0.0173342
-0.0195487
-0.560953
0.563167
0.0221448
-0.0249751
-0.692855
0.695685
0.0286035
-0.0322298
-0.818785
0.822411
0.0363989
-0.0402705
-0.965903
0.969774
0.0444996
-0.0482479
-1.14208
1.14583
0.0521077
-0.0552643
-1.3517
1.35486
0.0581416
-0.060054
-1.60109
1.60301
0.061051
-0.0612002
-1.58521
1.58536
0.0607308
-0.0598078
-1.31528
1.31436
0.0587121
-0.0573525
-1.09756
1.0962
0.0559985
-0.0545843
-0.921707
0.920293
0.053191
-0.0510944
-0.774797
0.7727
0.0479756
-0.0427211
-0.626156
0.620902
0.036312
-0.0282024
-0.441101
0.432991
0.0207451
-0.0133372
-0.248363
0.240955
0.00782053
-0.00338919
-0.101786
0.0973543
0.000948881
-0.0145233
0.0135744
-0.0341395
0.0355101
-0.00137063
0.00851508
-0.0128761
-0.237592
0.241953
0.0175577
-0.0213681
-0.404971
0.408781
0.0249753
-0.0280432
-0.56651
0.569578
0.031401
-0.0348585
-0.69913
0.702587
0.0391594
-0.0433744
-0.826044
0.830259
0.048154
-0.0525388
-0.973574
0.977959
0.0572614
-0.0613695
-1.14949
1.1536
0.0654922
-0.0687395
-1.35787
1.36112
0.0715207
-0.0731451
-1.60465
1.60627
0.0736963
-0.0732712
-1.58514
1.58472
0.0722614
-0.0707193
-1.31298
1.31144
0.0691047
-0.0672027
-1.09441
1.09251
0.0653824
-0.0634922
-0.918512
0.916622
0.0614731
-0.0586678
-0.76997
0.767164
0.0546071
-0.0481344
-0.615583
0.60911
0.040572
-0.0312933
-0.424756
0.415478
0.0229228
-0.0146904
-0.233357
0.225125
0.00858935
-0.00370773
-0.0927971
0.0879155
0.00103277
-0.012619
0.0115862
-0.0369141
0.038848
-0.00193383
0.0119308
-0.0179949
-0.246687
0.252751
0.0244688
-0.0297167
-0.413642
0.41889
0.0346561
-0.0387587
-0.57412
0.578223
0.0430866
-0.0473694
-0.706776
0.711059
0.0525369
-0.0574805
-0.834484
0.839428
0.0629884
-0.067957
-0.982283
0.987252
0.0732027
-0.0776484
-1.15759
1.16204
0.0819563
-0.0851816
-1.36414
1.36736
0.0877096
-0.0888791
-1.60753
1.6087
0.0888156
-0.0876492
-1.58383
1.58267
0.0859476
-0.0836763
-1.30935
1.30708
0.0814434
-0.0789394
-1.09003
1.08753
0.0766123
-0.074109
-0.914223
0.91172
0.0714609
-0.0677292
-0.763607
0.759876
0.0625152
-0.0545717
-0.602569
0.594626
0.0456125
-0.0349058
-0.406069
0.395362
0.0254147
-0.0161852
-0.216673
0.207444
0.00940349
-0.00402638
-0.0829016
0.0775245
0.00111061
-0.0105529
0.00944231
-0.0407707
0.0435772
-0.00280646
0.0168745
-0.0251839
-0.259127
0.267436
0.0338739
-0.0408508
-0.425752
0.432729
0.0474045
-0.0527738
-0.584249
0.589618
0.0583334
-0.0636922
-0.716202
0.721561
0.0699498
-0.0757524
-0.844374
0.850176
0.0820533
-0.0875929
-0.992142
0.997682
0.0932737
-0.0979181
-1.16629
1.17094
0.102205
-0.105185
-1.37024
1.37322
0.107185
-0.107635
-1.60935
1.60981
0.106711
-0.104581
-1.58092
1.57879
0.102021
-0.0988681
-1.30416
1.30101
0.0959155
-0.0927276
-1.08427
1.08108
0.089839
-0.0866229
-0.908505
0.905289
0.0832818
-0.0784129
-0.755265
0.750396
0.0717891
-0.0620608
-0.586572
0.576844
0.0514125
-0.0389758
-0.384535
0.372098
0.0281321
-0.0177301
-0.197995
0.187593
0.0101904
-0.00430554
-0.0720328
0.066148
0.00116898
-0.00834335
0.00717437
-0.0462776
0.050552
-0.00427434
0.0245244
-0.0358787
-0.276068
0.287422
0.0474308
-0.0567031
-0.442316
0.451589
0.0652496
-0.0720956
-0.597499
0.604345
0.0791854
-0.0860152
-0.727817
0.734647
0.0934298
-0.100021
-0.855925
0.862516
0.10695
-0.112841
-1.00304
1.00893
0.118642
-0.12315
-1.17522
1.17972
0.127011
-0.129354
-1.37565
1.37799
0.130385
-0.129722
-1.60953
1.60886
0.127597
-0.124222
-1.57593
1.57255
0.120616
-0.116423
-1.29712
1.29293
0.112645
-0.108708
-1.07696
1.07302
0.10522
-0.101217
-0.901127
0.897124
0.0970464
-0.0907527
-0.744454
0.73816
0.0823953
-0.0705058
-0.566908
0.555019
0.0578439
-0.0433606
-0.359574
0.345091
0.0309254
-0.0191908
-0.177042
0.165308
0.0108497
-0.00449371
-0.0602137
0.0538577
0.00119054
-0.00603694
0.0048464
-0.0544909
0.0618281
-0.00733719
0.0379439
-0.0537442
-0.299628
0.315428
0.0693055
-0.0817273
-0.464961
0.477383
0.0924064
-0.100613
-0.614319
0.622526
0.109226
-0.117294
-0.742009
0.750077
0.125591
-0.132555
-0.868859
0.875823
0.13954
-0.145194
-1.01437
1.02003
0.150462
-0.154219
-1.18356
1.18732
0.157008
-0.158122
-1.37947
1.38058
0.157617
-0.155375
-1.6072
1.60496
0.151683
-0.146782
-1.56829
1.56339
0.141914
-0.136509
-1.28792
1.28251
0.131766
-0.126964
-1.06793
1.06313
0.122818
-0.118031
-0.891883
0.887096
0.112705
-0.104599
-0.730541
0.722435
0.0940991
-0.0795749
-0.542699
0.528175
0.0645387
-0.047766
-0.33056
0.313787
0.0335762
-0.0204409
-0.153651
0.140516
0.0113085
-0.00455934
-0.0476198
0.0408707
0.00115837
-0.00371344
0.00255507
-0.0686813
0.0727518
-0.0040705
0.0290025
-0.0427191
-0.333765
0.347482
0.0565273
-0.0678939
-0.495078
0.506445
0.0780057
-0.0874386
-0.634298
0.643731
0.0979167
-0.107411
-0.757648
0.767142
0.117873
-0.127121
-0.881894
0.891142
0.136886
-0.145471
-1.02474
1.03333
0.15428
-0.161632
-1.18996
1.19731
0.168635
-0.173839
-1.38048
1.38568
0.177858
-0.179614
-1.60144
1.6032
0.179053
-0.176714
-1.55737
1.55503
0.173368
-0.168923
-1.27619
1.27174
0.164808
-0.159999
-1.05699
1.05218
0.155905
-0.15083
-0.880452
0.875377
0.144044
-0.132546
-0.712597
0.701099
0.117288
-0.0969064
-0.512921
0.492539
0.0766523
-0.0547152
-0.29682
0.274883
0.0370997
-0.0216656
-0.127933
0.112499
0.0115017
-0.0044476
-0.0346812
0.0276271
0.00108231
-0.00148203
0.000399714
-0.0800204
0.078053
0.00196742
0.00739423
-0.0164419
-0.363977
0.373025
0.0269411
-0.0349879
-0.5225
0.530547
0.0430498
-0.0510032
-0.655568
0.663522
0.0606495
-0.0695422
-0.776242
0.785134
0.0789374
-0.087459
-0.899844
0.908366
0.0964195
-0.103948
-1.04161
1.04914
0.111834
-0.118032
-1.20444
1.21064
0.123834
-0.127793
-1.39051
1.39446
0.130145
-0.130386
-1.60399
1.60423
0.128297
-0.124384
-1.55175
1.54784
0.119463
-0.11337
-1.2666
1.26051
0.107698
-0.101415
-1.04588
1.0396
0.095643
-0.0889798
-0.865842
0.859179
0.0818716
-0.0719061
-0.685709
0.675744
0.0605666
-0.0469274
-0.470613
0.456974
0.0346881
-0.023027
-0.253033
0.241372
0.0146701
-0.00811989
-0.0978122
0.091262
0.00416443
-0.00158729
-0.0209423
0.0183652
0.000367898
0.000707108
-0.00107501
-0.0814351
0.0785339
0.00290122
-0.0016822
-0.00355254
-0.384406
0.38964
0.0106803
-0.0165605
-0.54272
0.5486
0.0225874
-0.0295114
-0.673571
0.680495
0.037871
-0.0456001
-0.793122
0.800851
0.0539854
-0.0614296
-0.91615
0.923595
0.069005
-0.0757182
-1.05649
1.0632
0.0825271
-0.0879401
-1.21637
1.22179
0.09252
-0.0953484
-1.3977
1.40053
0.0967748
-0.0959618
-1.60367
1.60285
0.0928539
-0.0879413
-1.54318
1.53827
0.0822393
-0.0755069
-1.25409
1.24735
0.0688254
-0.0615893
-1.03213
1.0249
0.0548694
-0.0473331
-0.849709
0.842172
0.0404557
-0.0320836
-0.662196
0.653824
0.0238107
-0.0151871
-0.441478
0.432855
0.00906504
-0.00463139
-0.228955
0.224521
0.00227414
-0.000991925
-0.0844183
0.083136
0.000457849
-0.000202756
-0.0155283
0.0152732
7.24966e-06
0.00161544
-0.00162268
-0.080204
0.0774762
0.00272776
-0.00523087
0.00270244
-0.398061
0.40059
0.00188099
-0.00637016
-0.557727
0.562216
0.0115069
-0.0173265
-0.688449
0.694268
0.024505
-0.0311489
-0.80793
0.814574
0.0383315
-0.0447282
-0.930518
0.936915
0.0516114
-0.0573054
-1.06948
1.07518
0.0632536
-0.0675144
-1.22678
1.23104
0.0713596
-0.0735691
-1.40311
1.40532
0.0741982
-0.072508
-1.60154
1.59985
0.0689668
-0.0636622
-1.53273
1.52742
0.0576216
-0.0501872
-1.24025
1.23282
0.0432078
-0.0356091
-1.0168
1.0092
0.0284291
-0.020928
-0.832531
0.82503
0.0141335
-0.00717509
-0.642249
0.63529
0.00129717
0.00324481
-0.422788
0.418246
-0.00517954
0.00536845
-0.217901
0.217712
-0.0046155
0.00317431
-0.0807839
0.0822251
-0.00192701
0.000803944
-0.0145517
0.0156747
-0.000267584
0.00190341
-0.00163583
-0.0787516
0.0763536
0.00239792
-0.00628697
0.00533628
-0.407199
0.40815
-0.00197598
-0.00129223
-0.569827
0.573095
0.0055112
-0.010819
-0.700956
0.706264
0.0168849
-0.0227411
-0.820501
0.826357
0.0289848
-0.0345598
-0.94287
0.948445
0.0404818
-0.0455695
-1.08074
1.08583
0.0506133
-0.0545368
-1.23516
1.23908
0.057791
-0.0595316
-1.40716
1.4089
0.0597243
-0.0577053
-1.59796
1.59594
0.0539289
-0.0482779
-1.5214
1.51575
0.04218
-0.0348805
-1.2253
1.218
0.0279033
-0.0201003
-1.00101
0.993207
0.0129416
-0.00531636
-0.815726
0.8081
-0.00108073
0.00657437
-0.625514
0.620021
-0.0105449
0.0128316
-0.411166
0.408879
-0.0127735
0.0109455
-0.214705
0.216533
-0.00864389
0.00590063
-0.0826611
0.0854043
-0.00357106
0.00152661
-0.0164121
0.0184566
-0.000436436
0.00157654
-0.0011401
-0.0774312
0.0753884
0.00204283
-0.0061237
0.00565051
-0.413515
0.413988
-0.00364762
0.00102439
-0.579199
0.581822
0.00312445
-0.00768491
-0.711601
0.716162
0.012931
-0.0180385
-0.831405
0.836512
0.0236205
-0.0286344
-0.953684
0.958698
0.0340908
-0.03858
-1.09065
1.09514
0.043152
-0.0467051
-1.24273
1.24628
0.0495694
-0.0510283
-1.41038
1.41184
0.0509855
-0.0492366
-1.59383
1.59208
0.0454735
-0.0401498
-1.50972
1.5044
0.0342767
-0.0272511
-1.2106
1.20357
0.020742
-0.0130519
-0.985158
0.977468
0.00604512
0.00116986
-0.79947
0.792255
-0.00697126
0.0118353
-0.611425
0.606561
-0.0149637
0.0165799
-0.403765
0.402149
-0.0156613
0.0130507
-0.215502
0.218113
-0.0103015
0.00704804
-0.0872068
0.0904603
-0.00428344
0.00187205
-0.020035
0.0224464
-0.000512329
0.000805668
-0.000293339
-0.0764567
0.0748749
0.00158183
-0.00522083
0.00506206
-0.418273
0.418432
-0.0034339
0.0014333
-0.587392
0.589392
0.00246581
-0.00660397
-0.720852
0.724991
0.0116021
-0.0160249
-0.841203
0.845626
0.0209604
-0.0254397
-0.963693
0.968172
0.0306597
-0.0347796
-1.09968
1.1038
0.0388858
-0.042291
-1.24967
1.25307
0.0453587
-0.046725
-1.41333
1.4147
0.0468253
-0.0451488
-1.58999
1.58832
0.0419514
-0.0367561
-1.49897
1.49378
0.0314232
-0.0249804
-1.19651
1.19007
0.0187312
-0.011674
-0.969814
0.962757
0.00505549
0.00184323
-0.784186
0.777287
-0.00697816
0.0116132
-0.598724
0.594089
-0.0144219
0.0157541
-0.398033
0.396701
-0.0151568
0.0129011
-0.217745
0.220001
-0.0102463
0.00705408
-0.0926491
0.0958413
-0.00432954
0.00193621
-0.024211
0.0266044
-0.000544435
-0.000139727
0.000684162
-0.0759922
0.0747604
0.0012318
-0.00413811
0.00409525
-0.422106
0.422149
-0.00264514
0.000746272
-0.594562
0.596461
0.0030414
-0.00676523
-0.729194
0.732918
0.0110725
-0.015356
-0.849974
0.854257
0.0199439
-0.0245869
-0.97247
0.977113
0.0291185
-0.0330914
-1.10803
1.112
0.0373669
-0.0405768
-1.25638
1.25959
0.0432332
-0.0450789
-1.416
1.41784
0.0454602
-0.0441829
-1.58675
1.58547
0.041267
-0.0367469
-1.48885
1.48433
0.031812
-0.0257874
-1.18339
1.17737
0.0200517
-0.0135445
-0.955636
0.949128
0.0075372
-0.00141318
-0.770102
0.763978
-0.00371325
0.00811534
-0.587103
0.582701
-0.0106868
0.0122495
-0.392867
0.391305
-0.012204
0.0105113
-0.219614
0.221306
-0.00845968
0.00589812
-0.0975879
0.100149
-0.00367668
0.00168456
-0.0281518
0.0301439
-0.00050374
-0.00105938
0.00156312
-0.0760546
0.075036
0.00101857
-0.00287085
0.00258831
-0.425579
0.425862
-0.00133558
-0.000637521
-0.601131
0.603104
0.00414896
-0.00775591
-0.736988
0.740595
0.0119004
-0.0157963
-0.85831
0.862206
0.0205199
-0.0244018
-0.981191
0.985073
0.0289295
-0.0327518
-1.11614
1.11996
0.0369489
-0.0403912
-1.26279
1.26623
0.0433867
-0.0450839
-1.41948
1.42117
0.0458909
-0.0450904
-1.58417
1.58337
0.0428635
-0.0386912
-1.47973
1.47556
0.0342393
-0.0287285
-1.17152
1.166
0.0235717
-0.0176945
-0.942553
0.936675
0.012435
-0.00673259
-0.757407
0.751704
0.00175681
0.00286928
-0.576319
0.571693
-0.00582599
0.00737665
-0.387328
0.385777
-0.00784292
0.00701086
-0.220477
0.221309
-0.00576351
0.00407767
-0.101199
0.102885
-0.00258901
0.00123702
-0.0311849
0.0325369
-0.000388843
-0.00183348
0.00222232
-0.0763998
0.0757022
0.000697541
-0.00174226
0.00105711
-0.429171
0.429856
-3.79476e-05
-0.00228537
-0.606904
0.609228
0.00544336
-0.00891814
-0.744279
0.747754
0.0128975
-0.0169313
-0.865945
0.869979
0.0210578
-0.0251165
-0.989167
0.993225
0.0296285
-0.0332677
-1.12422
1.12786
0.0375854
-0.0410195
-1.26949
1.27293
0.0441256
-0.046407
-1.4233
1.42558
0.0477693
-0.0473101
-1.58263
1.58217
0.0453806
-0.0419957
-1.4716
1.46822
0.0382099
-0.0332935
-1.16051
1.15559
0.0286708
-0.0236666
-0.930903
0.925899
0.0185729
-0.0133615
-0.745551
0.74034
0.00848659
-0.00356408
-0.565752
0.560829
0.000227183
0.00194637
-0.381327
0.379154
-0.00282907
0.00297306
-0.220045
0.219901
-0.00257424
0.00188745
-0.103033
0.10372
-0.00126814
0.00065035
-0.0329417
0.0335595
-0.000224514
-0.00235331
0.00257782
-0.0771603
0.0766248
0.00053546
-0.000795046
0.000232507
-0.432996
0.433558
0.00161345
-0.00368739
-0.612992
0.615066
0.00698456
-0.0103419
-0.751074
0.754432
0.0141726
-0.0178165
-0.873668
0.877312
0.0220791
-0.0258392
-0.997291
1.00105
0.0303182
-0.0344089
-1.13195
1.13604
0.0383981
-0.0421928
-1.27641
1.28021
0.0457653
-0.0481924
-1.42779
1.43021
0.0499881
-0.0503672
-1.58196
1.58234
0.0489706
-0.0463663
-1.46479
1.46219
0.0430091
-0.0388436
-1.1509
1.14673
0.0348939
-0.0302479
-0.920621
0.915975
0.0255606
-0.0203244
-0.734353
0.729116
0.0153499
-0.0101177
-0.554737
0.549504
0.00630375
-0.00354675
-0.374591
0.371834
0.00185594
-0.000857848
-0.217806
0.216808
0.000325884
-1.09447e-05
-0.102911
0.102596
-0.000148091
0.000178628
-0.0333386
0.0333081
-9.84346e-05
-0.00256124
0.00265967
-0.0781892
0.0778478
0.000341387
0.000251949
-0.00112045
-0.436897
0.437766
0.00276653
-0.00514516
-0.618626
0.621004
0.00838383
-0.0115932
-0.757647
0.760857
0.0155054
-0.0190055
-0.880922
0.884422
0.0231217
-0.0270137
-1.00529
1.00918
0.0314112
-0.035484
-1.13999
1.14406
0.0397184
-0.0435711
-1.28394
1.28779
0.0473722
-0.0505884
-1.43294
1.43616
0.0528838
-0.0536354
-1.58269
1.58344
0.0530519
-0.0509773
-1.45959
1.45752
0.0484038
-0.0450076
-1.14268
1.13928
0.0412547
-0.0368282
-0.91108
0.906654
0.0321771
-0.026664
-0.723168
0.717655
0.0216029