/*--------------------------------*- C++ -*----------------------------------*\
| =========                 |                                                 |
| \\      /  F ield         | OpenFOAM: The Open Source CFD Toolbox           |
|  \\    /   O peration     | Version:  2306                                  |
|   \\  /    A nd           | Website:  www.openfoam.com                      |
|    \\/     M anipulation  |                                                 |
\*---------------------------------------------------------------------------*/
FoamFile
{
    version     2.0;
    format      ascii;
    arch        "LSB;label=32;scalar=64";
    class       volScalarField;
    location    "34";
    object      p;
}
// * * * * * * * * * * * * * * * * * * * * * * * * * * * * * * * * * * * * * //

dimensions      [0 2 -2 0 0 0 0];

internalField   nonuniform List<scalar> 
8800
(
1.18555
1.13749
1.09911
1.07046
1.04983
1.03505
1.02442
1.01687
1.01198
1.00985
1.01104
1.01518
1.0218
1.03109
1.04382
1.06139
1.08582
1.11943
1.16187
1.21899
1.01809
1.02529
1.03372
1.03713
1.03521
1.02967
1.02293
1.01674
1.01193
1.00901
1.00865
1.01108
1.01553
1.02148
1.02836
1.03495
1.03907
1.03855
1.03247
1.02349
0.994817
1.00099
1.00518
1.00853
1.01102
1.0118
1.01066
1.00847
1.00637
1.00537
1.00625
1.00857
1.01134
1.01351
1.01401
1.01245
1.00959
1.00593
1.00139
0.997606
0.989716
0.992414
0.995128
0.997428
0.999058
1.00036
1.00123
1.00139
1.00105
1.00092
1.00157
1.00264
1.00336
1.00324
1.0024
1.00117
0.999398
0.996878
0.994442
0.992911
0.984569
0.985989
0.987783
0.989828
0.991564
0.992844
0.993831
0.994647
0.995244
0.995733
0.99626
0.996608
0.996551
0.99613
0.995377
0.994128
0.992394
0.990486
0.989149
0.988327
0.979621
0.980534
0.981766
0.983338
0.984975
0.986474
0.987705
0.988719
0.989623
0.990419
0.990962
0.991133
0.990963
0.990438
0.989492
0.988212
0.98681
0.985504
0.984665
0.984123
0.974832
0.975496
0.976452
0.977746
0.979148
0.980597
0.982004
0.983261
0.984364
0.985337
0.985988
0.986189
0.985964
0.98533
0.984406
0.983356
0.982269
0.981292
0.980687
0.98029
0.97018
0.970691
0.971473
0.972599
0.973868
0.975227
0.976647
0.978063
0.979388
0.980558
0.981361
0.981625
0.981404
0.980841
0.980088
0.979241
0.978368
0.977613
0.977155
0.976847
0.96561
0.966015
0.966672
0.967682
0.968883
0.970192
0.971603
0.973096
0.974603
0.976011
0.977003
0.977393
0.977308
0.976918
0.97635
0.975675
0.974972
0.974389
0.974039
0.973793
0.961052
0.961379
0.96195
0.962888
0.964046
0.965341
0.966772
0.968337
0.970001
0.971656
0.972903
0.973521
0.973658
0.973475
0.973089
0.972589
0.972037
0.97159
0.971321
0.97112
0.956436
0.956702
0.957213
0.95811
0.959255
0.960573
0.962066
0.96374
0.965579
0.967502
0.969083
0.970023
0.970437
0.970479
0.97028
0.969947
0.96954
0.969209
0.969005
0.968838
0.951696
0.951914
0.952387
0.953276
0.954451
0.95584
0.95745
0.959309
0.961412
0.963688
0.965675
0.966978
0.967682
0.96796
0.967956
0.967778
0.967506
0.967273
0.967123
0.966982
0.94677
0.946948
0.947401
0.948309
0.949553
0.951049
0.952815
0.954908
0.957347
0.960075
0.962563
0.964301
0.965352
0.96591
0.966134
0.966127
0.965983
0.965839
0.965735
0.965615
0.941589
0.941731
0.942175
0.943125
0.944466
0.946104
0.948065
0.950444
0.953299
0.956597
0.959696
0.961958
0.963445
0.964353
0.964847
0.96505
0.965043
0.964987
0.964927
0.964825
0.936078
0.936188
0.936634
0.937642
0.939112
0.940941
0.943182
0.945938
0.949285
0.95325
0.957124
0.960088
0.96211
0.963409
0.964191
0.96462
0.96478
0.964827
0.964812
0.964723
0.930153
0.930219
0.930676
0.931765
0.93341
0.93549
0.938082
0.941344
0.9454
0.950269
0.955057
0.958767
0.961394
0.963179
0.96433
0.965002
0.965359
0.965511
0.965539
0.965462
0.923616
0.923684
0.924158
0.925318
0.927136
0.929494
0.932499
0.936333
0.941167
0.947078
0.953034
0.957771
0.9612
0.963602
0.965249
0.966302
0.966911
0.967198
0.967271
0.9672
0.916251
0.916294
0.916805
0.918067
0.920139
0.922892
0.926468
0.931104
0.93701
0.944274
0.951623
0.95751
0.961824
0.964934
0.96716
0.968658
0.969579
0.970027
0.970143
0.97007
0.90771
0.907741
0.908316
0.909736
0.912114
0.915358
0.91964
0.925254
0.932467
0.941388
0.950455
0.957777
0.963223
0.967203
0.970116
0.972131
0.97343
0.974057
0.974212
0.974129
0.897462
0.897491
0.898158
0.899824
0.902642
0.906561
0.911795
0.918706
0.927596
0.938575
0.949728
0.958736
0.965477
0.970467
0.974181
0.976803
0.978511
0.979323
0.979515
0.979415
0.884877
0.88491
0.885728
0.887774
0.891251
0.896132
0.902672
0.911303
0.922352
0.935894
0.949532
0.960521
0.968757
0.974897
0.979492
0.98279
0.984923
0.985918
0.986144
0.986023
0.869175
0.869215
0.870266
0.87289
0.877327
0.883559
0.891878
0.902778
0.916571
0.933246
0.94986
0.963158
0.973123
0.980578
0.986185
0.990218
0.992807
0.99399
0.994248
0.994106
0.849251
0.849309
0.850726
0.854245
0.860113
0.868296
0.87911
0.893058
0.910366
0.930864
0.950937
0.966857
0.978768
0.987693
0.99443
0.999292
1.00237
1.00374
1.00402
1.00385
0.823361
0.823463
0.825511
0.830479
0.838607
0.849663
0.864026
0.882047
0.903774
0.928837
0.95288
0.971734
0.985797
0.996369
1.00436
1.01017
1.01376
1.0153
1.0156
1.0154
0.788494
0.788739
0.79207
0.799683
0.811586
0.827109
0.846513
0.869907
0.897081
0.927456
0.955924
0.977957
0.994338
1.00669
1.0161
1.02293
1.02703
1.02871
1.02899
1.02875
0.738869
0.740001
0.746675
0.759727
0.778161
0.800556
0.826919
0.85711
0.890723
0.927036
0.96025
0.985628
1.00444
1.01868
1.0296
1.03747
1.04206
1.04383
1.04406
1.04378
0.665767
0.673348
0.688675
0.71172
0.739836
0.771383
0.806258
0.844293
0.885085
0.927926
0.96636
0.995493
1.01711
1.03362
1.04636
1.05547
1.06073
1.06275
1.06303
1.0628
0.587773
0.604697
0.629394
0.663005
0.701238
0.742101
0.785605
0.831722
0.880167
0.930348
0.975125
1.00916
1.03461
1.05415
1.06928
1.08022
1.08642
1.08871
1.0891
1.08905
0.522683
0.542613
0.575215
0.617589
0.664632
0.714239
0.76608
0.820095
0.876005
0.93326
0.984042
1.0226
1.05146
1.07359
1.09058
1.10264
1.10962
1.11249
1.11289
1.11291
0.469713
0.491589
0.52936
0.577936
0.631843
0.688707
0.747871
0.809122
0.872035
0.935994
0.992359
1.03497
1.06667
1.09079
1.10914
1.12237
1.13044
1.13337
1.13388
1.13397
0.426005
0.44898
0.490277
0.54365
0.60302
0.665812
0.731218
0.798859
0.86814
0.938276
0.999758
1.04592
1.08001
1.10579
1.1254
1.13954
1.14822
1.15156
1.15226
1.15238
0.388824
0.41245
0.456438
0.513527
0.57735
0.645145
0.715948
0.789236
0.864266
0.940046
1.00617
1.05547
1.0916
1.11872
1.13924
1.15399
1.1631
1.16688
1.16778
1.16791
0.356137
0.380207
0.426274
0.486407
0.553965
0.626072
0.701634
0.779998
0.860267
0.941241
1.01162
1.06374
1.10163
1.12983
1.151
1.16621
1.17557
1.17968
1.18071
1.18085
0.326439
0.350928
0.398675
0.461384
0.532157
0.608026
0.687843
0.770821
0.85593
0.941774
1.01617
1.07092
1.1104
1.13952
1.16117
1.17669
1.18629
1.19055
1.19161
1.1917
0.298793
0.323663
0.372933
0.437824
0.511405
0.590599
0.674232
0.761434
0.851066
0.941545
1.01983
1.07714
1.11814
1.14812
1.17022
1.18591
1.19558
1.19992
1.20105
1.2011
0.272453
0.29775
0.348459
0.415241
0.49134
0.573492
0.660568
0.751648
0.845521
0.940463
1.0226
1.08251
1.12508
1.15595
1.17852
1.19442
1.20409
1.20843
1.2096
1.20968
0.247115
0.272859
0.324604
0.393342
0.471692
0.556505
0.646697
0.741339
0.839193
0.938461
1.02448
1.08712
1.13141
1.16327
1.18637
1.20249
1.21221
1.21648
1.21759
1.21762
0.222408
0.248756
0.301488
0.371936
0.452292
0.539499
0.63252
0.730432
0.832016
0.935481
1.02547
1.09103
1.13723
1.17025
1.19399
1.21039
1.22016
1.22436
1.22534
1.2253
0.198242
0.225056
0.278945
0.350897
0.433056
0.522417
0.617991
0.718894
0.82396
0.931491
1.02552
1.09426
1.14262
1.17699
1.20148
1.2182
1.22797
1.23204
1.2329
1.23278
0.174527
0.201927
0.256825
0.330159
0.413957
0.505246
0.603109
0.706724
0.815019
0.926454
1.02459
1.09675
1.14757
1.18352
1.20888
1.22593
1.23564
1.2395
1.24021
1.24002
0.151209
0.179236
0.235093
0.30972
0.394988
0.488003
0.587908
0.69396
0.805205
0.920333
1.02257
1.0984
1.15207
1.18989
1.21625
1.23362
1.24316
1.24671
1.24724
1.247
0.128292
0.157009
0.213806
0.289608
0.376196
0.470731
0.572445
0.680654
0.794556
0.913108
1.01938
1.09911
1.15601
1.19613
1.22369
1.24128
1.25046
1.25357
1.25389
1.25361
0.105952
0.135313
0.193008
0.269868
0.357631
0.453506
0.55679
0.666892
0.78314
0.904814
1.01498
1.09873
1.15926
1.20221
1.23137
1.24912
1.25756
1.25998
1.26007
1.25977
0.0842298
0.114196
0.172731
0.25056
0.33936
0.436396
0.541041
0.65276
0.771049
0.895494
1.0093
1.09711
1.1616
1.20803
1.23948
1.25756
1.26475
1.26594
1.26567
1.26539
0.063066
0.0937123
0.153019
0.231728
0.321449
0.419489
0.525291
0.638369
0.758386
0.885223
1.00231
1.09409
1.16276
1.21327
1.24808
1.26737
1.27305
1.27193
1.27068
1.2706
0.0426431
0.0738816
0.133938
0.213443
0.303964
0.402871
0.509639
0.623836
0.745275
0.874111
0.994028
1.08956
1.16242
1.21739
1.25676
1.27916
1.28456
1.28046
1.2764
1.27538
0.022876
0.0547114
0.115478
0.19568
0.286873
0.386496
0.494028
0.609097
0.731641
0.862087
0.984317
1.08326
1.16028
1.21967
1.26438
1.2924
1.30114
1.2971
1.28631
1.27482
0.00384232
0.0362166
0.0975084
0.178246
0.26988
0.370022
0.478032
0.593654
0.716924
0.848485
0.972489
1.07432
1.15566
1.21899
1.26842
1.3033
1.31652
1.30795
1.28937
1.27867
-0.0142799
0.0183877
0.0802057
0.161366
0.253264
0.353782
0.461878
0.577843
0.701451
0.833598
0.95871
1.06236
1.14805
1.21433
1.26387
1.29881
1.3156
1.29498
1.22706
1.19569
-0.0310292
3.40138e-05
0.0639528
0.145621
0.237755
0.33829
0.445858
0.561916
0.685475
0.817589
0.94302
1.04713
1.1365
1.20559
1.24671
1.27358
1.27382
1.22378
1.15322
1.11039
-0.0816009
-0.0170421
0.0489988
0.130126
0.222145
0.322309
0.429995
0.545656
0.668694
0.800071
0.92493
1.02834
1.11759
1.19344
1.20506
1.21284
1.17635
1.11221
1.03617
0.993806
-0.0487227
-0.0318521
0.0269738
0.10781
0.19903
0.298904
0.405699
0.520513
0.642291
0.771768
0.89405
0.994944
1.07503
1.15294
1.15016
1.04545
0.945598
0.875313
0.803414
0.839042
-0.0805995
-0.0503582
0.00973272
0.0899565
0.181246
0.280781
0.38768
0.501772
0.622383
0.749896
0.869124
0.966132
1.03823
1.07969
1.03662
0.894696
0.771239
0.682677
0.585357
0.639809
-0.104861
-0.0721951
-0.0103595
0.0701047
0.161448
0.26085
0.367581
0.480768
0.599886
0.724877
0.840217
0.931644
0.993917
1.00261
0.901214
0.7323
0.583078
0.466203
0.338165
0.376642
-0.128622
-0.0945885
-0.0314329
0.0498289
0.141345
0.240607
0.346802
0.458956
0.576393
0.698526
0.8092
0.894287
0.941396
0.918416
0.763319
0.569222
0.383136
0.214603
0.0257741
0.0225582
-0.151857
-0.117406
-0.0533432
0.0286228
0.120362
0.219434
0.324976
0.435989
0.551513
0.670457
0.775915
0.853853
0.883282
0.825124
0.632132
0.420213
0.205767
0.0215997
-0.233874
-0.511041
-0.175401
-0.14093
-0.0763725
0.00609061
0.0980647
0.197004
0.301967
0.411825
0.525359
0.640922
0.740977
0.810639
0.821841
0.71302
0.517467
0.3024
0.0934416
-0.0752634
-0.15258
-0.275986
-0.200176
-0.165647
-0.100843
-0.0181124
0.0739606
0.172681
0.276974
0.385516
0.49676
0.60847
0.702709
0.76235
0.7486
0.604396
0.415107
0.216854
0.0451582
-0.0486587
-0.0717331
-0.0891787
-0.22647
-0.191878
-0.126909
-0.0440691
0.0479254
0.146267
0.249658
0.35659
0.465138
0.572368
0.660357
0.707332
0.673415
0.502482
0.322405
0.149706
0.017738
-0.0209527
-0.0345422
-0.0357988
-0.254492
-0.219776
-0.154619
-0.0717612
0.020023
0.117774
0.220021
0.325014
0.430437
0.532608
0.613632
0.646668
0.594443
0.407187
0.23677
0.0835171
0.00156275
-0.0143853
-0.0156319
-0.0155877
-0.284275
-0.249335
-0.183984
-0.101167
-0.00973974
0.0872348
0.188083
0.290797
0.392673
0.48929
0.56227
0.583895
0.496832
0.319578
0.157238
0.0333582
-0.00342051
-0.00520544
-0.00550529
-0.0049796
-0.315513
-0.280397
-0.214877
-0.132176
-0.0412476
0.054735
0.15391
0.253999
0.351891
0.442516
0.506881
0.512598
0.401935
0.237128
0.0924164
0.0128315
0.00288484
0.00095356
0.00049671
0.000734637
-0.347627
-0.312437
-0.247033
-0.164543
-0.0742814
0.0204728
0.117695
0.214802
0.308301
0.392493
0.448594
0.436845
0.315646
0.162919
0.0406424
0.0122831
0.00243931
0.00327969
0.00460808
0.0051325
-0.38015
-0.344966
-0.279925
-0.197848
-0.108457
-0.0151807
0.0797754
0.173553
0.262255
0.339863
0.387175
0.362168
0.23312
0.0961547
-0.00266098
-0.0228023
-0.00604868
0.00444642
0.00817916
0.00933357
-0.412276
-0.377325
-0.312722
-0.231433
-0.143192
-0.0516864
0.0406839
0.130803
0.214312
0.285379
0.323141
0.288992
0.155573
0.0453571
-0.0343727
-0.0206537
-0.0114505
-0.00534605
-2.29596e-05
0.00292018
-0.442383
-0.408371
-0.344543
-0.264383
-0.177653
-0.0882598
0.00119102
0.0873546
0.16534
0.2296
0.261226
0.210965
0.0804876
0.00393064
-0.0239904
-0.0414507
-0.0316984
-0.0224972
-0.0196079
-0.0178214
-0.469075
-0.436019
-0.37431
-0.295544
-0.210758
-0.123842
-0.0376821
0.0442646
0.116628
0.173305
0.203676
0.128699
-0.00142193
-0.0331395
-0.0118531
-0.0552324
-0.0686103
-0.0726479
-0.0749356
-0.0742885
-0.490352
-0.459139
-0.399816
-0.323479
-0.241186
-0.157185
-0.0746072
0.0028718
0.0697415
0.117903
0.146674
0.049413
-0.108127
-0.200672
-0.185641
-0.213286
-0.247637
-0.262003
-0.251293
-0.241107
-0.504276
-0.475687
-0.419563
-0.346362
-0.267285
-0.186774
-0.108069
-0.0351292
0.026362
0.0658318
0.0895974
-0.030107
-0.220372
-0.509335
-0.55012
-0.440764
-0.437441
-0.435865
-0.423229
-0.418079
-0.508372
-0.483605
-0.431746
-0.362524
-0.287344
-0.210862
-0.136252
-0.0677072
-0.0114573
0.0212433
0.0340112
-0.100238
-0.223431
-0.269933
-0.276768
-0.362349
-0.461924
-0.453541
-0.451353
-0.45144
-0.501087
-0.480775
-0.434409
-0.370414
-0.299837
-0.227766
-0.157204
-0.0925861
-0.0408494
-0.0121827
-0.0184021
-0.129038
-0.155829
0.055698
0.177922
-0.153149
-0.398063
-0.429562
-0.448716
-0.453786
-0.480349
-0.464574
-0.426037
-0.368898
-0.30375
-0.236177
-0.169283
-0.107222
-0.0577772
-0.0331987
-0.0541025
-0.202048
-0.470891
-0.847318
-1.28313
-1.58417
-1.4994
-1.12458
-0.840227
-0.801487
-0.447938
-0.437274
-0.407096
-0.358198
-0.298873
-0.235575
-0.171338
-0.110022
-0.058527
-0.0316314
-0.0549125
-0.273204
-0.854444
-1.66998
-2.12031
-2.35027
-2.25585
-1.98059
-1.67416
-1.50044
-0.408627
-0.4024
-0.381215
-0.340399
-0.286748
-0.226672
-0.163283
-0.10011
-0.0416851
-7.34125e-05
0.00112364
-0.134347
-0.445291
-0.805001
-1.11806
-1.17408
-1.00188
-0.757215
-0.54324
-0.418917
-0.369227
-0.365774
-0.353195
-0.320027
-0.270395
-0.211825
-0.14714
-0.0779528
-0.00830063
0.0650203
0.125145
0.211233
0.317982
0.580118
0.913987
1.2787
1.58708
1.786
1.89484
1.93805
-0.335939
-0.333922
-0.327298
-0.30147
-0.254787
-0.194759
-0.12656
-0.04935
0.036837
0.136035
0.261596
0.419465
0.776794
1.32477
1.94473
2.49849
2.91335
3.16283
3.27068
3.2991
-0.305518
-0.30496
-0.303036
-0.285467
-0.241881
-0.179847
-0.106746
-0.0238801
0.0723461
0.182974
0.310248
0.446991
0.695938
1.21909
1.78705
2.29018
2.65987
2.87366
2.9713
3.00018
-0.279353
-0.278878
-0.278577
-0.268482
-0.230036
-0.166889
-0.0901522
-0.00396713
0.0914802
0.200073
0.313554
0.436423
0.583902
0.971874
1.44053
1.82611
2.12157
2.29843
2.37849
2.40075
-0.258829
-0.257466
-0.257204
-0.252295
-0.218059
-0.153306
-0.0742716
0.0121534
0.104202
0.207649
0.3119
0.416259
0.522267
0.75239
1.08978
1.37907
1.59505
1.71954
1.77425
1.78758
-0.248752
-0.248899
-0.251284
-0.24654
-0.207215
-0.13558
-0.0536752
0.030856
0.118062
0.211964
0.29942
0.377992
0.450862
0.605187
0.832042
1.02596
1.16974
1.25256
1.28918
1.29661
-0.22604
-0.230432
-0.235081
-0.226283
-0.180697
-0.104411
-0.0237088
0.0548424
0.13255
0.212896
0.284767
0.342781
0.397128
0.493866
0.648855
0.775239
0.865096
0.915756
0.936603
0.939772
-0.143208
-0.149252
-0.154774
-0.145315
-0.105183
-0.0431293
0.0228447
0.0874135
0.151301
0.216668
0.273789
0.314027
0.348931
0.410524
0.512765
0.596022
0.65344
0.683596
0.695635
0.696621
-0.000904273
-0.00478344
-0.00866476
-0.00449888
0.0161573
0.0486717
0.0871385
0.129386
0.174947
0.22386
0.265836
0.292804
0.314974
0.354804
0.419371
0.474552
0.510941
0.530309
0.537841
0.537685
0.142559
0.140869
0.137597
0.133756
0.13394
0.139582
0.152809
0.173084
0.200636
0.234093
0.264323
0.284778
0.299532
0.328192
0.368938
0.402978
0.425034
0.436344
0.440318
0.439586
0.239498
0.238794
0.235575
0.227474
0.215969
0.207225
0.205086
0.210808
0.224829
0.246428
0.268763
0.28587
0.298399
0.320223
0.347642
0.366936
0.37877
0.384366
0.385964
0.38498
0.287135
0.286607
0.283595
0.275329
0.262386
0.24972
0.241211
0.239055
0.244637
0.258059
0.275586
0.29178
0.305367
0.321163
0.337771
0.34956
0.356589
0.359783
0.360571
0.359435
0.303929
0.303442
0.301051
0.294645
0.284099
0.272598
0.263183
0.258145
0.259082
0.267208
0.281729
0.298546
0.315088
0.327277
0.335183
0.341848
0.346671
0.349821
0.350779
0.349598
0.305879
0.305434
0.303671
0.299291
0.291903
0.283183
0.275091
0.269593
0.268164
0.272732
0.284418
0.30173
0.319881
0.328988
0.332098
0.336704
0.341815
0.345666
0.347062
0.345762
0.302348
0.301956
0.300673
0.297773
0.292896
0.286723
0.280382
0.275258
0.272574
0.274043
0.281804
0.29616
0.312338
0.317384
0.318911
0.325513
0.333459
0.339571
0.341602
0.340004
0.297734
0.297398
0.296436
0.294415
0.291186
0.286847
0.28197
0.277298
0.273542
0.271485
0.272829
0.278992
0.286958
0.287681
0.291929
0.303102
0.314743
0.32291
0.325473
0.323828
0.293632
0.293357
0.292619
0.291047
0.288638
0.285565
0.281705
0.277331
0.272472
0.266712
0.259806
0.252468
0.246306
0.244407
0.254656
0.270357
0.284128
0.292691
0.29519
0.293926
0.290185
0.289984
0.289465
0.288248
0.286354
0.283801
0.280801
0.276809
0.271288
0.262452
0.246766
0.223323
0.200829
0.198701
0.216326
0.23602
0.249934
0.257032
0.258506
0.257414
0.286796
0.286694
0.286438
0.28568
0.284228
0.282424
0.279943
0.276945
0.272394
0.262117
0.241419
0.20608
0.169783
0.170435
0.192396
0.210632
0.2211
0.225358
0.226038
0.225365
0.282424
0.282428
0.282446
0.28225
0.281382
0.28053
0.279812
0.278431
0.275353
0.268114
0.248513
0.211124
0.176733
0.179018
0.192773
0.201296
0.203618
0.204335
0.204931
0.204896
0.275808
0.275955
0.276364
0.27702
0.277568
0.277972
0.278969
0.280267
0.281052
0.278126
0.267115
0.242097
0.217991
0.215239
0.216349
0.210029
0.204708
0.201839
0.2006
0.199985
0.265709
0.265983
0.266715
0.267791
0.269485
0.272304
0.276171
0.281458
0.287863
0.293363
0.294316
0.284279
0.27507
0.262948
0.242025
0.224119
0.211629
0.204605
0.201945
0.20159
0.250206
0.250694
0.25201
0.254398
0.257897
0.263063
0.270654
0.280286
0.292739
0.305801
0.317972
0.321296
0.317902
0.294197
0.26348
0.23729
0.219533
0.209318
0.206171
0.206385
0.226462
0.227188
0.229187
0.232861
0.238543
0.246702
0.257788
0.272727
0.29011
0.30979
0.325381
0.333991
0.330648
0.29865
0.267653
0.248903
0.234253
0.223242
0.217926
0.218128
0.191792
0.192764
0.19552
0.20082
0.209041
0.220303
0.234808
0.252348
0.273013
0.29332
0.310618
0.313302
0.300892
0.270437
0.256328
0.246125
0.243807
0.2354
0.23058
0.230907
0.144089
0.145008
0.148341
0.155091
0.165405
0.179075
0.195685
0.213299
0.229866
0.244494
0.257614
0.255162
0.233619
0.207165
0.211412
0.231687
0.23632
0.226016
0.221004
0.220168
0.0837178
0.0846242
0.0879087
0.0942861
0.103632
0.115975
0.130357
0.143002
0.146165
0.147996
0.164349
0.161936
0.131753
0.120961
0.138961
0.164691
0.169538
0.161581
0.157994
0.157064
0.0182667
0.0179719
0.0179905
0.0181835
0.0196796
0.0221716
0.025179
0.0257681
0.0191045
0.0187154
0.03448
0.0485898
0.0483182
0.0329825
0.0335319
0.0315393
0.0266466
0.0385423
0.0376956
0.0378329
0.224436
0.420656
0.631837
0.807348
0.948364
1.06064
1.15459
1.23312
1.26491
1.24886
0.566383
0.695537
0.830199
0.94667
1.04516
1.12712
1.1931
1.23929
1.2634
1.27608
0.796302
0.883519
0.974831
1.05629
1.12634
1.18488
1.23121
1.26528
1.29013
1.30786
0.962048
1.0235
1.08797
1.14721
1.19855
1.24203
1.27768
1.30639
1.32953
1.3477
1.09145
1.13568
1.18403
1.22873
1.26852
1.30319
1.33286
1.35778
1.37797
1.39586
1.1977
1.23165
1.27117
1.30747
1.34073
1.37059
1.39671
1.41881
1.43611
1.45368
1.29172
1.32117
1.35589
1.38865
1.41904
1.44664
1.47082
1.49092
1.50571
1.52315
1.38125
1.41103
1.4454
1.4779
1.50782
1.53469
1.55784
1.57644
1.58922
1.60668
1.47718
1.5109
1.54759
1.58154
1.61178
1.6381
1.66014
1.67733
1.68886
1.70667
1.59248
1.63108
1.66944
1.70382
1.73319
1.75796
1.77832
1.79409
1.80547
1.82382
1.73746
1.77706
1.81259
1.84304
1.86867
1.89078
1.90983
1.92539
1.93807
1.9562
1.91218
1.94438
1.97022
1.99256
2.01263
2.0314
2.04905
2.06562
2.08138
2.09958
2.09983
2.11745
2.13304
2.14966
2.16583
2.18039
2.19343
2.20742
2.22451
2.2442
2.28158
2.2925
2.30466
2.31546
2.32473
2.3343
2.3452
2.3568
2.36676
2.38193
2.49255
2.49458
2.47943
2.4642
2.45784
2.46352
2.48213
2.51255
2.54469
2.57544
2.79845
2.66141
2.58513
2.54307
2.52564
2.52967
2.55704
2.61318
2.71664
2.93193
1.08184
1.07846
1.07253
1.06272
1.04977
1.03733
1.02701
1.01903
1.01334
1.01
1.00956
1.01222
1.01728
1.02448
1.03389
1.04555
1.05866
1.07064
1.07809
1.08281
0.999863
1.00575
1.01265
1.01788
1.02072
1.02038
1.01746
1.01351
1.0099
1.00755
1.0073
1.00942
1.01304
1.01734
1.02125
1.02322
1.02209
1.01798
1.01208
1.00503
0.992234
0.994581
0.997925
1.00083
1.00303
1.00482
1.00575
1.00546
1.00438
1.00342
1.00349
1.00482
1.00656
1.00777
1.00777
1.00656
1.00473
1.00236
0.99919
0.99622
0.987124
0.98821
0.990072
0.992446
0.994395
0.995769
0.99684
0.997658
0.99807
0.998235
0.998617
0.999292
0.999741
0.999632
0.999047
0.998126
0.996684
0.994596
0.992463
0.991042
0.982073
0.982728
0.983833
0.985546
0.98734
0.988939
0.990176
0.991157
0.992011
0.992737
0.993342
0.993729
0.99376
0.993462
0.992823
0.99173
0.99024
0.988625
0.987274
0.986484
0.977208
0.977662
0.978443
0.979734
0.98122
0.982737
0.984175
0.985411
0.986469
0.987421
0.988183
0.988568
0.988556
0.988161
0.987362
0.986269
0.985056
0.98386
0.982913
0.982386
0.972492
0.972832
0.97344
0.974504
0.975787
0.977152
0.978572
0.979973
0.981259
0.982402
0.983322
0.983807
0.983797
0.983352
0.982599
0.981694
0.980743
0.979802
0.979087
0.978699
0.96789
0.968153
0.968645
0.969556
0.970722
0.972007
0.973377
0.974821
0.976277
0.977647
0.97877
0.979378
0.979431
0.979085
0.978499
0.977781
0.977003
0.976261
0.975715
0.975418
0.963337
0.963544
0.963954
0.96476
0.965853
0.967092
0.968445
0.96992
0.971486
0.973062
0.974425
0.975234
0.975468
0.975315
0.974918
0.974376
0.973762
0.973182
0.972764
0.972531
0.958759
0.958923
0.959274
0.960011
0.961063
0.962283
0.963656
0.965191
0.966878
0.968668
0.970315
0.971408
0.971905
0.971988
0.97179
0.971424
0.970974
0.970532
0.970219
0.970034
0.954088
0.954217
0.954525
0.955222
0.956267
0.957515
0.958955
0.960605
0.962469
0.964507
0.966497
0.967968
0.968783
0.96912
0.969133
0.968938
0.968637
0.968318
0.96809
0.967945
0.949264
0.949364
0.949641
0.950323
0.951394
0.952713
0.954264
0.95609
0.958212
0.960603
0.963033
0.964935
0.966098
0.966714
0.966956
0.966946
0.966792
0.966587
0.966431
0.966318
0.94422
0.944293
0.944551
0.94524
0.946368
0.947792
0.949484
0.951521
0.953961
0.956796
0.959774
0.962203
0.963795
0.964763
0.965285
0.965494
0.965488
0.965396
0.965307
0.965221
0.938886
0.938934
0.939177
0.939884
0.941089
0.942647
0.944536
0.946847
0.949653
0.953011
0.956659
0.959758
0.961908
0.963315
0.964158
0.964616
0.964796
0.964832
0.964813
0.964754
0.93317
0.933186
0.933424
0.934174
0.935499
0.937248
0.939406
0.942101
0.94544
0.949485
0.953964
0.957872
0.960654
0.962532
0.963743
0.964458
0.964867
0.965041
0.965089
0.965053
0.926981
0.926991
0.927209
0.927995
0.929439
0.9314
0.93387
0.937008
0.940975
0.945882
0.951397
0.95627
0.959842
0.962361
0.964049
0.96513
0.965818
0.966159
0.966285
0.966271
0.920052
0.920027
0.920279
0.921123
0.922717
0.924928
0.927806
0.931523
0.936273
0.942212
0.948991
0.955104
0.959636
0.962893
0.965181
0.966763
0.967793
0.968348
0.968564
0.968567
0.912154
0.912109
0.91238
0.913315
0.915106
0.917674
0.921085
0.92556
0.931357
0.938662
0.947008
0.954541
0.960202
0.964339
0.967322
0.969463
0.970899
0.971713
0.972023
0.972036
0.902818
0.902757
0.903075
0.904153
0.90621
0.909231
0.91332
0.918747
0.925823
0.934769
0.945043
0.954367
0.961418
0.966627
0.970456
0.973257
0.975188
0.97629
0.976698
0.976714
0.89146
0.891381
0.89178
0.89308
0.895549
0.899241
0.904286
0.911021
0.91981
0.930879
0.943503
0.954914
0.963537
0.969971
0.974744
0.978276
0.980743
0.982143
0.982646
0.982663
0.877386
0.877288
0.87782
0.879468
0.882547
0.887188
0.893549
0.902024
0.913011
0.926723
0.942205
0.956094
0.966586
0.974419
0.980287
0.984645
0.987687
0.989391
0.989987
0.990003
0.859668
0.859552
0.860297
0.862473
0.866458
0.872483
0.880694
0.891542
0.905414
0.922436
0.941339
0.95811
0.970725
0.980149
0.987242
0.992512
0.996195
0.998221
0.998907
0.998919
0.836919
0.836798
0.837902
0.840908
0.846294
0.854368
0.865243
0.879353
0.896985
0.9181
0.941044
0.9611
0.976091
0.987301
0.99576
1.00206
1.00645
1.00881
1.00957
1.00957
0.806855
0.806771
0.808525
0.812948
0.82066
0.831943
0.846753
0.865351
0.887827
0.913906
0.941512
0.965229
0.982827
0.995983
1.00595
1.01344
1.01857
1.02124
1.02207
1.02205
0.765344
0.765446
0.76861
0.775959
0.78793
0.804481
0.825114
0.849775
0.878298
0.910202
0.94301
0.970676
0.991039
1.00628
1.01789
1.02667
1.03255
1.03546
1.03632
1.03626
0.704691
0.705946
0.71362
0.727481
0.74723
0.772134
0.800918
0.833297
0.86898
0.907395
0.945764
0.977536
1.00075
1.01814
1.03144
1.04144
1.04802
1.05117
1.05196
1.05186
0.632098
0.634388
0.649031
0.672912
0.703448
0.738117
0.775822
0.816485
0.859912
0.90561
0.950577
0.987643
1.01485
1.03539
1.05113
1.06278
1.07047
1.0741
1.0751
1.07509
0.557795
0.564595
0.58615
0.620035
0.66072
0.704927
0.751538
0.800515
0.851759
0.904848
0.956588
0.999152
1.0305
1.05428
1.07264
1.08638
1.09522
1.09874
1.0997
1.09988
0.497967
0.50654
0.532769
0.573545
0.621956
0.674155
0.72874
0.785475
0.84416
0.90433
0.962513
1.01016
1.04515
1.07162
1.09186
1.10687
1.11631
1.12073
1.12237
1.12265
0.449333
0.458478
0.488147
0.533825
0.588107
0.646682
0.707926
0.771472
0.836926
0.903689
0.967861
1.02011
1.05825
1.08687
1.10867
1.12486
1.13546
1.14057
1.14249
1.14282
0.408775
0.41812
0.450076
0.499498
0.558457
0.622233
0.689096
0.758559
0.830052
0.902819
0.972482
1.02886
1.06971
1.10016
1.12322
1.14035
1.15177
1.15746
1.15961
1.15996
0.373677
0.383104
0.416765
0.469196
0.531931
0.600079
0.671805
0.746483
0.823412
0.901651
0.976339
1.03644
1.07965
1.1116
1.13562
1.15345
1.16535
1.17152
1.17382
1.17421
0.342367
0.351836
0.38679
0.441729
0.507622
0.579516
0.655517
0.734877
0.81676
0.900051
0.979415
1.04295
1.08828
1.12152
1.1463
1.16459
1.17682
1.18335
1.18575
1.18615
0.313588
0.323122
0.359186
0.416254
0.484839
0.560001
0.639794
0.723389
0.809833
0.897867
0.981679
1.0485
1.09584
1.13025
1.15569
1.1743
1.18677
1.19343
1.19582
1.19624
0.286519
0.296118
0.333195
0.392108
0.463097
0.541148
0.62432
0.71176
0.802433
0.894957
0.983086
1.05316
1.1025
1.13806
1.16413
1.18306
1.19563
1.20237
1.20477
1.20508
0.260627
0.27035
0.308369
0.368822
0.442041
0.52267
0.608883
0.699823
0.794417
0.891213
0.983585
1.05696
1.1084
1.14522
1.17197
1.19124
1.20395
1.21067
1.21305
1.21332
0.235508
0.245438
0.284255
0.346242
0.421431
0.504374
0.593336
0.687466
0.7857
0.886561
0.983136
1.05995
1.11367
1.15189
1.17945
1.19912
1.21198
1.21868
1.22097
1.22123
0.210961
0.221127
0.260717
0.324211
0.401136
0.48615
0.577594
0.674631
0.776226
0.880958
0.981712
1.06214
1.11837
1.1582
1.18671
1.20687
1.2199
1.22655
1.22872
1.22892
0.186925
0.197327
0.237763
0.302574
0.381081
0.467966
0.561633
0.661297
0.765984
0.874371
0.979265
1.06349
1.12251
1.16419
1.19381
1.21453
1.22771
1.23425
1.23624
1.23637
0.163317
0.174036
0.215227
0.281291
0.361243
0.449807
0.54546
0.647484
0.754989
0.866796
0.975731
1.06391
1.12603
1.16989
1.20081
1.22214
1.23542
1.24177
1.24353
1.24356
0.140174
0.151193
0.193164
0.260374
0.341641
0.431702
0.529123
0.633243
0.743277
0.858227
0.971052
1.06329
1.12886
1.17528
1.20777
1.22975
1.243
1.249
1.25048
1.25042
0.117477
0.128831
0.171609
0.239869
0.322317
0.413701
0.512678
0.618645
0.730914
0.848699
0.965198
1.06154
1.13086
1.18031
1.21477
1.2375
1.2505
1.25589
1.257
1.25685
0.0954351
0.107041
0.150596
0.219824
0.303333
0.395887
0.4962
0.60377
0.717986
0.838283
0.958162
1.05855
1.13184
1.18483
1.22189
1.24567
1.25813
1.26245
1.26299
1.26275
0.0739217
0.085882
0.130168
0.200277
0.284732
0.378308
0.47979
0.588711
0.704592
0.827076
0.949962
1.05421
1.1316
1.18858
1.22906
1.25467
1.26658
1.26905
1.26844
1.26805
0.0531045
0.0653915
0.110361
0.18129
0.2666
0.361054
0.463535
0.573593
0.690849
0.815157
0.940651
1.04846
1.12993
1.19119
1.23594
1.26479
1.27709
1.27721
1.27401
1.27262
0.0329424
0.0455315
0.0912381
0.162921
0.248982
0.344198
0.447521
0.558502
0.676876
0.802673
0.930326
1.04123
1.12666
1.1922
1.24171
1.2755
1.2908
1.29043
1.28328
1.27306
0.0135147
0.0263389
0.0727133
0.145015
0.231662
0.327451
0.431401
0.543017
0.662199
0.789086
0.918419
1.03187
1.1212
1.19099
1.24519
1.28522
1.30689
1.30956
1.29997
1.29292
-0.00511777
0.00783568
0.0547838
0.127628
0.214663
0.310823
0.415205
0.527125
0.646789
0.774297
0.904777
1.02006
1.11292
1.18685
1.24393
1.28833
1.31337
1.32101
1.28475
1.23591
-0.0226705
-0.00930167
0.0374891
0.110854
0.197933
0.294222
0.398913
0.510954
0.630717
0.758375
0.889359
1.00563
1.10084
1.17942
1.23603
1.27386
1.29975
1.28839
1.2313
1.16766
-0.0409517
-0.0249512
0.021162
0.095251
0.181723
0.278023
0.38225
0.494562
0.61411
0.741484
0.87217
0.988497
1.08371
1.16983
1.22007
1.26773
1.24417
1.20407
1.13533
1.06691
-0.0283784
-0.00803963
0.0414401
0.119857
0.211337
0.3115
0.421118
0.536512
0.659168
0.790003
0.914301
1.01726
1.10458
1.19453
1.23734
1.16665
1.1225
1.06118
0.989195
0.941229
-0.0482605
-0.0350679
0.0018447
0.0706128
0.15666
0.252419
0.356778
0.468514
0.587231
0.713292
0.841968
0.956464
1.04764
1.12985
1.19917
1.19548
1.08335
1.00188
0.940068
0.858432
-0.0698234
-0.0553897
-0.0135178
0.0565972
0.14299
0.238383
0.341547
0.452313
0.570005
0.694559
0.82132
0.9336
1.02166
1.09049
1.11863
1.04729
0.91086
0.817162
0.742908
0.655694
-0.0916196
-0.0790322
-0.0330607
0.0383372
0.124855
0.220443
0.323553
0.433977
0.550723
0.673707
0.797534
0.905272
0.986251
1.03842
1.01759
0.891068
0.742277
0.627055
0.530492
0.396976
-0.115418
-0.102633
-0.0545611
0.0180134
0.104827
0.200433
0.30341
0.413211
0.52879
0.649812
0.770162
0.872564
0.945603
0.977141
0.919551
0.739834
0.562396
0.411849
0.271972
0.0827192
-0.138503
-0.125993