/*--------------------------------*- C++ -*----------------------------------*\
| =========                 |                                                 |
| \\      /  F ield         | OpenFOAM: The Open Source CFD Toolbox           |
|  \\    /   O peration     | Version:  2306                                  |
|   \\  /    A nd           | Website:  www.openfoam.com                      |
|    \\/     M anipulation  |                                                 |
\*---------------------------------------------------------------------------*/
FoamFile
{
    version     2.0;
    format      ascii;
    arch        "LSB;label=32;scalar=64";
    class       surfaceScalarField;
    location    "34";
    object      phi;
}
// * * * * * * * * * * * * * * * * * * * * * * * * * * * * * * * * * * * * * //

dimensions      [0 3 -1 0 0 0 0];

oriented        oriented;

internalField   nonuniform List<scalar> 
17370
(
-0.0910992
0.0935438
0.286566
-0.0749518
0.0569506
0.364777
-0.0409327
0.0299476
0.427153
-0.0211901
0.0155868
0.504855
-0.0113327
0.00862906
0.602106
-0.00649343
0.00504162
0.720509
-0.00382975
0.00296931
0.863767
-0.00221599
0.00165295
1.03601
-0.001134
0.000721096
1.24292
-0.000314971
-7.75824e-05
1.49158
0.000460753
-0.000864549
1.49159
0.00126764
-0.00177474
1.2432
0.00232773
-0.00307132
1.03638
0.00392473
-0.00513001
0.864112
0.00657523
-0.0087026
0.721185
0.0113985
-0.0156443
0.60346
0.0212401
-0.029989
0.508188
0.040966
-0.0569759
0.432178
0.0749713
-0.0935552
0.365359
0.0911105
0.1979
-0.127343
0.0881388
0.0392047
-0.364733
0.353783
-0.0726354
0.083586
-0.446564
0.454364
-0.081721
0.0739208
-0.520967
0.529522
-0.0658112
0.057256
-0.612844
0.621014
-0.0495025
0.041333
-0.726996
0.733785
-0.0344025
0.0276131
-0.867514
0.872436
-0.0222757
0.0173532
-1.03855
1.04188
-0.0136521
0.0103206
-1.24471
1.24711
-0.0077813
0.00538277
-1.49283
1.49484
-0.0034248
0.00141914
-1.49269
1.49449
0.000391803
-0.00220161
-1.2441
1.24602
0.00417377
-0.00609003
-1.0376
1.04009
0.00843994
-0.0109348
-0.866162
0.869823
0.0142188
-0.0178797
-0.724484
0.729784
0.0227601
-0.0280596
-0.608892
0.615784
0.0348071
-0.0416992
-0.514991
0.522708
0.0498279
-0.0575449
-0.439772
0.447843
0.0660576
-0.0741288
-0.375163
0.377003
0.081883
-0.0837223
-0.256927
0.223438
0.0727294
-0.0392409
-0.0686419
0.0589097
0.00973221
-0.0520916
0.0587954
-0.374532
0.367829
-0.057913
0.0540888
-0.453821
0.457646
-0.0487309
0.0443914
-0.527732
0.532072
-0.0401664
0.0363831
-0.621091
0.624874
-0.0321615
0.0280994
-0.734867
0.738929
-0.0236461
0.0196758
-0.874038
0.878008
-0.0155646
0.0120682
-1.04338
1.04688
-0.00852002
0.00547111
-1.24865
1.25169
-0.00225286
-0.000736517
-1.49693
1.49992
0.00370609
-0.00687063
-1.49742
1.50059
0.00984617
-0.0133042
-1.2501
1.25356
0.0167162
-0.0207356
-1.04573
1.04975
0.024627
-0.0289987
-0.877335
0.881707
0.0329881
-0.0371307
-0.739333
0.743476
0.0408445
-0.044999
-0.626363
0.630517
0.0492806
-0.0545826
-0.534953
0.540255
0.0583476
-0.0591557
-0.457938
0.458747
0.0523627
-0.0320111
-0.336426
0.316075
0.00977803
-0.0685228
0.0587448
-0.0531477
0.0490956
0.00405208
-0.033187
0.043689
-0.358347
0.347845
-0.0474131
0.0468314
-0.459493
0.460074
-0.0438586
0.0405916
-0.536003
0.53927
-0.036883
0.0335506
-0.628419
0.631751
-0.0299933
0.0268569
-0.742232
0.745369
-0.0235306
0.0203894
-0.88155
0.884691
-0.0168207
0.0134633
-1.05036
1.05372
-0.00974978
0.00632976
-1.25498
1.2584
-0.00252524
-0.00110594
-1.50329
1.50692
0.00471008
-0.00843627
-1.50412
1.50785
0.0117508
-0.0153296
-1.25717
1.26075
0.0185571
-0.0219844
-1.05353
1.05695
0.0250068
-0.0282146
-0.885321
0.888529
0.0312483
-0.0346953
-0.746978
0.750425
0.0379288
-0.0415339
-0.634543
0.638148
0.0447135
-0.0475902
-0.544494
0.547371
0.0480734
-0.0442121
-0.456932
0.45307
0.0335483
-0.0162253
-0.296735
0.279412
0.00410687
-0.0529353
0.0488284
-0.0459702
0.0434427
0.00252755
-0.0229446
0.0333222
-0.337192
0.326815
-0.0391138
0.0401061
-0.459774
0.458781
-0.0388946
0.0365978
-0.541928
0.544225
-0.0339584
0.0313995
-0.634728
0.637287
-0.0284044
0.0255687
-0.748425
0.75126
-0.0223727
0.019417
-0.88769
0.890646
-0.0161387
0.0130605
-1.05687
1.05995
-0.00954748
0.00617088
-1.2618
1.26517
-0.00227351
-0.00152164
-1.51067
1.51446
0.00528241
-0.00907366
-1.51166
1.51545
0.0123092
-0.0156397
-1.26422
1.26756
0.0185412
-0.0216273
-1.06012
1.06321
0.0244209
-0.0274562
-0.891678
0.894714
0.0301537
-0.0330007
-0.753628
0.756475
0.0354263
-0.0379265
-0.64117
0.643671
0.0401067
-0.0411701
-0.549207
0.550271
0.0400264
-0.0340169
-0.447907
0.441898
0.0234046
-0.0102404
-0.264276
0.251112
0.00259473
-0.0456443
0.0430496
-0.041341
0.0395532
0.00178783
-0.0168723
0.0261586
-0.316933
0.307647
-0.0327815
0.0349285
-0.457182
0.455035
-0.0345163
0.0328427
-0.546209
0.547883
-0.0306488
0.0285546
-0.639563
0.641657
-0.0261539
0.02381
-0.753861
0.756205
-0.0210323
0.0183221
-0.893493
0.896204
-0.0151766
0.0121822
-1.06295
1.06595
-0.00876412
0.00549625
-1.26845
1.27172
-0.00170708
-0.0020005
-1.51821
1.52192
0.00566432
-0.00932329
-1.51919
1.52285
0.0124158
-0.0156035
-1.27082
1.27401
0.0183708
-0.0212648
-1.06623
1.06913
0.0237598
-0.0263253
-0.897516
0.900081
0.0284899
-0.0307019
-0.758942
0.761154
0.0326269
-0.0346404
-0.645892
0.647905
0.0361452
-0.0363551
-0.550859
0.551069
0.0339777
-0.0270405
-0.435336
0.428398
0.017442
-0.00736475
-0.239638
0.229561
0.00186963
-0.0408766
0.0390069
-0.0380112
0.0366677
0.00134349
-0.0128843
0.0208698
-0.29901
0.291025
-0.027648
0.0305885
-0.45245
0.449509
-0.0308127
0.029707
-0.549285
0.550391
-0.027727
0.0258267
-0.643664
0.645565
-0.0236602
0.0215766
-0.758416
0.7605
-0.0191438
0.0167414
-0.898737
0.90114
-0.0138861
0.0110874
-1.06881
1.07161
-0.00781988
0.00466377
-1.27491
1.27806
-0.000997854
-0.00257325
-1.52554
1.52911
0.00609149
-0.009598
-1.52644
1.52995
0.0125374
-0.0155163
-1.27713
1.28011
0.0180262
-0.0205575
-1.07186
1.07439
0.0226799
-0.0248375
-0.902398
0.904555
0.0266931
-0.028624
-0.763191
0.765121
0.0303141
-0.0320782
-0.649785
0.65155
0.0329404
-0.0324361
-0.550929
0.550425
0.0291699
-0.0219655
-0.421271
0.414067
0.0135823
-0.00565817
-0.220662
0.212738
0.00144299
-0.0373784
0.0359354
-0.0354922
0.0344581
0.00103406
-0.0100554
0.0168032
-0.283677
0.276929
-0.0233173
0.026716
-0.446309
0.44291
-0.0275218
0.0268491
-0.551254
0.551926
-0.0251111
0.0233577
-0.647414
0.649167
-0.0213453
0.0194043
-0.762537
0.764478
-0.0171312
0.0148964
-0.903421
0.905656
-0.012261
0.00967118
-1.07424
1.07683
-0.00662074
0.00363643
-1.2811
1.28409
-0.000141938
-0.00326153
-1.53258
1.53598
0.0066014
-0.0098961
-1.53336
1.53665
0.0126113
-0.0153029
-1.28297
1.28566
0.0175337
-0.0197656
-1.07677
1.079
0.0216492
-0.0235718
-0.906574
0.908497
0.0252245
-0.0269457
-0.766918
0.768639
0.0284431
-0.0298924
-0.653191
0.65464
0.0302623
-0.029063
-0.549595
0.548395
0.0252203
-0.0181504
-0.406905
0.399836
0.0109068
-0.00451027
-0.205648
0.199252
0.00115489
-0.034655
0.0335001
-0.0335489
0.0327458
0.000803113
-0.00794092
0.0135957
-0.270752
0.265097
-0.0196107
0.0232038
-0.439391
0.435798
-0.0244956
0.0240857
-0.552477
0.552887
-0.0226415
0.0210218
-0.650882
0.652501
-0.0191311
0.017299
-0.766389
0.768221
-0.0151421
0.0130149
-0.907801
0.909929
-0.0105065
0.00805451
-1.07929
1.08174
-0.00518566
0.00238429
-1.28694
1.28974
0.000896535
-0.00410055
-1.53927
1.54247
0.00722248
-0.0102618
-1.53982
1.54286
0.0127337
-0.0151627
-1.28825
1.29068
0.0171702
-0.0191725
-1.08115
1.08315
0.020854
-0.0225621
-0.910305
0.912013
0.0240288
-0.0255589
-0.770224
0.771754
0.0268643
-0.0279444
-0.655891
0.656971
0.0279622
-0.0261422
-0.546895
0.545075
0.0219639
-0.015243
-0.392939
0.386218
0.00897699
-0.00369442
-0.193466
0.188183
0.00094962
-0.0324633
0.0315137
-0.0320402
0.0314166
0.000623593
-0.00629329
0.0110024
-0.259937
0.255228
-0.0164022
0.0199841
-0.432199
0.428617
-0.0215984
0.0214193
-0.553199
0.553378
-0.0202174
0.0186729
-0.654114
0.655658
-0.0168618
0.015107
-0.770036
0.771791
-0.0130467
0.0110201
-0.91195
0.913976
-0.00863301
0.0063026
-1.08406
1.08639
-0.00357834
0.000930621
-1.29242
1.29507
0.00214931
-0.00512823
-1.54554
1.54852
0.00800738
-0.010787
-1.54577
1.54855
0.0130286
-0.015208
-1.29302
1.2952
0.0169865
-0.0187466
-1.08507
1.08683
0.0202151
-0.021713
-0.913611
0.915109
0.0230161
-0.0243853
-0.773154
0.774524
0.0255561
-0.0262678
-0.657859
0.65857
0.0259376
-0.0236263
-0.543035
0.540723
0.0192902
-0.0130095
-0.37973
0.373449
0.00755243
-0.00310098
-0.183358
0.178907
0.000801403
-0.0306525
0.0298511
-0.030874
0.0303975
0.000476507
-0.00494571
0.00882458
-0.250955
0.247076
-0.0135524
0.0169699
-0.425116
0.421698
-0.0187754
0.0188112
-0.553478
0.553442
-0.017841
0.0163721
-0.657222
0.658691
-0.0146263
0.0129238
-0.773537
0.775239
-0.0109199
0.00895071
-0.915898
0.917867
-0.00663851
0.00439231
-1.0886
1.09084
-0.00178244
-0.000728802
-1.29759
1.3001
0.00362058
-0.00638264
-1.55136
1.55412
0.00902068
-0.0115432
-1.5512
1.55373
0.0135573
-0.015499
-1.29731
1.29925
0.0170713
-0.0186143
-1.08852
1.09006
0.0198939
-0.0211965
-0.916501
0.917804
0.0223301
-0.0235185
-0.775747
0.776935
0.0245024
-0.0248483
-0.659078
0.659424
0.0241713
-0.0214667
-0.538252
0.535547
0.0170946
-0.0112761
-0.367426
0.361608
0.00648191
-0.00266247
-0.17481
0.17099
0.000693563
-0.0291188
0.0284252
-0.029991
0.0296414
0.000349573
-0.00379002
0.00692076
-0.243591
0.24046
-0.010945
0.0140679
-0.418436
0.415313
-0.0159206
0.0161269
-0.553355
0.553148
-0.0152819
0.0139347
-0.660164
0.661511
-0.0122416
0.0105704
-0.776936
0.778607
-0.00859805
0.00666895
-0.919726
0.921655
-0.00442238
0.00225865
-1.09295
1.09512
0.000231369
-0.00261987
-1.30249
1.30488
0.00534938
-0.00792987
-1.55676
1.55934
0.0103579
-0.0126301
-1.55613
1.5584
0.0144002
-0.0160733
-1.30111
1.30278
0.0174168
-0.0187285
-1.09153
1.09284
0.0198149
-0.0209076
-0.91901
0.920103
0.0218477
-0.0228313
-0.777985
0.778969
0.02355
-0.0236239
-0.659623
0.659697
0.0225802
-0.0195836
-0.532731
0.529734
0.0152701
-0.00990892
-0.35605
0.350689
0.00566301
-0.00233415
-0.167452
0.164123
0.000614702
-0.0277861
0.0271714
-0.0293549
0.0291207
0.000234207
-0.00275009
0.00518694
-0.237696
0.235259
-0.00849138
0.0112228
-0.412405
0.409674
-0.0129949
0.0132874
-0.552946
0.552654
-0.0125101
0.011241
-0.662895
0.664165
-0.0095717
0.00791252
-0.780275
0.781934
-0.00596362
0.00407056
-0.923454
0.925347
-0.00188331
-0.000208747
-1.09713
1.09923
0.00261249
-0.00488841
-1.30714
1.30941
0.00745105
-0.00982882
-1.56178
1.56416
0.0120198
-0.0140173
-1.56053
1.56253
0.0155332
-0.0169226
-1.30438
1.30577
0.0180032
-0.0190375
-1.09405
1.09509
0.0198873
-0.020756
-0.921093
0.921961
0.0215132
-0.0222904
-0.779816
0.780594
0.0227712
-0.0225772
-0.659615
0.659421
0.0212048
-0.0179881
-0.526667
0.52345
0.0137798
-0.00883866
-0.345577
0.340636
0.00504174
-0.00209357
-0.16102
0.158071
0.000560176
-0.0266009
0.0260407
-0.0289473
0.0288237
0.000123534
-0.00175745
0.00351923
-0.233178
0.231416
-0.00607985
0.00834388
-0.407206
0.404942
-0.00994074
0.0102666
-0.552422
0.552097
-0.00956161
0.00836861
-0.665495
0.666688
-0.00673135
0.00507564
-0.783571
0.785227
-0.00311757
0.0012161
-0.927098
0.929
0.000974024
-0.00304955
-1.10119
1.10327
0.0053964
-0.00758245
-1.31156
1.31375
0.00999362
-0.0121729
-1.56639
1.56857
0.0141204
-0.015842
-1.5644
1.56612
0.0171013
-0.0182185
-1.30707
1.30819
0.0190616
-0.0198316
-1.09603
1.0968
0.02044
-0.0210347
-0.922708
0.923302
0.021545
-0.0220657
-0.781243
0.781764
0.0221989
-0.0217345
-0.659007
0.658543
0.0200469
-0.0166467
-0.520198
0.516798
0.0125609
-0.00799678
-0.335936
0.331371
0.004571
-0.00192059
-0.155314
0.152664
0.000524482
-0.0255195
0.024995
-0.0287632
0.0287527
1.04877e-05
-0.000782806
0.00187936
-0.230005
0.228908
-0.00366915
0.00538628
-0.402998
0.401281
-0.00668995
0.00696873
-0.551893
0.551614
-0.00630836
0.00517599
-0.667953
0.669085
-0.0035475
0.00186241
-0.786848
0.788533
0.000143615
-0.00207788
-0.93076
0.932694
0.00428074
-0.00634899
-1.10521
1.10728
0.00865777
-0.0107749
-1.3158
1.31792
0.0130631
-0.0150665
-1.5706
1.5726
0.0167896
-0.0182209
-1.56769
1.56912
0.0191932
-0.0199885
-1.30922
1.31001
0.0205313
-0.0209813
-1.09749
1.09794
0.0212974
-0.021595
-0.923805
0.924102
0.0218551
-0.0221255
-0.782092
0.782363
0.0219502
-0.0211151
-0.657755
0.65692
0.0190957
-0.015543
-0.513389
0.509836
0.0115928
-0.00736067
-0.327043
0.322811
0.0042333
-0.00180632
-0.150175
0.147748
0.000504966
-0.0245041
0.0239992
-0.0288006
0.0289166
-0.00011595
0.000254812
0.000156792
-0.228161
0.227749
-0.00114482
0.00224624
-0.399934
0.398832
-0.00313837
0.00325903
-0.551553
0.551433
-0.0025536
0.00139912
-0.670352
0.671507
0.000266903
-0.00199835
-0.790164
0.791895
0.00404433
-0.00600225
-0.934452
0.93641
0.00821915
-0.0102855
-1.10919
1.11126
0.0125669
-0.0146274
-1.3199
1.32196
0.0168013
-0.0186394
-1.57446
1.5763
0.0201234
-0.0212606
-1.5704
1.57154
0.0219154
-0.0223346
-1.31069
1.31111
0.0225373
-0.022618
-1.09827
1.09835
0.0226204
-0.0225982
-0.924292
0.924269
0.0225759
-0.0224778
-0.782331
0.782233
0.0220173
-0.0207551
-0.655743
0.654481
0.0184338
-0.0147464
-0.506344
0.502656
0.0109015
-0.00692538
-0.3188
0.314824
0.00401916
-0.001746
-0.145457
0.143184
0.00050046
-0.0235254
0.0230249
-0.0291046
0.0293533
-0.000248706
0.00128571
-0.00155496
-0.22771
0.227979
0.00142858
-0.00100867
-0.398132
0.397712
0.000607304
-0.000708628
-0.551629
0.55173
0.00150032
-0.00271499
-0.672851
0.674066
0.00444664
-0.00624998
-0.793552
0.795356
0.0083865
-0.010431
-0.938195
0.940239
0.0127433
-0.0148858
-1.11319
1.11533
0.0172247
-0.0192864
-1.3239
1.32596
0.021379
-0.0230458
-1.57797
1.57964
0.0242812
-0.0251042
-1.57249
1.57331
0.0254628
-0.0255217
-1.31142
1.31148
0.0253801
-0.0250845
-1.09829
1.09799
0.0247333
-0.024326
-0.924057
0.92365
0.0239506
-0.023482
-0.781805
0.781336
0.0226621
-0.0209019
-0.652966
0.651206
0.0182229
-0.0143458
-0.499047
0.49517
0.0105407
-0.00672385
-0.311047
0.30723
0.00394355
-0.00173908
-0.141021
0.138816
0.00050677
-0.0225552
0.0220485
-0.029676
0.0300707
-0.000394729
0.00237595
-0.00335399
-0.22858
0.229558
0.00408169
-0.00442298
-0.397713
0.398054
0.00462561
-0.00501929
-0.552249
0.552643
0.00591111
-0.00722234
-0.675485
0.676796
0.00908581
-0.011045
-0.797084
0.799043
0.0133755
-0.0156
-0.942134
0.944358
0.018097
-0.0203814
-1.11736
1.11965
0.0228256
-0.0249272
-1.32791
1.33001
0.0269821
-0.0285139
-1.58116
1.58269
0.0295138
-0.0299866
-1.57393
1.5744
0.0299941
-0.0296458
-1.31139
1.31104
0.0291245
-0.028426
-1.0975
1.0968
0.027722
-0.026919
-0.922985
0.922182
0.0261946
-0.025276
-0.780457
0.779538
0.0239642
-0.0216625
-0.649262
0.646961
0.018617
-0.0145307
-0.491403
0.487317
0.0106893
-0.00688698
-0.303577
0.299774
0.00408675
-0.00182089
-0.136675
0.134409
0.000533623
-0.021568
0.0210344
-0.0305534
0.0311179
-0.000564542
0.00352126
-0.00518944
-0.230906
0.232574
0.00678758
-0.00792618
-0.398788
0.399927
0.00887859
-0.00974496
-0.553609
0.554475
0.0109421
-0.0124826
-0.678383
0.679924
0.0146095
-0.0168289
-0.80094
0.80316
0.0194522
-0.0219311
-0.946451
0.94893
0.0246754
-0.0271392
-1.12182
1.12428
0.0297173
-0.0318663
-1.33199
1.33414
0.0338719
-0.0352356
-1.58404
1.5854
0.0359546
-0.036034
-1.57463
1.57471
0.0356535
-0.0348666
-1.31049
1.30971
0.033924
-0.0327619
-1.09584
1.09468
0.0316551
-0.0304396
-0.921071
0.919856
0.0293434
-0.0279102
-0.77818
0.776747
0.026121
-0.0233241
-0.64456
0.641763
0.019914
-0.0155472
-0.483362
0.478995
0.0115236
-0.00752356
-0.296071
0.292071
0.00451314
-0.00202275
-0.132142
0.129652
0.000592067
-0.0205173
0.0199252
-0.031769
0.0325312
-0.000762256
0.00480733
-0.0072223
-0.234637
0.237052
0.00972806
-0.011683
-0.401492
0.403447
0.0134458
-0.0149119
-0.556037
0.557503
0.0166182
-0.0185555
-0.68185
0.683787
0.0210968
-0.0236821
-0.805333
0.807918
0.0266852
-0.029486
-0.951274
0.954075
0.0325527
-0.0352718
-1.12664
1.12935
0.0380648
-0.0403266
-1.33617
1.33843
0.0423249
-0.0435273
-1.58657
1.58777
0.0439505
-0.0436171
-1.57453
1.57419
0.0427804
-0.0414835
-1.30864
1.30734
0.0400833
-0.0384293
-1.09321
1.09156
0.0368844
-0.0352177
-0.91826
0.916593
0.0337299
-0.0317706
-0.774847
0.772888
0.0295175
-0.0261866
-0.638928
0.635597
0.0223162
-0.0174964
-0.474738
0.469918
0.0130817
-0.00863569
-0.288083
0.283637
0.00521686
-0.00234347
-0.127097
0.124223
0.00068404
-0.0193379
0.0186538
-0.033374
0.03439
-0.00101599
0.00639926
-0.00969086
-0.239864
0.243156
0.0132284
-0.0160846
-0.405946
0.408802
0.0187086
-0.0208262
-0.559795
0.561912
0.0231213
-0.0255544
-0.686206
0.688639
0.0286384
-0.0317082
-0.810473
0.813543
0.0352331
-0.0384987
-0.956771
0.960037
0.042047
-0.0451552
-1.132
1.13511
0.0482788
-0.0507114
-1.34059
1.34302
0.052716
-0.0537458
-1.58876
1.58979
0.0538303
-0.0530204
-1.57356
1.57275
0.0516964
-0.0498274
-1.3057
1.30383
0.0479021
-0.0456937
-1.0895
1.08729
0.0436774
-0.0415301
-0.914467
0.91232
0.0395839
-0.0370619
-0.770493
0.767971
0.0342526
-0.0302651
-0.632221
0.628234
0.0257792
-0.0202964
-0.46517
0.459688
0.0152665
-0.0101333
-0.279126
0.273993
0.00613414
-0.0027525
-0.121242
0.11786
0.000800466
-0.0179693
0.0171688
-0.0354799
0.0368531
-0.0013732
0.00856316
-0.0129749
-0.246848
0.251259
0.0177526
-0.0216501
-0.412346
0.416244
0.0252306
-0.0280895
-0.565044
0.567903
0.0310654
-0.0340969
-0.691642
0.694674
0.0378673
-0.0415776
-0.816601
0.820312
0.0458036
-0.0496807
-0.963242
0.967119
0.0538384
-0.0574078
-1.13816
1.14173
0.0608951
-0.0634984
-1.34534
1.34794
0.0654866
-0.0662813
-1.59057
1.59137
0.0659568
-0.0645736
-1.57158
1.5702
0.0626757
-0.0601491
-1.30157
1.29905
0.0576115
-0.0547444
-1.08457
1.0817
0.0521611
-0.0494267
-0.909559
0.906825
0.0469065
-0.0437468
-0.764988
0.761828
0.0402617
-0.0354628
-0.624163
0.619364
0.030205
-0.0238414
-0.45426
0.447896
0.0179636
-0.0119148
-0.268742
0.262693
0.00719288
-0.00321396
-0.114349
0.11037
0.000930146
-0.0163673
0.0154372
-0.0382811
0.0401883
-0.00190725
0.0116711
-0.0175784
-0.256049
0.261956
0.0239011
-0.0290558
-0.421121
0.426276
0.0337994
-0.0376026
-0.572103
0.575906
0.0415262
-0.0454168
-0.698428
0.702319
0.0501256
-0.0546658
-0.82404
0.82858
0.059738
-0.0643007
-0.970954
0.975517
0.0690725
-0.0730427
-1.1452
1.14917
0.0767667
-0.0793911
-1.35034
1.35296
0.0811574
-0.0814963
-1.5918
1.59214
0.0805243
-0.0783443
-1.56835
1.56617
0.0756861
-0.0723443
-1.29605
1.29271
0.0691129
-0.0655257
-1.07826
1.07467
0.0622976
-0.0588658
-0.903327
0.899895
0.055692
-0.051838
-0.758083
0.754229
0.0476068
-0.0418792
-0.614461
0.608733
0.0356561
-0.0281109
-0.441567
0.434022
0.0211088
-0.0139204
-0.256505
0.249317
0.00835316
-0.00370574
-0.106267
0.10162
0.00106367
-0.0145153
0.0134517
-0.0421035
0.0448519
-0.00274835
0.0163395
-0.0242946
-0.268195
0.27615
0.032589
-0.0393024
-0.432982
0.439695
0.0454918
-0.0505241
-0.581539
0.586572
0.055807
-0.0609496
-0.7071
0.712243
0.0668652
-0.0723687
-0.833151
0.838655
0.0783443
-0.0835542
-0.979999
0.985209
0.088813
-0.0930022
-1.15294
1.15713
0.0967108
-0.099071
-1.35521
1.35757
0.100255
-0.099791
-1.5919
1.59144
0.0978302
-0.0945268
-1.56333
1.56002
0.0908606
-0.0864682
-1.28877
1.28438
0.082348
-0.0779094
-1.07044
1.066
0.0740325
-0.0699472
-0.895625
0.891539
0.0661126
-0.0615586
-0.749675
0.745121
0.0565487
-0.0497095
-0.60283
0.59599
0.0421966
-0.033063
-0.42646
0.417326
0.0246465
-0.0161183
-0.242018
0.23349
0.00959361
-0.00421301
-0.0968764
0.0914958
0.0011942
-0.0124099
0.0112157
-0.0475175
0.0517044
-0.00418692
0.023746
-0.0345577
-0.284449
0.295261
0.0454368
-0.0541679
-0.448923
0.457654
0.0621184
-0.0686199
-0.594035
0.600537
0.0755708
-0.082194
-0.718304
0.724927
0.0894828
-0.0959595
-0.844166
0.850643
0.102709
-0.108364
-0.99023
0.995885
0.113822
-0.117939
-1.16094
1.16506
0.121277
-0.123029
-1.35935
1.3611
0.123268
-0.121705
-1.5902
1.58864
0.118538
-0.113946
-1.55592
1.55132
0.109163
-0.103606
-1.27928
1.27372
0.0984797
-0.0930306
-1.06078
1.05533
0.0883478
-0.0835418
-0.886476
0.88167
0.0791038
-0.0736799
-0.739684
0.73426
0.0675215
-0.0590156
-0.588677
0.580171
0.0497167
-0.0386128
-0.408103
0.396999
0.0285616
-0.0185167
-0.224968
0.214923
0.0109081
-0.00472199
-0.086088
0.0799018
0.00131361
-0.0100649
0.00875127
-0.0555816
0.0627985
-0.00721696
0.0369716
-0.052044
-0.30696
0.322032
0.0665613
-0.0779362
-0.470305
0.48168
0.0876841
-0.0956144
-0.610009
0.61794
0.104185
-0.112068
-0.732211
0.740094
0.120307
-0.127258
-0.856892
0.863843
0.134187
-0.139735
-1.0011
1.00665
0.144826
-0.148369
-1.16854
1.17208
0.150846
-0.151588
-1.36204
1.36278
0.15055
-0.147661
-1.58613
1.58324
0.143183
-0.137295
-1.54587
1.53998
0.13141
-0.124746
-1.26744
1.26077
0.118662
-0.112215
-1.04908
1.04263
0.106643
-0.100827
-0.875645
0.86983
0.0953408
-0.0884161
-0.727493
0.720569
0.0802998
-0.0693558
-0.570671
0.559727
0.0578866
-0.0446794
-0.38575
0.372543
0.0329015
-0.021193
-0.205093
0.193385
0.0123427
-0.00524557
-0.0738709
0.0667737
0.0014174
-0.00751945
0.00610205
-0.0695802
0.0734137
-0.00383356
0.027532
-0.0405081
-0.339662
0.352638
0.0533538
-0.0635146
-0.498229
0.50839
0.0727518
-0.0817936
-0.629136
0.638178
0.0921312
-0.101345
-0.747629
0.756843
0.111615
-0.120754
-0.869937
0.879076
0.130406
-0.138878
-1.01128
1.01975
0.147567
-0.154809
-1.17459
1.18183
0.161677
-0.16673
-1.36243
1.36749
0.170508
-0.171915
-1.57926
1.58066
0.170833
-0.167666
-1.53312
1.52995
0.163276
-0.1573
-1.25332
1.24734
0.151288
-0.143756
-1.03529
1.02776
0.136696
-0.128407
-0.862414
0.854124
0.11992
-0.10899
-0.711381
0.700451
0.0963197
-0.0805378
-0.547522
0.53174
0.0652479
-0.0483103
-0.359037
0.342099
0.0339724
-0.0205439
-0.182021
0.168592
0.0111163
-0.00432033
-0.06036
0.0535641
0.00101806
-0.00487511
0.00385705
-0.0805379
0.0782886
0.0022493
0.00566542
-0.0137745
-0.368357
0.376466
0.0232843
-0.0304588
-0.523093
0.530268
0.0378533
-0.0454488
-0.649322
0.656918
0.0546672
-0.0631871
-0.765733
0.774253
0.0723069
-0.0806975
-0.887671
0.896062
0.0896169
-0.0971964
-1.02797
1.03555
0.105234
-0.111657
-1.18899
1.19541
0.117816
-0.122191
-1.37241
1.37679
0.125069
-0.125787
-1.58148
1.5822
0.124048
-0.120205
-1.52622
1.52238
0.114942
-0.107893
-1.24087
1.23382
0.100639
-0.0916847
-1.01926
1.01031
0.0825431
-0.0714925
-0.842682
0.831631
0.0608503
-0.049418
-0.684329
0.672897
0.0391366
-0.0282079
-0.513579
0.502651
0.0191241
-0.011235
-0.324732
0.316843
0.00608229
-0.0024521
-0.155641
0.152011
0.000625551
9.84587e-05
-0.0471709
0.0464469
-0.000150451
-0.00267181
0.00282226
-0.0813767
0.0783733
0.00300338
-0.00307154
-0.0011599
-0.387336
0.391567
0.00726677
-0.0125
-0.541208
0.546441
0.0181227
-0.0244871
-0.666143
0.672507
0.0322159
-0.0394284
-0.781911
0.789124
0.0474672
-0.0547855
-0.903737
0.911055
0.0624043
-0.069299
-1.04301
1.0499
0.0764575
-0.0823289
-1.2015
1.20737
0.0875747
-0.0911344
-1.38062
1.38418
0.0934397
-0.0934206
-1.58227
1.58225
0.0909354
-0.0863283
-1.51783
1.51322
0.0804389
-0.0728485
-1.22635
1.21876
0.0646928
-0.0550705
-1.00035
0.990729
0.0455365
-0.0345518
-0.819584
0.808599
0.0247464
-0.014829
-0.658746
0.648828
0.00702151
0.000320081
-0.489882
0.482541
-0.00483409
0.00705112
-0.307246
0.305029
-0.00716738
0.00590659
-0.14659
0.147851
-0.00414596
0.00211445
-0.0449942
0.0470257
-0.000696571
-0.00257237
0.00326894
-0.0798471
0.0770096
0.00283756
-0.00619214
0.00438153
-0.399513
0.401323
-0.000879856
-0.00297838
-0.554582
0.55844
0.00781354
-0.0130479
-0.679615
0.68485
0.0195136
-0.0256276
-0.79582
0.801934
0.0324803
-0.0387884
-0.917895
0.924203
0.0457798
-0.0517355
-1.05642
1.06237
0.0581344
-0.0629591
-1.2129
1.21772
0.0675754
-0.0705928
-1.38755
1.39056
0.0721565
-0.0712865
-1.58172
1.58085
0.0683701
-0.0633927
-1.50787
1.50289
0.0572693
-0.0492469
-1.21072
1.20269
0.0412205
-0.0319634
-0.980595
0.971338
0.0229131
-0.0131426
-0.797205
0.787435
0.00437799
0.00376331
-0.63695
0.628808
-0.00950537
0.0138297
-0.473499
0.469175
-0.0155295
0.0147246
-0.299453
0.300258
-0.0124778
0.00912381
-0.147171
0.150525
-0.00605172
0.00289972
-0.0480458
0.0511978
-0.000896289
-0.00349064
0.00438692
-0.0782006
0.0757843
0.0024163
-0.00682283
0.00638523
-0.407529
0.407967
-0.00383584
0.0011514
-0.565294
0.567979
0.00278411
-0.0075268
-0.69068
0.695423
0.0128876
-0.0182407
-0.807466
0.812819
0.0241784
-0.0296932
-0.930125
0.935639
0.0357607
-0.04114
-1.06823
1.07361
0.0466635
-0.0511563
-1.22244
1.22693
0.055159
-0.0576596
-1.3932
1.3957
0.0587263
-0.0574878
-1.57973
1.57849
0.054331
-0.0490667
-1.49713
1.49186
0.0430423
-0.0355182
-1.19458
1.18706
0.0280781
-0.0195605
-0.961862
0.953345
0.0116733
-0.00323026
-0.7774
0.768957
-0.00395332
0.0105705
-0.619245
0.612628
-0.0150258
0.0179544
-0.462439
0.45951
-0.0187252
0.0169531
-0.297072
0.298844
-0.0138
0.00995816
-0.151697
0.155539
-0.00650346
0.00305672
-0.0532045
0.0566513
-0.000948715
-0.00485678
0.00580549
-0.0768303
0.0748177
0.00201259
-0.00634186
0.00621134
-0.413043
0.413174
-0.00482961
0.00256818
-0.573469
0.575731
0.00130207
-0.00537389
-0.700011
0.704083
0.0100071
-0.0146796
-0.817499
0.822171
0.0199929
-0.0249634
-0.94087
0.945841
0.0305662
-0.035336
-1.07875
1.08352
0.0403565
-0.0444309
-1.23115
1.23523
0.0479666
-0.0500994
-1.39792
1.40005
0.0508361
-0.0497871
-1.5771
1.57605
0.0466029
-0.041697
-1.48616
1.48126
0.0360409
-0.0291269
-1.17947
1.17256
0.0226681
-0.0150761
-0.944933
0.937341
0.00824968
-0.00122105
-0.760567
0.753539
-0.00472624
0.010152
-0.605045
0.599619
-0.0137907
0.0162248
-0.453957
0.451523
-0.0166386
0.0150348
-0.296829
0.298433
-0.0123557
0.00885685
-0.157081
0.16058
-0.00570639
0.0027
-0.0585706
0.0615769
-0.00084245
-0.00624775
0.0070902
-0.0759018
0.0743726
0.00152922
-0.00522647
0.00526785
-0.417263
0.417222
-0.0040526
0.00230899
-0.580787
0.58253
0.00139102
-0.00514012
-0.708176
0.711925
0.0096337
-0.0137038
-0.826559
0.830629
0.0184225
-0.0228764
-0.950842
0.955296
0.028231
-0.0326018
-1.08834
1.09271
0.0371034
-0.0409594
-1.23912
1.24298
0.0445987
-0.046542
-1.40218
1.40412
0.0473125
-0.0462443
-1.5746
1.57353
0.0435688
-0.0388236
-1.47618
1.47143
0.0338365
-0.0277818
-1.16563
1.15958
0.0219664
-0.0155165
-0.930004
0.923554
0.0095731
-0.00334996
-0.746344
0.740121
-0.00154857
0.00629169
-0.593186
0.588443
-0.00954432
0.0114792
-0.446818
0.444883
-0.0120055
0.0111318
-0.296883
0.297757
-0.00913959
0.0064554
-0.161558
0.164242
-0.00413213
0.00197969
-0.0629026
0.065055
-0.000639071
-0.0073742
0.00801327
-0.0755295
0.0743563
0.0011732
-0.00402421
0.00406713
-0.42077
0.420727
-0.00278045
0.000999759
-0.58735
0.589131
0.00254299
-0.0059575
-0.715682
0.719097
0.00987658
-0.0138827
-0.83475
0.838756
0.018305
-0.0229342
-0.959619
0.964248
0.0275922
-0.0317821
-1.0972
1.10139
0.0363923
-0.0399836
-1.24672
1.25031
0.043123
-0.0454523
-1.40596
1.40829
0.0464013
-0.0456605
-1.57252
1.57177
0.0432538
-0.0392541
-1.46693
1.46293
0.0348116
-0.0293973
-1.15333
1.14791
0.0243035
-0.0185965
-0.917125
0.911418
0.0134074
-0.00813354
-0.734002
0.728728
0.00355252
0.000696194
-0.582881
0.578633
-0.00356582
0.00564115
-0.440675
0.438599
-0.00637902
0.00592329
-0.296049
0.296504
-0.00488758
0.00337575
-0.164263
0.165774
-0.00213068
0.0010305
-0.0655408
0.066641
-0.000362124
-0.00810715
0.00846928
-0.0757022
0.0747373
0.000964907
-0.00270571
0.00246366
-0.4241
0.424342
-0.00128059
-0.00065164
-0.593517
0.595449
0.00399966
-0.00740053
-0.722836
0.726237
0.0112609
-0.0149562
-0.842653
0.846348
0.0195586
-0.0234487
-0.968365
0.972255
0.0280912
-0.032103
-1.10575
1.10976
0.0365846
-0.0403468
-1.25389
1.25765
0.0437473
-0.0458552
-1.41038
1.41249
0.047152
-0.0468448
-1.57097
1.57066
0.0451389
-0.0415619
-1.45884
1.45527
0.0376795
-0.0328271
-1.14265
1.1378
0.028287
-0.0231007
-0.905576
0.90039
0.0185346
-0.01369
-0.723245
0.718401
0.00957018
-0.00561587
-0.573805
0.569851
0.00266063
-0.00056114
-0.434679
0.432579
-0.000602957
0.000883449
-0.294072
0.293791
-0.000931318
0.000704337
-0.164756
0.164983
-0.000504154
0.000350366
-0.0662293
0.066383
-0.000171821
-0.00832932
0.00850114
-0.076159
0.075504
0.000655006
-0.00157596
0.000951703
-0.427666
0.42829
4.04259e-05
-0.00241026
-0.599014
0.601384
0.00549717
-0.00884573
-0.729692
0.73304
0.0126266
-0.0165226
-0.849997
0.853893
0.0205833
-0.0246648
-0.976399
0.980481
0.0292867
-0.0330951
-1.11421
1.11802
0.0376574
-0.0413643
-1.26122
1.26493
0.0448139
-0.0474445
-1.415
1.41763
0.0492388
-0.0492453
-1.5704
1.5704
0.0478318
-0.0450169
-1.45187
1.44906
0.0417274
-0.0373027
-1.13284
1.12842
0.033073
-0.028488
-0.895146
0.890561
0.023936
-0.0195731
-0.713282
0.708919
0.01571
-0.0118314
-0.565514
0.561636
0.00896472
-0.00645503
-0.42858
0.42607
0.00484138
-0.00358453
-0.290888
0.289631
0.00261559
-0.00162297
-0.163092
0.1621
0.000765454
-0.000137521
-0.0651637
0.0645357
-6.85579e-05
-0.0080746
0.00814316
-0.0770126
0.0765142
0.000498394
-0.000650162
0.000144362
-0.431517
0.432023
0.00173131
-0.00387311
-0.604927
0.607069
0.00713831
-0.010421
-0.736207
0.739489
0.0141239
-0.0176916
-0.857545
0.861113
0.0219271
-0.0257309
-0.984612
0.988416
0.0303191
-0.0345607
-1.12229
1.12653
0.0387667
-0.0427941
-1.26869
1.27272
0.0466589
-0.0493889
-1.42017
1.4229
0.0515706
-0.052374
-1.57063
1.57144
0.0514339
-0.0492656
-1.44612
1.44395
0.0462045
-0.0422431
-1.12401
1.12005
0.0384193
-0.0340015
-0.885564
0.881147
0.0298152
-0.0255582
-0.704021
0.699764
0.0217956
-0.0178442
-0.557254
0.553302
0.0147028
-0.0118498
-0.422076
0.419223
0.00949421
-0.00738497
-0.286088
0.283978
0.00549458
-0.00352096
-0.159327
0.157353
0.00193205
-0.000680823
-0.062669
0.0614177
0.000103634
-0.00755234
0.00744871
-0.0781176
0.0778055
0.00031208
0.000392574
-0.00122388
-0.435444
0.436276
0.00288342
-0.005328
-0.610468
0.612913
0.00856522
-0.0117409
-0.742608
0.745784
0.0155782
-0.019048
-0.864725
0.868195
0.0231726
-0.0271215
-0.992731
0.996679
0.0316309
-0.0358435
-1.13065
1.13486
0.0402684
-0.0443227
-1.27668
1.28073
0.0483753
-0.0518531
-1.42592
1.4294
0.0544911
-0.0556098
-1.57219
1.5733
0.055372
-0.0535391
-1.44167
1.43983
0.0510276
-0.0475717
-1.11599
1.11254
0.0437883
-0.0395553
-0.876417
0.872184
0.0355099
-0.0311844
-0.695081
0.690756
0.0274986
-0.0234002
-0.549121
0.545023