/*--------------------------------*- C++ -*----------------------------------*\
| =========                 |                                                 |
| \\      /  F ield         | OpenFOAM: The Open Source CFD Toolbox           |
|  \\    /   O peration     | Version:  2306                                  |
|   \\  /    A nd           | Website:  www.openfoam.com                      |
|    \\/     M anipulation  |                                                 |
\*---------------------------------------------------------------------------*/
FoamFile
{
    version     2.0;
    format      ascii;
    arch        "LSB;label=32;scalar=64";
    class       volVectorField;
    location    "34";
    object      U;
}
// * * * * * * * * * * * * * * * * * * * * * * * * * * * * * * * * * * * * * //

dimensions      [0 1 -1 0 0 0 0];

internalField   nonuniform List<vector> 
8800
(
(0.984964 -0.0884523 0)
(1.00213 -0.0568226 0)
(0.99968 -0.0305552 0)
(1.00002 -0.0158576 0)
(1.00005 -0.0087093 0)
(1.00002 -0.00506797 0)
(0.999995 -0.00299112 0)
(0.999976 -0.00170421 0)
(0.999971 -0.00081735 0)
(1.00006 -0.000124092 0)
(0.999981 0.000579816 0)
(0.999998 0.00133914 0)
(1.00001 0.00237553 0)
(1.00002 0.00398057 0)
(1.00004 0.00669284 0)
(1.00003 0.0117236 0)
(0.999888 0.0220446 0)
(0.999189 0.0411661 0)
(1.00747 0.0768952 0)
(0.773651 0.0450707 0)
(0.360992 -0.0151726 0)
(1.04555 -0.0742089 0)
(1.08712 -0.0679028 0)
(1.04777 -0.0523146 0)
(1.02458 -0.0384092 0)
(1.01234 -0.0261276 0)
(1.00642 -0.0167901 0)
(1.00355 -0.0103036 0)
(1.00214 -0.00568229 0)
(1.00148 -0.00208885 0)
(1.00136 0.00112146 0)
(1.00173 0.00444174 0)
(1.00271 0.00836188 0)
(1.0047 0.0137177 0)
(1.0088 0.0214583 0)
(1.01735 0.0322862 0)
(1.03449 0.0456382 0)
(1.06553 0.0597619 0)
(1.0941 0.0729297 0)
(0.842258 0.0557066 0)
(0.217038 -0.00164735 0)
(1.07584 -0.0503757 0)
(1.09984 -0.0487486 0)
(1.06464 -0.0402042 0)
(1.03992 -0.0330431 0)
(1.0237 -0.0257503 0)
(1.01392 -0.0183956 0)
(1.00845 -0.0117027 0)
(1.00561 -0.00592406 0)
(1.00445 -0.00062537 0)
(1.00478 0.00449647 0)
(1.00664 0.00981873 0)
(1.01056 0.015887 0)
(1.01786 0.0228233 0)
(1.03052 0.0301022 0)
(1.05068 0.0371193 0)
(1.08042 0.0444767 0)
(1.10627 0.0517107 0)
(0.942944 0.0413061 0)
(0.216546 0.00166431 0)
(0.175841 -0.000646536 0)
(1.0186 -0.0354398 0)
(1.10555 -0.0414681 0)
(1.07808 -0.0363168 0)
(1.05277 -0.0303013 0)
(1.03547 -0.0245919 0)
(1.02347 -0.0189046 0)
(1.01556 -0.0129251 0)
(1.01092 -0.00681752 0)
(1.0089 -0.000576652 0)
(1.00946 0.00558958 0)
(1.01259 0.0115405 0)
(1.01862 0.0173759 0)
(1.02835 0.0229825 0)
(1.04271 0.0284379 0)
(1.06344 0.0341176 0)
(1.09388 0.0401058 0)
(1.09428 0.041768 0)
(0.829101 0.0227398 0)
(0.17501 0.000664484 0)
(0.154266 -0.000488398 0)
(0.957153 -0.025587 0)
(1.10401 -0.0351513 0)
(1.08786 -0.0327261 0)
(1.06128 -0.0281874 0)
(1.04337 -0.0232181 0)
(1.03098 -0.0180179 0)
(1.0223 -0.0125741 0)
(1.0167 -0.00671961 0)
(1.01404 -0.000297579 0)
(1.01473 0.00614732 0)
(1.01861 0.0120103 0)
(1.02549 0.0173223 0)
(1.03571 0.0223247 0)
(1.05042 0.0271824 0)
(1.07211 0.0316964 0)
(1.10086 0.0356109 0)
(1.06943 0.03381 0)
(0.741783 0.014298 0)
(0.153019 0.0005085 0)
(0.139712 -0.000359521 0)
(0.900095 -0.0192388 0)
(1.0963 -0.0302092 0)
(1.09592 -0.0293565 0)
(1.06885 -0.0256304 0)
(1.05012 -0.0215804 0)
(1.0372 -0.0169444 0)
(1.02821 -0.0117724 0)
(1.02225 -0.00613269 0)
(1.01928 0.000143166 0)
(1.01997 0.0064572 0)
(1.02406 0.0120717 0)
(1.03115 0.0170613 0)
(1.04167 0.0215883 0)
(1.05702 0.0256012 0)
(1.07964 0.0291255 0)
(1.10324 0.0318359 0)
(1.03777 0.0278838 0)
(0.675528 0.0101562 0)
(0.137958 0.000383151 0)
(0.129039 -0.000274802 0)
(0.850263 -0.0148521 0)
(1.08382 -0.0260878 0)
(1.10149 -0.0264457 0)
(1.07557 -0.0231712 0)
(1.05633 -0.0195942 0)
(1.04298 -0.0155105 0)
(1.03362 -0.0107488 0)
(1.02741 -0.00535959 0)
(1.02425 0.000695251 0)
(1.02485 0.00676456 0)
(1.02896 0.012084 0)
(1.03621 0.0166473 0)
(1.04705 0.0205562 0)
(1.06281 0.0239461 0)
(1.08587 0.0270012 0)
(1.10257 0.028852 0)
(1.00343 0.023261 0)
(0.62416 0.00774162 0)
(0.12667 0.000303382 0)
(0.120902 -0.000212133 0)
(0.807874 -0.0116614 0)
(1.06842 -0.0224629 0)
(1.1049 -0.0237984 0)
(1.08169 -0.0209698 0)
(1.06198 -0.0176344 0)
(1.04834 -0.0138704 0)
(1.03871 -0.00947216 0)
(1.03224 -0.00440293 0)
(1.02888 0.0013637 0)
(1.02935 0.00711414 0)
(1.03345 0.0120505 0)
(1.0408 0.0161371 0)
(1.05179 0.0195677 0)
(1.06784 0.0225637 0)
(1.09129 0.0253353 0)
(1.09915 0.0263143 0)
(0.968933 0.0195785 0)
(0.583221 0.0061482 0)
(0.117785 0.000246796 0)
(0.114604 -0.000163745 0)
(0.772232 -0.00925289 0)
(1.05148 -0.0192333 0)
(1.10708 -0.0213163 0)
(1.08736 -0.0189022 0)
(1.06725 -0.0157616 0)
(1.05337 -0.0121884 0)
(1.04356 -0.00803101 0)
(1.03685 -0.00326461 0)
(1.03325 0.00217537 0)
(1.03356 0.00755876 0)
(1.03761 0.0120702 0)
(1.04494 0.0157304 0)
(1.05598 0.0187846 0)
(1.07228 0.0214464 0)
(1.09546 0.0238839 0)
(1.09304 0.024088 0)
(0.935696 0.0166534 0)
(0.549787 0.00502799 0)
(0.11058 0.000205708 0)
(0.109712 -0.000125466 0)
(0.742452 -0.00736311 0)
(1.03415 -0.016333 0)
(1.10828 -0.0189294 0)
(1.09268 -0.0168389 0)
(1.07227 -0.0138345 0)
(1.05812 -0.0104113 0)
(1.04813 -0.00645657 0)
(1.04123 -0.00194701 0)
(1.03739 0.00315973 0)
(1.03748 0.00813984 0)
(1.04136 0.0122214 0)
(1.04861 0.0154583 0)
(1.05967 0.0181395 0)
(1.07621 0.0205085 0)
(1.09844 0.0226148 0)
(1.08472 0.02212 0)
(0.904404 0.0143313 0)
(0.521887 0.00421363 0)
(0.104584 0.000176362 0)
(0.105942 -9.36053e-05 0)
(0.717773 -0.00581342 0)
(1.01727 -0.0136827 0)
(1.10861 -0.0165962 0)
(1.09784 -0.0148412 0)
(1.07712 -0.0119262 0)
(1.06267 -0.00859983 0)
(1.0525 -0.00476572 0)
(1.04541 -0.000443357 0)
(1.04131 0.00434052 0)
(1.04111 0.00890218 0)
(1.04476 0.0125726 0)
(1.05185 0.0154434 0)
(1.06291 0.0177798 0)
(1.07969 0.0198477 0)
(1.10016 0.0215556 0)
(1.07464 0.0203939 0)
(0.875318 0.0124906 0)
(0.498162 0.00361138 0)
(0.0994701 0.000155853 0)
(0.103112 -6.5547e-05 0)
(0.697635 -0.00448207 0)
(1.00152 -0.011197 0)
(1.10816 -0.0142154 0)
(1.10266 -0.0127217 0)
(1.08183 -0.00987267 0)
(1.06707 -0.00660652 0)
(1.05663 -0.00288592 0)
(1.04924 0.00125144 0)
(1.04481 0.00575922 0)
(1.04426 0.00995414 0)
(1.04764 0.0131942 0)
(1.0546 0.0156496 0)
(1.0657 0.0176263 0)
(1.08267 0.0193338 0)
(1.10086 0.0206416 0)
(1.06319 0.0188497 0)
(0.848462 0.0110124 0)
(0.477651 0.0031589 0)
(0.0949973 0.000141728 0)
(0.101115 -3.94484e-05 0)
(0.681656 -0.00328143 0)
(0.987462 -0.0088108 0)
(1.10722 -0.0117158 0)
(1.10716 -0.01038 0)
(1.08647 -0.00755692 0)
(1.07136 -0.00433306 0)
(1.06061 -0.00071292 0)
(1.05291 0.00325829 0)
(1.04808 0.00749187 0)
(1.04709 0.0112799 0)
(1.05013 0.0140564 0)
(1.05689 0.0160358 0)
(1.068 0.0175822 0)
(1.08508 0.0189572 0)
(1.10064 0.0198813 0)
(1.05073 0.0175042 0)
(0.82372 0.00983368 0)
(0.459632 0.00282215 0)
(0.0909884 0.000133655 0)
(0.0998986 -1.37755e-05 0)
(0.669611 -0.00213597 0)
(0.975498 -0.00643785 0)
(1.1061 -0.00906887 0)
(1.11145 -0.00787048 0)
(1.09108 -0.00510391 0)
(1.07562 -0.00186407 0)
(1.06455 0.00175832 0)
(1.05645 0.00562849 0)
(1.05109 0.00960801 0)
(1.04959 0.0129827 0)
(1.05222 0.0152935 0)
(1.05871 0.0168385 0)
(1.06975 0.0179543 0)
(1.08692 0.0189136 0)
(1.09936 0.0193206 0)
(1.03749 0.0163598 0)
(0.800916 0.00889161 0)
(0.443577 0.00257651 0)
(0.0873041 0.000130282 0)
(0.0994538 1.21529e-05 0)
(0.661412 -0.00102017 0)
(0.96601 -0.00404176 0)
(1.10505 -0.00619802 0)
(1.11554 -0.0050828 0)
(1.09571 -0.00233813 0)
(1.07991 0.000974019 0)
(1.06846 0.00461352 0)
(1.05991 0.00842681 0)
(1.05397 0.0121927 0)
(1.05179 0.0151694 0)
(1.05383 0.0169617 0)
(1.05996 0.0179825 0)
(1.07088 0.0185726 0)
(1.08796 0.0190553 0)
(1.09691 0.0189529 0)
(1.0236 0.0153924 0)
(0.779861 0.00816718 0)
(0.429041 0.00240989 0)
(0.0838187 0.000130766 0)
(0.0998002 4.99236e-05 0)
(0.657097 0.000130092 0)
(0.959395 -0.00152039 0)
(1.10449 -0.00300244 0)
(1.11956 -0.0018123 0)
(1.10034 0.000981068 0)
(1.08416 0.00436449 0)
(1.07221 0.00802011 0)
(1.063 0.0117782 0)
(1.05625 0.0153559 0)
(1.05327 0.0179384 0)
(1.05473 0.0191735 0)
(1.06046 0.0195556 0)
(1.07123 0.0195772 0)
(1.08801 0.0195368 0)
(1.09314 0.0188056 0)
(1.00929 0.014691 0)
(0.760277 0.00765806 0)
(0.415619 0.00231726 0)
(0.0804327 0.000134772 0)
(0.101081 7.68706e-05 0)
(0.656823 0.00134463 0)
(0.955857 0.0010661 0)
(1.10482 0.000394601 0)
(1.12383 0.00172941 0)
(1.10518 0.00462383 0)
(1.08864 0.00815675 0)
(1.07624 0.0119677 0)
(1.06642 0.0158152 0)
(1.05879 0.0192519 0)
(1.05478 0.0213982 0)
(1.0553 0.0220963 0)
(1.06037 0.0218706 0)
(1.07081 0.0212607 0)
(1.08714 0.0205308 0)
(1.08811 0.019133 0)
(0.994428 0.0143462 0)
(0.741765 0.0074057 0)
(0.402895 0.0023053 0)
(0.0770602 0.00013898 0)
(0.10332 0.000119186 0)
(0.660333 0.00256651 0)
(0.955728 0.0037637 0)
(1.1063 0.00400746 0)
(1.12834 0.00558038 0)
(1.11021 0.00870505 0)
(1.09327 0.0125519 0)
(1.08024 0.0166609 0)
(1.0695 0.0206803 0)
(1.06068 0.0240451 0)
(1.05545 0.0257928 0)
(1.05498 0.0258522 0)
(1.05934 0.0249463 0)
(1.06932 0.0236855 0)
(1.08506 0.0222895 0)
(1.08149 0.0200003 0)
(0.978866 0.0145236 0)
(0.723793 0.00754945 0)
(0.390259 0.00242035 0)
(0.0735963 0.000145992 0)
(0.106683 0.00017133 0)
(0.668157 0.00386449 0)
(0.959078 0.00644292 0)
(1.10939 0.00793495 0)
(1.13339 0.0100242 0)
(1.11579 0.0135993 0)
(1.09847 0.0179232 0)
(1.08468 0.0224362 0)
(1.07285 0.0266701 0)
(1.0626 0.0299419 0)
(1.05581 0.0312029 0)
(1.05407 0.0305775 0)
(1.05748 0.0289002 0)
(1.06685 0.0269285 0)
(1.08164 0.0248222 0)
(1.07327 0.0216066 0)
(0.962497 0.0154793 0)
(0.70553 0.00820895 0)
(0.376867 0.00269815 0)
(0.0698597 0.000160229 0)
(0.111283 0.000232752 0)
(0.680204 0.00529307 0)
(0.966305 0.00935819 0)
(1.11475 0.0121799 0)
(1.13955 0.0150955 0)
(1.12221 0.0193827 0)
(1.10429 0.0243231 0)
(1.08948 0.0293625 0)
(1.07626 0.0339458 0)
(1.06424 0.0372026 0)
(1.05559 0.0379547 0)
(1.05236 0.0365437 0)
(1.05466 0.0340306 0)
(1.06334 0.0312718 0)
(1.07672 0.0283988 0)
(1.06354 0.0242918 0)
(0.944861 0.0173391 0)
(0.685855 0.00939425 0)
(0.361779 0.00313298 0)
(0.0656206 0.000183468 0)
(0.117349 0.000313073 0)
(0.696779 0.00705229 0)
(0.97789 0.0128244 0)
(1.12284 0.0170449 0)
(1.14731 0.0209071 0)
(1.12973 0.026126 0)
(1.11093 0.0319191 0)
(1.09481 0.0377494 0)
(1.07983 0.042867 0)
(1.06556 0.0461374 0)
(1.05471 0.0463286 0)
(1.0497 0.0440136 0)
(1.05074 0.0405681 0)
(1.05862 0.0369638 0)
(1.07039 0.0332977 0)
(1.05198 0.0281011 0)
(0.925194 0.0200518 0)
(0.663609 0.0110154 0)
(0.344194 0.00368547 0)
(0.0606868 0.000213203 0)
(0.125346 0.000428621 0)
(0.718698 0.00943296 0)
(0.994163 0.0172338 0)
(1.13398 0.0230297 0)
(1.15698 0.0279798 0)
(1.13877 0.0343926 0)
(1.11882 0.0413279 0)
(1.10101 0.0481553 0)
(1.08373 0.053876 0)
(1.06671 0.0571186 0)
(1.0532 0.0566036 0)
(1.04611 0.0532573 0)
(1.04567 0.0487034 0)
(1.05264 0.0440681 0)
(1.06249 0.0394812 0)
(1.03813 0.0329399 0)
(0.902758 0.0235195 0)
(0.637759 0.0129765 0)
(0.323527 0.00431062 0)
(0.0549288 0.000245725 0)
(0.136048 0.000605496 0)
(0.747265 0.0128317 0)
(1.01618 0.0231373 0)
(1.14889 0.0308751 0)
(1.16915 0.0373891 0)
(1.14975 0.0453497 0)
(1.12816 0.053685 0)
(1.10796 0.0615234 0)
(1.0877 0.0676473 0)
(1.06732 0.0705288 0)
(1.05073 0.0689097 0)
(1.04132 0.0641895 0)
(1.03918 0.0583609 0)
(1.04503 0.0525855 0)
(1.05263 0.0469135 0)
(1.02154 0.0389027 0)
(0.876664 0.0277803 0)
(0.60734 0.0152078 0)
(0.299404 0.00498458 0)
(0.0483122 0.000277035 0)
(0.150708 0.000889644 0)
(0.784451 0.0178864 0)
(1.0458 0.031343 0)
(1.16879 0.0415918 0)
(1.1848 0.0504605 0)
(1.16312 0.0602336 0)
(1.13898 0.0700774 0)
(1.11548 0.0787332 0)
(1.09148 0.0848452 0)
(1.06711 0.0867853 0)
(1.04698 0.0834709 0)
(1.03503 0.0769098 0)
(1.03121 0.0694576 0)
(1.03572 0.0624319 0)
(1.04075 0.0555187 0)
(1.00175 0.0462042 0)
(0.845667 0.0328122 0)
(0.571571 0.017679 0)
(0.271571 0.00569092 0)
(0.0408518 0.000304053 0)
(0.171476 0.00138173 0)
(0.833356 0.0257402 0)
(1.08537 0.0433262 0)
(1.1949 0.0567092 0)
(1.20472 0.0683762 0)
(1.17906 0.0802544 0)
(1.15101 0.0913972 0)
(1.1231 0.100429 0)
(1.09452 0.105949 0)
(1.06558 0.106349 0)
(1.04156 0.100947 0)
(1.0269 0.0923224 0)
(1.02138 0.0830066 0)
(1.02474 0.0744865 0)
(1.02664 0.0663791 0)
(0.977497 0.0550896 0)
(0.808259 0.0384821 0)
(0.530051 0.0204071 0)
(0.239966 0.0064159 0)
(0.0326478 0.000323144 0)
(0.201643 0.00247665 0)
(0.899598 0.0390799 0)
(1.13747 0.0628177 0)
(1.22731 0.0793887 0)
(1.22874 0.0939079 0)
(1.197 0.107267 0)
(1.16351 0.11874 0)
(1.1302 0.127198 0)
(1.09635 0.131324 0)
(1.06248 0.129616 0)
(1.03443 0.121888 0)
(1.01694 0.11119 0)
(1.00959 0.100113 0)
(1.01168 0.089925 0)
(1.00928 0.0798272 0)
(0.946439 0.0651577 0)
(0.763538 0.0446151 0)
(0.482957 0.0234744 0)
(0.205222 0.00718064 0)
(0.0240462 0.000330013 0)
(0.242772 0.00873115 1.87824e-19)
(0.987201 0.0659808 1.65919e-19)
(1.1997 0.0962452 -5.70733e-20)
(1.26347 0.113833 0)
(1.25377 0.130741 -1.34471e-33)
(1.21469 0.143449 1.93573e-20)
(1.17509 0.153579 -3.30219e-20)
(1.13593 0.160268 0)
(1.09648 0.162261 6.37414e-34)
(1.05736 0.158137 -3.70464e-20)
(1.02494 0.148064 0)
(1.00418 0.135471 -4.22292e-20)
(0.994359 0.122809 -1.23335e-19)
(0.993851 0.110734 -5.78327e-20)
(0.984271 0.0975963 -1.72136e-20)
(0.904953 0.0788451 -1.01483e-20)
(0.707762 0.0537587 0)
(0.426959 0.0282108 7.07344e-21)
(0.167937 0.00907923 8.32804e-21)
(0.0160249 0.000648206 1.47882e-19)
(0.270374 0.0242119 1.63209e-19)
(1.05857 0.108392 1.0138e-21)
(1.2496 0.144283 1.6355e-20)
(1.29585 0.161978 0)
(1.27548 0.177711 -7.19601e-20)
(1.22993 0.188229 -7.95102e-20)
(1.18455 0.19638 -3.42725e-20)
(1.13959 0.201118 -1.16149e-19)
(1.09438 0.20111 0)
(1.04941 0.194817 1.58887e-19)
(1.01163 0.182552 1.5437e-19)
(0.986164 0.167927 4.52039e-20)
(0.97154 0.152981 1.61506e-19)
(0.963477 0.137509 2.23682e-19)
(0.940931 0.11988 0)
(0.848608 0.0974249 3.11711e-19)
(0.644459 0.0672091 4.45836e-19)
(0.371385 0.0361292 4.93682e-19)
(0.136217 0.0123511 -5.61245e-19)
(0.0098435 0.000890438 -1.04179e-20)
(0.270129 0.039666 0)
(1.10219 0.163735 3.47e-20)
(1.28244 0.203647 0)
(1.31996 0.221002 -1.09965e-19)
(1.29204 0.23283 0)
(1.24149 0.239605 -1.63105e-19)
(1.19101 0.244456 7.15861e-20)
(1.14071 0.246178 -2.40235e-19)
(1.09007 0.243195 -3.13998e-21)
(1.03949 0.233705 8.34447e-20)
(0.996407 0.218208 3.37102e-19)
(0.965892 0.200651 -6.1836e-22)
(0.945597 0.182912 -1.16906e-19)
(0.930029 0.164988 -2.09892e-19)
(0.899936 0.145505 2.47395e-19)
(0.807425 0.120699 -4.36196e-19)
(0.610962 0.085345 -5.70904e-20)
(0.353226 0.0478063 0)
(0.133793 0.0177354 2.75668e-23)
(0.0103654 0.00145584 0)
(0.262947 0.0531233 5.93227e-19)
(1.12422 0.222303 -2.71092e-19)
(1.30181 0.267912 -1.81414e-19)
(1.33464 0.285083 5.59518e-20)
(1.30205 0.292808 -9.21913e-20)
(1.24828 0.295454 3.45714e-19)
(1.19386 0.296379 1.51344e-19)
(1.139 0.294369 0)
(1.08344 0.287617 -4.33425e-19)
(1.02752 0.274082 0)
(0.97933 0.254632 -1.78506e-19)
(0.943976 0.233769 -2.14255e-19)
(0.918606 0.213555 -1.26931e-19)
(0.897776 0.193958 -1.51907e-19)
(0.864777 0.173584 0)
(0.777701 0.147217 0)
(0.59513 0.107865 -3.72916e-19)
(0.35603 0.064105 7.31833e-20)
(0.14408 0.0259384 -4.31215e-20)
(0.0139137 0.00266767 -4.96474e-20)
(0.255243 0.0651184 -3.43734e-19)
(1.1328 0.280774 0)
(1.31157 0.333157 4.27119e-19)
(1.34132 0.350681 1.70863e-19)
(1.30577 0.354746 2.03883e-19)
(1.25006 0.353402 0)
(1.19271 0.350338 1.54545e-19)
(1.13413 0.344326 2.70328e-19)
(1.07428 0.333399 2.26135e-19)
(1.01353 0.315399 3.90169e-19)
(0.960624 0.291808 0)
(0.921083 0.267729 -4.6163e-19)
(0.891744 0.245415 -2.73846e-19)
(0.867411 0.224798 -1.60729e-19)
(0.833459 0.203803 9.71652e-19)
(0.753916 0.176122 1.15252e-19)
(0.586617 0.133154 5.39632e-19)
(0.364413 0.0831696 -2.53257e-18)
(0.157936 0.0363897 1.50737e-18)
(0.0185814 0.00451782 -1.78924e-18)
(0.248361 0.0760229 -2.98084e-19)
(1.13319 0.33726 6.73475e-20)
(1.31441 0.397505 -5.9955e-20)
(1.34185 0.41579 -2.17514e-19)
(1.30434 0.416692 -1.98253e-19)
(1.24738 0.411691 3.48806e-21)
(1.1878 0.404794 -1.66463e-19)
(1.12617 0.394775 2.83929e-19)
(1.06261 0.379599 -4.85782e-19)
(0.997627 0.357091 0)
(0.940601 0.329424 -2.11775e-19)
(0.8976 0.302387 -3.20773e-21)
(0.865354 0.278253 -2.97548e-19)
(0.838825 0.256804 0)
(0.804997 0.235367 -2.09689e-19)
(0.731205 0.206646 -4.97196e-19)
(0.579209 0.160201 1.32158e-18)
(0.372259 0.103593 -1.29403e-18)
(0.169952 0.0479081 1.83872e-18)
(0.0227376 0.00667745 -1.8816e-18)
(0.242907 0.0862134 -7.95572e-22)
(1.12871 0.391134 -6.37572e-20)
(1.31254 0.460096 -2.36642e-19)
(1.33787 0.479174 1.07627e-19)
(1.29889 0.477422 -1.03605e-19)
(1.24107 0.46914 0)
(1.17973 0.458658 -1.65879e-19)
(1.11554 0.444788 -3.00063e-19)
(1.04877 0.425478 -2.55444e-19)
(0.980101 0.398598 0)
(0.919531 0.367002 -2.22015e-19)
(0.87375 0.337137 -2.67254e-19)
(0.839427 0.31123 3.21181e-19)
(0.811566 0.288754 -1.92199e-19)
(0.778214 0.266609 -9.08966e-19)
(0.709476 0.236433 5.40393e-19)
(0.570096 0.187051 1.60884e-19)
(0.37563 0.123842 0)
(0.177553 0.0591665 -1.76778e-18)
(0.0256639 0.00879253 -6.37573e-20)
(0.238832 0.0960058 -3.65942e-20)
(1.12145 0.442243 6.29261e-20)
(1.30743 0.520706 1.23951e-19)
(1.33066 0.540175 3.54516e-19)
(1.29046 0.536183 -4.20477e-19)
(1.23197 0.525004 3.90405e-19)
(1.16916 0.511234 3.55727e-19)
(1.10278 0.493749 -4.80078e-19)
(1.0332 0.470531 1.48979e-19)
(0.961291 0.439481 -9.57663e-19)
(0.897639 0.404086 -2.46315e-19)
(0.849602 0.371407 0)
(0.813762 0.34362 3.46472e-19)
(0.785055 0.319887 4.10428e-19)
(0.752289 0.29683 4.87447e-19)
(0.687644 0.264978 -5.83216e-19)
(0.558323 0.212763 -1.71768e-19)
(0.373513 0.142734 2.01772e-19)
(0.179513 0.0690598 0)
(0.0270579 0.0105472 -1.37396e-19)
(0.235931 0.10553 3.48209e-19)
(1.11282 0.490716 -2.47058e-19)
(1.29995 0.57845 -1.29079e-19)
(1.32117 0.598432 2.42124e-19)
(1.27986 0.592541 -2.12713e-19)
(1.22079 0.578804 -8.02234e-21)
(1.15674 0.562079 -3.8411e-19)
(1.08844 0.541279 -1.72444e-19)
(1.01636 0.514428 -4.41169e-19)
(0.941535 0.479447 4.91409e-22)
(0.875141 0.440344 -7.76706e-19)
(0.82519 0.404787 6.32575e-19)
(0.788238 0.374928 -3.76791e-19)
(0.759056 0.349744 4.47468e-19)
(0.726899 0.325332 0)
(0.665555 0.291655 -3.14064e-19)
(0.543631 0.235977 -1.51178e-21)
(0.366113 0.158779 -8.71938e-19)
(0.176812 0.0766459 -1.27697e-19)
(0.0270196 0.0117234 0)
(0.234036 0.11488 0)
(1.10359 0.536742 -2.57246e-19)
(1.29088 0.633255 -2.53529e-19)
(1.31011 0.653837 -2.49317e-19)
(1.26774 0.646279 -2.39786e-19)
(1.20814 0.63029 0)
(1.143 0.610928 -1.89671e-19)
(1.073 0.587139 -2.32674e-21)
(0.998667 0.556979 9.43606e-19)
(0.921144 0.518319 -1.3326e-19)
(0.852215 0.475588 -5.58045e-19)
(0.800568 0.437046 3.31789e-19)
(0.762702 0.404872 -4.07656e-21)
(0.733249 0.377937 4.7611e-19)
(0.701646 0.351851 2.89021e-19)
(0.642703 0.315737 -6.76122e-19)
(0.526003 0.255917 7.99083e-19)
(0.353865 0.17154 2.34991e-19)
(0.16991 0.0816163 9.63395e-19)
(0.0256374 0.0122057 -2.54519e-18)
(0.233039 0.1242 6.46179e-20)
(1.09424 0.580509 -1.21951e-19)
(1.28097 0.685187 1.11449e-19)
(1.29796 0.706411 2.50146e-19)
(1.25461 0.697311 0)
(1.19451 0.679333 -2.12434e-19)
(1.12839 0.657645 6.2054e-19)
(1.05687 0.631197 3.84051e-19)
(0.980461 0.598061 0)
(0.900387 0.556001 -1.89172e-18)
(0.829016 0.509733 1.50085e-18)
(0.77573 0.468097 0)
(0.737035 0.433373 4.36128e-19)
(0.707371 0.404372 -4.03325e-21)
(0.676202 0.376271 -9.22587e-19)
(0.618906 0.337234 3.60786e-19)
(0.505692 0.27239 0)
(0.337759 0.180722 1.26482e-18)
(0.159579 0.0841459 0)
(0.0233491 0.0121042 -1.19951e-18)
(0.232765 0.133514 -6.25716e-20)
(1.08523 0.622073 -1.15062e-19)
(1.27027 0.734333 1.22326e-19)
(1.28513 0.756139 0)
(1.24089 0.745642 -2.4873e-19)
(1.1803 0.725909 0)
(1.1133 0.702168 -6.38359e-19)
(1.04038 0.673386 -1.90196e-19)
(0.962047 0.637618 1.71341e-19)
(0.879503 0.592455 -9.34072e-19)
(0.805663 0.542778 1.56652e-19)
(0.750676 0.497945 0)
(0.711114 0.460437 -9.30946e-19)
(0.68124 0.429056 4.11331e-21)
(0.650329 0.398562 0)
(0.593925 0.356048 4.37389e-21)
(0.482785 0.285402 1.15513e-18)
(0.318197 0.186178 -1.09004e-18)
(0.146684 0.0842268 3.19655e-19)
(0.0204485 0.0114708 0)
(0.232868 0.142715 0)
(1.07667 0.6616 -1.10921e-19)
(1.25912 0.780846 -1.1225e-19)
(1.27196 0.803071 -4.57718e-21)
(1.22688 0.791313 -1.18965e-19)
(1.16582 0.770032 -4.79916e-19)
(1.09803 0.744497 2.32304e-19)
(1.02383 0.713685 -2.13863e-19)
(0.943682 0.675617 7.50126e-19)
(0.858688 0.627682 -1.49139e-18)
(0.782272 0.574765 -6.87015e-21)
(0.725417 0.526665 -4.15418e-19)
(0.68487 0.486137 1.50348e-18)
(0.65472 0.452087 -4.82773e-21)
(0.62388 0.418814 -7.109e-19)
(0.567683 0.372192 -1.26512e-18)
(0.457537 0.294995 0)
(0.295783 0.188118 0)
(0.13181 0.0819227 3.45047e-19)
(0.0171927 0.0103394 -1.98811e-19)
(0.233441 0.151916 -5.57678e-20)
(1.06855 0.69891 2.22937e-19)
(1.24782 0.824785 1.18961e-19)
(1.25867 0.8473 0)
(1.2128 0.834392 -3.09547e-21)
(1.15132 0.811745 -4.85257e-19)
(1.08282 0.784653 5.91554e-19)
(1.00746 0.752099 8.73692e-19)
(0.925576 0.712065 9.84334e-19)
(0.838137 0.661703 -1.22408e-18)
(0.758993 0.60578 -1.28201e-18)
(0.700021 0.554398 1.10969e-18)
(0.658286 0.510623 0)
(0.627723 0.473566 -3.23572e-19)
(0.596779 0.437066 -7.66656e-19)
(0.540195 0.385623 -9.06299e-19)
(0.429931 0.300977 -1.07297e-18)
(0.271074 0.186508 3.16208e-19)
(0.115422 0.0772706 -1.85303e-19)
(0.0136257 0.00875246 6.06508e-22)
(0.234122 0.160956 0)
(1.06099 0.734556 0)
(1.23651 0.86625 5.12003e-21)
(1.24544 0.888934 0)
(1.19886 0.874979 3.76488e-19)
(1.137 0.851121 3.6841e-19)
(1.06786 0.82268 0)
(0.991442 0.788651 1.09623e-19)
(0.907918 0.74697 1.65576e-18)
(0.818039 0.694553 -2.80631e-18)
(0.735997 0.635924 0)
(0.674585 0.581314 -7.11955e-19)
(0.631313 0.534067 -5.86544e-21)
(0.600136 0.493602 -4.77385e-21)
(0.568902 0.453315 8.18548e-19)
(0.511421 0.39621 -7.77126e-22)
(0.400173 0.303273 -2.30513e-18)
(0.244271 0.181307 6.79332e-19)
(0.098368 0.0706952 1.99821e-19)
(0.0100819 0.00689484 0)
(0.234775 0.169823 1.40445e-19)
(1.05374 0.768506 1.01739e-19)
(1.22525 0.905292 2.20853e-19)
(1.23238 0.928074 -4.93731e-19)
(1.18517 0.913148 6.37367e-19)
(1.12299 0.888231 0)
(1.0533 0.858634 3.81695e-19)
(0.975927 0.823375 -2.38672e-19)
(0.890858 0.780358 7.68878e-21)
(0.798567 0.726269 2.03822e-19)
(0.71344 0.66529 1.65855e-18)
(0.649191 0.607597 -2.50631e-19)
(0.603949 0.556701 -9.2135e-19)
(0.57182 0.512337 -3.74515e-19)
(0.540099 0.467479 4.43381e-19)
(0.481381 0.40369 -4.53159e-22)
(0.368905 0.301705 6.20279e-19)
(0.216454 0.172789 -1.45888e-18)
(0.0813351 0.0626264 1.71697e-18)
(0.00670303 0.00489006 2.46578e-19)
(0.235243 0.178389 -4.19447e-20)
(1.04679 0.80085 4.91289e-20)
(1.21417 0.942028 1.19957e-20)
(1.2196 0.964837 -2.39213e-19)
(1.17185 0.949009 -1.22619e-19)
(1.1094 0.923153 -6.80021e-19)
(1.03925 0.892573 1.25098e-19)
(0.961027 0.856301 -1.00513e-18)
(0.874523 0.812233 -1.8445e-18)
(0.779854 0.756858 -1.67944e-18)
(0.691476 0.693951 0)
(0.623985 0.633427 -1.0885e-18)
(0.576223 0.578809 1.32099e-18)
(0.542587 0.529969 0)
(0.510069 0.479406 -9.47871e-19)
(0.450025 0.407539 5.64527e-19)
(0.336641 0.295831 -6.65257e-19)
(0.188797 0.161175 -7.84122e-19)
(0.0652497 0.0536002 -1.38124e-18)
(0.00368849 0.00290291 -1.0607e-18)
(0.235998 0.186777 3.59012e-20)
(1.04003 0.83156 -5.22338e-20)
(1.20331 0.976532 -1.44398e-19)
(1.20717 0.999305 -3.00966e-19)
(1.15896 0.982651 2.68098e-19)
(1.09632 0.955978 -4.14112e-19)
(1.02579 0.924554 4.05955e-19)
(0.946822 0.887476 -1.05031e-18)
(0.85899 0.842622 -1.09631e-18)
(0.762017 0.786335 1.76565e-18)
(0.670266 0.721964 3.63635e-18)
(0.599139 0.658968 0)
(0.5482 0.600693 0)
(0.512202 0.546833 -4.29547e-19)
(0.478252 0.488987 0)
(0.416988 0.406883 1.21298e-18)
(0.304089 0.284675 1.42977e-18)
(0.163043 0.146409 0)
(0.0514504 0.044207 0)
(0.00122647 0.00112853 1.13854e-18)
(0.236363 0.19468 -2.83332e-20)
(1.03347 0.860623 -2.73265e-20)
(1.19273 1.00892 -9.86051e-20)
(1.19512 1.0316 2.32972e-19)
(1.14657 1.01418 2.70992e-19)
(1.08378 0.986782 4.90739e-19)
(1.01297 0.954643 -5.68018e-19)
(0.933369 0.916933 2.93258e-22)
(0.844331 0.871534 -9.91643e-21)
(0.74515 0.814696 -1.11084e-20)
(0.64998 0.749362 1.87104e-18)
(0.574843 0.684339 0)
(0.520042 0.622662 1.32615e-18)
(0.480492 0.563421 9.14564e-19)
(0.443789 0.496441 2.19756e-18)
(0.381192 0.400702 6.50913e-19)
(0.271703 0.266037 -7.69732e-19)
(0.142521 0.126608 -4.50929e-19)
(0.0443632 0.0339562 0)
(0.00061873 4.28521e-05 1.22166e-18)
(0.236986 0.202558 3.82535e-20)
(1.02708 0.888135 0)
(1.18242 1.03924 -8.60852e-20)
(1.18349 1.06181 1.75673e-19)
(1.13469 1.04368 -2.65746e-19)
(1.07181 1.01565 -6.37367e-19)
(1.00083 0.9829 1.16633e-18)
(0.920697 0.944714 -8.07351e-20)
(0.830582 0.898981 0)
(0.729331 0.841914 -1.96277e-18)
(0.630763 0.776141 -4.0755e-18)
(0.551315 0.709625 1.61009e-19)
(0.49202 0.644974 1.819e-18)
(0.44745 0.580359 0)
(0.405696 0.502599 1.47571e-18)
(0.340314 0.388686 0)
(0.237129 0.236231 0)
(0.13014 0.0912035 -4.87317e-19)
(0.063084 0.0117656 0)
(0.025638 0.0100298 3.26983e-19)
(0.237212 0.209798 2.15507e-20)
(1.02085 0.914438 0)
(1.17238 1.06769 -1.18173e-19)
(1.17223 1.09015 0)
(1.1233 1.07141 1.28086e-19)
(1.06036 1.04287 0)
(0.989292 1.00964 6.80961e-20)
(0.908709 0.971158 1.46553e-19)
(0.817628 0.925334 1.37034e-19)
(0.714406 0.86838 -2.16076e-18)
(0.612479 0.80274 1.24298e-19)
(0.5284 0.735406 1.28031e-18)
(0.4639 0.668263 1.76835e-18)
(0.412522 0.598608 2.35427e-19)
(0.362328 0.509285 1.1497e-18)
(0.290074 0.372775 0)
(0.189286 0.194946 1.6168e-18)
(0.0976381 0.0320143 -9.41129e-19)
(0.0431008 0.0463335 1.08367e-18)
(-0.0595118 0.424629 -1.28807e-18)
(0.237383 0.2168 -5.65922e-21)
(1.01453 0.93933 -4.36902e-20)
(1.16254 1.0946 0)
(1.16122 1.11706 1.01597e-20)
(1.11221 1.09795 -3.15135e-19)
(1.04918 1.06912 1.05988e-18)
(0.97806 1.03565 4.40311e-19)
(0.897016 0.997207 0)
(0.80496 0.951684 9.41601e-19)
(0.699732 0.895396 -1.1655e-19)
(0.59425 0.830622 0)
(0.504984 0.763452 0)
(0.434279 0.694301 1.5804e-18)
(0.374166 0.619784 -7.22449e-19)
(0.310928 0.519539 -1.15886e-18)
(0.225983 0.358488 0)
(0.108474 0.180543 8.03736e-19)
(0.0104007 0.435614 -9.24456e-19)
(0.0351901 1.87041 -5.17512e-19)
(0.0670432 2.79745 -6.78002e-19)
(0.237326 0.22301 -1.05762e-20)
(1.00823 0.962961 2.77594e-20)
(1.1529 1.11995 -5.32426e-20)
(1.15045 1.14239 -1.0133e-19)
(1.10147 1.12306 0)
(1.03831 1.09411 7.12662e-19)
(0.967322 1.06063 6.54595e-19)
(0.885791 1.02243 -7.43637e-20)
(0.792834 0.977512 1.39018e-19)
(0.685675 0.922346 2.08087e-18)
(0.576668 0.859089 2.07218e-18)
(0.48205 0.79336 1.43746e-18)
(0.40422 0.722744 1.58456e-18)
(0.33442 0.642497 -1.68592e-18)
(0.25767 0.536239 -1.74129e-18)
(0.149039 0.385903 0)
(0.0538118 0.827491 0)
(0.107257 2.53811 4.49752e-19)
(0.11029 3.19137 0)
(0.11267 3.38376 1.02144e-18)
(0.240276 0.228723 0)
(1.00254 0.985559 0)
(1.1432 1.1436 0)
(1.13968 1.16593 -2.04632e-20)
(1.09076 1.14652 -2.65941e-19)
(1.02754 1.1177 4.91074e-19)
(0.956976 1.08446 4.40916e-19)
(0.874973 1.04671 -7.45774e-20)
(0.781195 1.00267 1.21423e-18)
(0.672246 0.949079 -1.96427e-20)
(0.559854 0.887987 4.11843e-18)
(0.459992 0.825007 -1.6382e-19)
(0.374108 0.754293 1.93425e-19)
(0.295549 0.663962 2.41575e-19)
(0.197927 0.55941 -8.85159e-22)
(0.115069 0.959487 3.45346e-21)
(0.150629 2.69235 -2.32118e-18)
(0.161272 3.2865 -8.83397e-19)
(0.148454 3.42539 4.59011e-19)
(0.133793 3.44854 -5.09885e-19)
(0.159135 0.180045 1.70409e-20)
(0.992181 1.01007 0)
(1.13327 1.16577 5.85039e-20)
(1.12941 1.18806 2.0656e-19)
(1.08075 1.169 -4.62255e-19)
(1.01767 1.14046 -5.02839e-19)
(0.946869 1.10722 -4.78077e-19)
(0.864633 1.07015 9.19313e-19)
(0.770196 1.02725 -1.01083e-18)
(0.659738 0.975681 0)
(0.544217 0.917415 2.03913e-18)
(0.439352 0.858129 -1.17646e-18)
(0.344497 0.791906 0)
(0.256777 0.688381 2.18584e-19)
(0.16586 0.816434 5.26888e-19)
(0.166016 2.45103 -6.372e-19)
(0.228357 3.32092 7.09106e-19)
(0.206233 3.4414 3.95451e-19)
(0.170706 3.46347 4.44543e-19)
(0.147648 3.47389 7.41257e-19)
(0.28043 0.267314 -2.1137e-20)
(0.976275 1.01971 0)
(1.11537 1.19084 -2.86307e-20)
(1.11503 1.22064 -1.62611e-19)
(1.06481 1.20226 4.05061e-19)
(1.00119 1.17423 4.4517e-19)
(0.929476 1.14238 5.99009e-19)
(0.84662 1.10647 7.07188e-20)
(0.750906 1.06566 1.01381e-18)
(0.637863 1.01782 1.8736e-18)
(0.517533 0.965538 1.19198e-19)
(0.404905 0.913612 1.0623e-18)
(0.293177 0.856511 1.8352e-19)
(0.223848 0.979464 -2.23946e-19)
(0.239455 2.3003 -5.09023e-19)
(0.302303 3.32593 5.04145e-19)
(0.287438 3.47423 -5.85923e-19)
(0.249826 3.49628 -3.43722e-19)
(0.211607 3.52344 -3.107e-19)
(0.159126 3.51624 -2.93001e-20)
(0.269446 0.264695 0)
(0.974095 1.04246 1.45479e-20)
(1.10752 1.2141 -1.32189e-21)
(1.1053 1.24385 1.11754e-20)
(1.05478 1.22532 2.35645e-19)
(0.991214 1.19753 -4.16894e-19)
(0.919182 1.16588 -3.69364e-19)
(0.836194 1.13077 6.64399e-20)
(0.740108 1.09138 -1.08398e-18)
(0.626072 1.04625 -2.8366e-20)
(0.503559 0.998551 -3.78927e-18)
(0.387409 0.952301 1.50649e-19)
(0.281134 0.924493 -1.74873e-19)
(0.262919 1.47267 -2.1275e-19)
(0.33952 3.08116 3.45451e-20)
(0.363922 3.47238 2.0712e-21)
(0.322157 3.53207 9.61784e-19)
(0.283843 3.5558 5.05586e-19)
(0.233448 3.57946 -1.89093e-19)
(0.173823 3.57461 -1.65704e-19)
(0.253409 0.262432 5.68372e-20)
(0.970405 1.06771 1.22031e-19)
(1.09917 1.23943 -6.62427e-21)
(1.09504 1.26847 4.32137e-20)
(1.04428 1.24974 0)
(0.980836 1.22198 -5.07235e-19)
(0.908753 1.19058 -5.05337e-19)
(0.825907 1.15622 6.19345e-20)
(0.729771 1.11833 -1.189e-19)
(0.615265 1.0761 -1.78159e-18)
(0.49138 1.03332 -1.78909e-18)
(0.373557 0.993873 -1.27092e-18)
(0.284379 1.05141 -1.33566e-18)
(0.331446 2.15139 1.36647e-18)
(0.426689 3.37682 1.17308e-18)
(0.409102 3.53435 0)
(0.360668 3.57801 0)
(0.32287 3.61949 -1.63613e-19)
(0.268488 3.67918 0)
(0.185783 3.65319 -2.35464e-19)
(0.242582 0.263962 -1.07644e-19)
(0.964557 1.09381 -1.32517e-19)
(1.08943 1.26593 0)
(1.08352 1.29393 1.20178e-20)
(1.03261 1.27478 1.67095e-19)
(0.969398 1.24692 -6.80243e-19)
(0.897583 1.21577 -3.06998e-19)
(0.815093 1.18206 5.09259e-20)
(0.719153 1.1456 -8.41969e-19)
(0.604575 1.10622 9.51794e-20)
(0.48012 1.06848 0)