<?xml version='1.0'?>
<!-- case='blockMesh' region='region0' time='0' index='0' -->
<VTKFile type='UnstructuredGrid' version='0.1' byte_order='LittleEndian' header_type='UInt64'>
  <UnstructuredGrid>
    <Piece NumberOfPoints='16' NumberOfCells='3'>
      <Points>
        <DataArray type='Float32' Name='Points' NumberOfComponents='3' format='ascii'>
0 0 -0.05 0.6 0 -0.05 0 0.2 -0.05
0.6 0.2 -0.05 3 0.2 -0.05 0 1 -0.05
0.6 1 -0.05 3 1 -0.05 0 0 0.05
0.6 0 0.05 0 0.2 0.05 0.6 0.2 0.05
3 0.2 0.05 0 1 0.05 0.6 1 0.05
3 1 0.05
        </DataArray>
      </Points>
      <Cells>
        <DataArray type='Int32' Name='connectivity' format='ascii'>
0 2 10 8 1 3 11 9 2
5 13 10 3 6 14 11 3 6
14 11 4 7 15 12
        </DataArray>
        <DataArray type='Int32' Name='offsets' format='ascii'>
8 16 24
        </DataArray>
        <DataArray type='UInt8' Name='types' format='ascii'>
12 12 12
        </DataArray>
      </Cells>
      <CellData>
        <DataArray type='Int32' Name='cellID' format='ascii'>
0 1 2
        </DataArray>
        <DataArray type='Float32' Name='local-direction0' NumberOfComponents='3' format='ascii'>
0.18 0 0 0.18 0 0 0.72 0 0
        </DataArray>
        <DataArray type='Float32' Name='local-direction1' NumberOfComponents='3' format='ascii'>
0 0.06 0 0 0.24 0 0 0.24 0
        </DataArray>
        <DataArray type='Float32' Name='local-direction2' NumberOfComponents='3' format='ascii'>
0 0 0.03 0 0 0.03 0 0 0.03
        </DataArray>
      </CellData>
    </Piece>
  </UnstructuredGrid>
</VTKFile>
