/*--------------------------------*- C++ -*----------------------------------*\
| =========                 |                                                 |
| \\      /  F ield         | OpenFOAM: The Open Source CFD Toolbox           |
|  \\    /   O peration     | Version:  2306                                  |
|   \\  /    A nd           | Website:  www.openfoam.com                      |
|    \\/     M anipulation  |                                                 |
\*---------------------------------------------------------------------------*/
FoamFile
{
    version     2.0;
    format      ascii;
    arch        "LSB;label=32;scalar=64";
    class       volScalarField;
    location    "42";
    object      p;
}
// * * * * * * * * * * * * * * * * * * * * * * * * * * * * * * * * * * * * * //

dimensions      [0 2 -2 0 0 0 0];

internalField   nonuniform List<scalar> 
8800
(
0.8582
0.810147
0.771767
0.743119
0.722485
0.707716
0.697092
0.689563
0.684691
0.682583
0.683813
0.687987
0.694633
0.703954
0.716697
0.734277
0.758716
0.792325
0.834769
0.891894
0.690737
0.697941
0.706376
0.709786
0.707863
0.702328
0.6956
0.689414
0.684623
0.681725
0.681399
0.683875
0.688359
0.694336
0.701232
0.707842
0.711968
0.711451
0.705384
0.696403
0.667459
0.673634
0.677827
0.68118
0.683669
0.68445
0.683319
0.681144
0.679067
0.678106
0.679023
0.681382
0.684187
0.686385
0.686904
0.685362
0.682506
0.678863
0.674326
0.670541
0.662347
0.665045
0.667759
0.670061
0.671694
0.673002
0.673885
0.674054
0.673745
0.67365
0.674347
0.67546
0.676216
0.676129
0.675314
0.674105
0.672345
0.669837
0.667407
0.665876
0.657184
0.658604
0.660397
0.662441
0.664178
0.665463
0.66646
0.667293
0.667918
0.668449
0.66903
0.669431
0.669419
0.669035
0.668313
0.66709
0.665377
0.663486
0.662157
0.661334
0.652214
0.653127
0.654356
0.655925
0.657561
0.659063
0.660302
0.661335
0.662271
0.663115
0.663722
0.663957
0.663841
0.663363
0.662458
0.661214
0.659841
0.658558
0.657729
0.657186
0.647395
0.648059
0.64901
0.650298
0.651695
0.653143
0.654555
0.655827
0.656963
0.657992
0.65872
0.659
0.658847
0.658277
0.657408
0.656406
0.655359
0.654412
0.653819
0.65342
0.642704
0.643216
0.643989
0.645103
0.64636
0.647712
0.64913
0.650555
0.651911
0.653147
0.65404
0.654404
0.654281
0.653805
0.653127
0.652345
0.651526
0.650811
0.650368
0.650057
0.638078
0.638485
0.639132
0.640123
0.641307
0.642605
0.644012
0.645514
0.647057
0.648539
0.649642
0.650156
0.65019
0.649908
0.649434
0.648844
0.648212
0.647679
0.647343
0.647092
0.633442
0.633773
0.634331
0.635243
0.636377
0.637656
0.639088
0.640672
0.642381
0.644123
0.645504
0.646271
0.646546
0.646487
0.646215
0.645822
0.645363
0.644978
0.644725
0.644517
0.628713
0.628986
0.629484
0.630349
0.631463
0.632762
0.634256
0.635961
0.637867
0.639904
0.641639
0.642742
0.64331
0.643502
0.643445
0.643244
0.642953
0.642695
0.642508
0.642331
0.623812
0.62404
0.624499
0.625348
0.626484
0.627846
0.629446
0.631325
0.633495
0.6359
0.638071
0.639575
0.640479
0.640953
0.64113
0.641122
0.640994
0.640848
0.640715
0.64056
0.618659
0.618852
0.619291
0.620154
0.621352
0.622821
0.624584
0.626709
0.629227
0.632104
0.634806
0.63678
0.638068
0.638853
0.639289
0.63948
0.639517
0.639476
0.639388
0.639249
0.613167
0.61333
0.613765
0.614672
0.615973
0.617599
0.619588
0.622035
0.624999
0.628474
0.63182
0.634352
0.63609
0.637237
0.637962
0.638384
0.638585
0.63864
0.638591
0.638465
0.607232
0.607369
0.607816
0.608794
0.610242
0.61208
0.614363
0.61721
0.620719
0.624918
0.629057
0.632281
0.634574
0.636149
0.63721
0.637886
0.638268
0.638424
0.638413
0.638296
0.600738
0.600848
0.601319
0.602397
0.60404
0.606157
0.608823
0.61219
0.616395
0.621491
0.626597
0.630647
0.633594
0.635672
0.637116
0.638081
0.63867
0.638932
0.638958
0.638846
0.593525
0.593619
0.594122
0.595332
0.597225
0.599698
0.602854
0.606889
0.611969
0.618179
0.62446
0.629504
0.633217
0.635892
0.637798
0.639098
0.639916
0.640292
0.640354
0.640245
0.585379
0.585465
0.586026
0.587383
0.589589
0.592519
0.5963
0.601163
0.607338
0.614931
0.622634
0.628861
0.633501
0.636894
0.639361
0.641067
0.642149
0.642651
0.642749
0.642639
0.576014
0.576076
0.576711
0.578279
0.580893
0.584405
0.588967
0.594869
0.602383
0.611646
0.621099
0.628782
0.634535
0.638787
0.641932
0.644123
0.645523
0.646169
0.646305
0.64619
0.565071
0.565113
0.565847
0.567711
0.570844
0.575109
0.580689
0.587949
0.597202
0.608568
0.620092
0.629445
0.636493
0.641754
0.645674
0.648454
0.650221
0.651025
0.651197
0.651075
0.552018
0.552046
0.552915
0.555162
0.558979
0.564228
0.571124
0.580097
0.591486
0.605396
0.619436
0.630818
0.639412
0.645872
0.650732
0.65421
0.656409
0.657388
0.657592
0.657456
0.536065
0.536086
0.53716
0.539952
0.544709
0.551301
0.559977
0.571223
0.585365
0.602407
0.619404
0.633088
0.643439
0.651274
0.65723
0.66152
0.664206
0.665369
0.665597
0.665438
0.516037
0.516062
0.517472
0.521104
0.527246
0.535759
0.546903
0.561172
0.578794
0.599623
0.620055
0.636366
0.648698
0.658089
0.665243
0.67045
0.673654
0.674992
0.675228
0.675041
0.490115
0.490169
0.492169
0.497192
0.505517
0.516895
0.531536
0.549835
0.571823
0.597153
0.621505
0.640734
0.655232
0.666323
0.674803
0.680997
0.684714
0.686194
0.686418
0.686198
0.455266
0.45544
0.458662
0.466287
0.478359
0.49416
0.513827
0.537455
0.564824
0.595371
0.624047
0.646382
0.663168
0.676045
0.685933
0.693107
0.697265
0.69882
0.699005
0.698749
0.405749
0.406768
0.413261
0.426241
0.44484
0.467483
0.494079
0.524432
0.558141
0.594506
0.627801
0.653371
0.672495
0.687189
0.698528
0.706617
0.71109
0.712623
0.712737
0.712445
0.332803
0.340166
0.35521
0.378126
0.406424
0.438218
0.473288
0.511419
0.552214
0.594972
0.633309
0.662443
0.684213
0.700997
0.713987
0.723031
0.727853
0.729417
0.729516
0.729265
0.254463
0.271284
0.295662
0.32923
0.367721
0.40883
0.452494
0.498658
0.547018
0.596974
0.641439
0.675201
0.700488
0.720041
0.7352
0.745562
0.750731
0.752253
0.752394
0.752296
0.188671
0.208649
0.240891
0.283438
0.330903
0.380814
0.432822
0.486865
0.54264
0.599579
0.649891
0.687981
0.716525
0.738618
0.755659
0.766814
0.772131
0.773907
0.774109
0.774111
0.134782
0.156655
0.194329
0.243306
0.297801
0.355097
0.41448
0.475761
0.538509
0.602089
0.657915
0.700013
0.731474
0.755729
0.774223
0.786482
0.792652
0.794334
0.794562
0.794594
0.0899414
0.11302
0.154423
0.208472
0.268647
0.332012
0.397694
0.465378
0.534482
0.604225
0.665195
0.710962
0.745052
0.771283
0.791214
0.804329
0.811033
0.812901
0.813242
0.813293
0.0516468
0.0754344
0.119675
0.177719
0.242636
0.311163
0.382304
0.45565
0.530494
0.605899
0.671604
0.720741
0.757194
0.785085
0.806021
0.819868
0.827018
0.829264
0.829686
0.829749
0.0178964
0.0421604
0.0886481
0.149974
0.218902
0.291905
0.367883
0.446315
0.526389
0.607013
0.677119
0.729343
0.767873
0.797024
0.818669
0.83297
0.840495
0.843108
0.843644
0.843713
-0.0127723
0.0119064
0.0602344
0.124396
0.196762
0.27369
0.353997
0.437058
0.521967
0.607495
0.681763
0.736868
0.777215
0.807394
0.829546
0.844199
0.852021
0.854887
0.855497
0.855555
-0.0412733
-0.0162129
0.0337281
0.100278
0.175703
0.256124
0.340316
0.42762
0.517059
0.607264
0.685557
0.743416
0.785429
0.816507
0.839053
0.853998
0.86202
0.865023
0.865631
0.865652
-0.06834
-0.042873
0.00857266
0.0771986
0.155364
0.238904
0.326617
0.417832
0.511533
0.606253
0.688511
0.749086
0.792701
0.824614
0.84757
0.862675
0.870804
0.873877
0.874528
0.874513
-0.0942914
-0.0683944
-0.0157989
0.0548777
0.135493
0.221837
0.312751
0.407575
0.5053
0.604412
0.690626
0.753954
0.799214
0.831998
0.855378
0.870667
0.878826
0.881884
0.882537
0.882519
-0.119489
-0.0930216
-0.0394145
0.0331277
0.115925
0.204796
0.298621
0.396778
0.498299
0.601675
0.691881
0.758075
0.805105
0.838863
0.862719
0.878176
0.88635
0.88935
0.889918
0.889855
-0.14402
-0.117158
-0.0623949
0.011797
0.0965644
0.187712
0.28418
0.385405
0.490487
0.597997
0.692248
0.761488
0.810472
0.845338
0.869729
0.885345
0.893456
0.896351
0.896824
0.896696
-0.167991
-0.140608
-0.0848219
-0.00915611
0.0773785
0.170567
0.26942
0.373444
0.481847
0.593332
0.69167
0.764182
0.815377
0.851528
0.876502
0.892217
0.900162
0.902862
0.903216
0.903039
-0.191484
-0.163514
-0.106754
-0.0297473
0.0583605
0.153375
0.254363
0.360924
0.472382
0.587641
0.690073
0.766105
0.81985
0.857531
0.883145
0.898867
0.90652
0.908926
0.909156
0.908944
-0.214511
-0.185881
-0.128204
-0.0499663
0.0395524
0.136172
0.23906
0.347887
0.462118
0.580898
0.687381
0.767165
0.823865
0.863442
0.889811
0.905382
0.91252
0.91453
0.914623
0.914389
-0.236908
-0.20766
-0.1491
-0.0697769
0.0209893
0.119025
0.223575
0.334409
0.45111
0.57312
0.683522
0.767248
0.827334
0.86933
0.896732
0.911979
0.918237
0.919649
0.919586
0.919346
-0.258646
-0.228809
-0.169425
-0.0891248
0.00273048
0.101994
0.207998
0.320566
0.439437
0.564334
0.678447
0.766212
0.830098
0.875167
0.904206
0.919144
0.923966
0.924323
0.924015
0.92382
-0.279795
-0.249292
-0.189153
-0.107976
-0.0151601
0.0851637
0.192415
0.306459
0.427188
0.554606
0.672111
0.763912
0.831917
0.880743
0.912427
0.927704
0.930693
0.929003
0.927955
0.927983
-0.300183
-0.269097
-0.208228
-0.126269
-0.0326238
0.0686172
0.176921
0.292197
0.414479
0.544037
0.664513
0.760198
0.832497
0.885592
0.921134
0.938477
0.940563
0.936009
0.932514
0.931734
-0.319905
-0.288225
-0.226667
-0.144037
-0.0496977
0.0523079
0.161457
0.277718
0.401235
0.53255
0.65551
0.7548
0.831513
0.889068
0.929386
0.951319
0.955661
0.950297
0.940217
0.929962
-0.33889
-0.306665
-0.244603
-0.161481
-0.0666795
0.035893
0.145597
0.262524
0.386904
0.519494
0.644434
0.746896
0.828335
0.89022
0.93497
0.962999
0.970808
0.960673
0.940877
0.932631
-0.356965
-0.324432
-0.261859
-0.178396
-0.0832664
0.0197032
0.129563
0.246948
0.3718
0.505142
0.631413
0.736043
0.82234
0.887927
0.933173
0.960911
0.972439
0.949759
0.882999
0.853212
-0.373664
-0.342766
-0.27806
-0.194239
-0.0986813
0.00425613
0.113658
0.23124
0.356175
0.48965
0.616461
0.721947
0.812474
0.881715
0.91973
0.940268
0.935629
0.883989
0.815372
0.773635
-0.424056
-0.359902
-0.292858
-0.209888
-0.114222
-0.0117196
0.0979045
0.215181
0.339717
0.472614
0.599061
0.704225
0.795141
0.870962
0.883837
0.886632
0.84514
0.779192
0.7039
0.66221
-0.391413
-0.374533
-0.314927
-0.231632
-0.137402
-0.0351031
0.0736848
0.190269
0.313723
0.444935
0.569095
0.672058
0.753887
0.833411
0.826944
0.720468
0.620781
0.550591
0.479334
0.512945
-0.42321
-0.392987
-0.332119
-0.249641
-0.155344
-0.0532579
0.0557158
0.171671
0.294075
0.423454
0.544712
0.643751
0.717081
0.759558
0.715104
0.572949
0.451273
0.363508
0.267559
0.319693
-0.447428
-0.414802
-0.352212
-0.269605
-0.175278
-0.07327
0.035613
0.15076
0.271774
0.398728
0.516192
0.60943
0.673457
0.681946
0.58042
0.41443
0.268513
0.154092
0.0275831
0.0640326
-0.471192
-0.437173
-0.373295
-0.2899
-0.195474
-0.0935987
0.0148049
0.129009
0.248439
0.372614
0.485442
0.572037
0.620619
0.598446
0.444774
0.255003
0.0733838
-0.08842
-0.272155
-0.280023
-0.494481
-0.459993
-0.395228
-0.311153
-0.216558
-0.114875
-0.00707414
0.10607
0.223675
0.344725
0.452296
0.531772
0.561882
0.504505
0.315816
0.10974
-0.0982759
-0.274857
-0.521239
-0.788387
-0.518125
-0.483585
-0.418312
-0.333788
-0.238999
-0.137446
-0.0301744
0.0818906
0.19758
0.315304
0.417401
0.488481
0.499257
0.391734
0.203052
-0.00523956
-0.206701
-0.368794
-0.443631
-0.554873
-0.543088
-0.508424
-0.442883
-0.358141
-0.263299
-0.161967
-0.0553134
0.0555105
0.168978
0.282893
0.379116
0.439713
0.426382
0.284597
0.102191
-0.0894045
-0.254285
-0.343761
-0.366221
-0.382799
-0.569642
-0.534826
-0.469108
-0.384302
-0.289594
-0.188649
-0.0828494
0.0264392
0.137275
0.246742
0.33663
0.383792
0.352287
0.184542
0.0105588
-0.156125
-0.281836
-0.319289
-0.331585
-0.332786
-0.598002
-0.562959
-0.497048
-0.412271
-0.317832
-0.217496
-0.112799
-0.00537308
0.102402
0.206814
0.289603
0.322241
0.271765
0.0918916
-0.0728824
-0.220465
-0.295744
-0.312344
-0.313492
-0.313314
-0.628228
-0.592881
-0.526724
-0.442045
-0.348028
-0.248493
-0.145164
-0.0399419
0.0643689
0.163177
0.237923
0.258691
0.173234
0.00686767
-0.14974
-0.269271
-0.30499
-0.303475
-0.303151
-0.302614
-0.660032
-0.624435
-0.558034
-0.473533
-0.380086
-0.281579
-0.179908
-0.0772403
0.0232111
0.115935
0.182316
0.186703
0.0811324
-0.0729624
-0.210463
-0.284395
-0.29441
-0.296464
-0.296637
-0.296362
-0.692867
-0.657127
-0.590734
-0.506505
-0.413815
-0.316587
-0.216869
-0.117134
-0.0208941
0.0654154
0.123325
0.112558
-0.00361004
-0.143011
-0.25378
-0.288504
-0.294253
-0.293901
-0.293246
-0.292704
-0.726267
-0.690404
-0.624375
-0.540558
-0.44886
-0.353184
-0.255752
-0.159325
-0.0676814
0.0123268
0.0599151
0.0406282
-0.0834934
-0.205327
-0.286042
-0.297282
-0.292995
-0.293076
-0.292766
-0.292109
-0.759373
-0.723599
-0.658047
-0.575092
-0.484665
-0.390879
-0.296084
-0.203315
-0.116709
-0.0426127
-0.00545137
-0.0258405
-0.15532
-0.262673
-0.305171
-0.308722
-0.300574
-0.293399
-0.290581
-0.289911
-0.790603
-0.755599
-0.690816
-0.609161
-0.52044
-0.428944
-0.337179
-0.248373
-0.167167
-0.0988595
-0.0666757
-0.0979245
-0.211804
-0.327909
-0.342179
-0.331853
-0.306957
-0.288503
-0.28241
-0.280834
-0.818396
-0.784444
-0.721595
-0.64158
-0.555116
-0.466395
-0.378123
-0.293587
-0.217827
-0.155736
-0.124003
-0.168671
-0.247181
-0.359841
-0.404232
-0.356619
-0.323826
-0.305692
-0.296702
-0.292881
-0.840682
-0.808431
-0.748245
-0.670942
-0.587368
-0.502026
-0.417733
-0.33784
-0.267397
-0.212105
-0.181448
-0.228041
-0.262257
-0.276044
-0.356837
-0.363433
-0.399008
-0.40421
-0.391502
-0.383798
-0.85528
-0.825674
-0.768953
-0.695337
-0.61561
-0.534404
-0.454686
-0.379745
-0.314694
-0.266722
-0.236153
-0.287431
-0.287588
-0.164893
-0.20723
-0.380384
-0.481649
-0.505564
-0.503764
-0.503078
-0.859537
-0.833882
-0.781792
-0.712894
-0.638064
-0.561929
-0.487346
-0.417787
-0.358391
-0.317743
-0.286115
-0.372613
-0.496202
-0.55207
-0.587532
-0.573365
-0.569312
-0.570576
-0.570186
-0.571129
-0.851571
-0.830671
-0.784617
-0.721984
-0.653142
-0.582869
-0.513989
-0.450126
-0.396661
-0.36314
-0.340488
-0.48522
-0.705457
-0.966733
-0.928895
-0.719183
-0.670457
-0.656912
-0.655377
-0.655229
-0.828929
-0.81295
-0.775634
-0.721318
-0.659677
-0.595929
-0.532896
-0.474439
-0.42652
-0.397815
-0.401665
-0.523833
-0.565084
-0.487996
-0.389976
-0.54557
-0.692508
-0.714532
-0.710472
-0.706383
-0.793781
-0.783258
-0.755278
-0.710919
-0.657429
-0.600472
-0.542841
-0.488482
-0.443673
-0.418549
-0.421696
-0.498062
-0.542706
-0.505326
-0.622725
-0.87226
-0.900236
-0.82694
-0.755433
-0.760277
-0.751991
-0.745991
-0.727873
-0.693235
-0.647971
-0.596898
-0.543542
-0.490998
-0.445717
-0.417648
-0.434075
-0.556579
-0.90542
-1.46682
-1.9021
-2.124
-2.04166
-1.74734
-1.48027
-1.35327
-0.712093
-0.708676
-0.698997
-0.673281
-0.634246
-0.587236
-0.535841
-0.482475
-0.431389
-0.396101
-0.40109
-0.512626
-0.763215
-1.07318
-1.30423
-1.43016
-1.35648
-1.18446
-1.01711
-0.928747
-0.680831
-0.678765
-0.673907
-0.655666
-0.621137
-0.575053
-0.522163
-0.463428
-0.402626
-0.340056
-0.289128
-0.234786
-0.139396
0.0758871
0.320863
0.596427
0.85142
1.01736
1.11605
1.15948
-0.654792
-0.653948
-0.652674
-0.642247
-0.61169
-0.564468
-0.506583
-0.439458
-0.363784
-0.275548
-0.176642
-0.0226667
0.266154
0.685081
1.15653
1.57704
1.88244
2.08281
2.18929
2.22055
-0.638092
-0.63755
-0.637286
-0.632238
-0.606179
-0.556773
-0.492243
-0.415802
-0.326373
-0.22303
-0.0988134
0.027432
0.349802
0.798059
1.30163
1.76279
2.11467
2.32951
2.42996
2.45944
-0.626672
-0.626221
-0.625874
-0.624783
-0.604039
-0.552814
-0.48127
-0.397489
-0.300453
-0.191008
-0.0712012
0.0527098
0.253027
0.689281
1.1576
1.5802
1.89763
2.0829
2.16646
2.18996
-0.620354
-0.618807
-0.617056
-0.618386
-0.604834
-0.5521
-0.473491
-0.383135
-0.28415
-0.173469
-0.0593043
0.0646324
0.21684
0.544739
0.931814
1.25115
1.49434
1.63598
1.69976
1.71711
-0.627779
-0.626125
-0.626722
-0.630144
-0.615173
-0.552534
-0.46423
-0.367694
-0.268129
-0.16022
-0.0529926
0.0548959
0.163394
0.371885
0.655402
0.892729
1.07487
1.17924
1.22344
1.23429
-0.642087
-0.64491
-0.652778
-0.654459
-0.62655
-0.545477
-0.44553
-0.345838
-0.249377
-0.149882
-0.0582351
0.0250814
0.0979743
0.238924
0.434173
0.599414
0.725579
0.798023
0.829184
0.8348
-0.613868
-0.621739
-0.633524
-0.632128
-0.592891
-0.505155
-0.406073
-0.313032
-0.22737
-0.142916
-0.0679289
-0.00434518
0.0513598
0.13937
0.275072
0.386343
0.46686
0.512059
0.529377
0.530996
-0.486491
-0.494899
-0.504591
-0.502039
-0.469732
-0.406373
-0.335379
-0.264813
-0.197585
-0.13097
-0.0713172
-0.0261044
0.0140018
0.0680065
0.153145
0.226951
0.278978
0.30695
0.317947
0.318637
-0.295487
-0.300276
-0.30703
-0.309742
-0.298918
-0.273941
-0.241025
-0.202544
-0.160196
-0.114181
-0.0737879
-0.0448295
-0.0197075
0.0178719
0.072323
0.118143
0.149605
0.166276
0.172493
0.172043
-0.122388
-0.124824
-0.130687
-0.140259
-0.149848
-0.15516
-0.152513
-0.141446
-0.122266
-0.0962058
-0.0720724
-0.054089
-0.0393312
-0.0155397
0.0184051
0.0474494
0.0659574
0.0744799
0.0771285
0.076196
-0.0138064
-0.0151558
-0.020618
-0.0337302
-0.0535647
-0.0730836
-0.0867137
-0.0921136
-0.0885282
-0.0770756
-0.06443
-0.0555228
-0.0491625
-0.0319009
-0.0103852
0.00591985
0.0150984
0.0185638
0.0191289
0.0181232
0.0348952
0.0338569
0.0290406
0.0166846
-0.00310536
-0.0248372
-0.0436677
-0.0565053
-0.0619248
-0.060224
-0.0558564
-0.0531764
-0.051279
-0.0400262
-0.0256622
-0.0166252
-0.0127327
-0.0119011
-0.0122273
-0.0131928
0.0481073
0.0473401
0.0436913
0.0340925
0.0181355
-0.000558416
-0.0184419
-0.0329257
-0.0422108
-0.0457683
-0.0460238
-0.0460744
-0.0457945
-0.0381385
-0.02998
-0.0256355
-0.0243686
-0.0246608
-0.0252543
-0.0261445
0.0448576
0.0443345
0.0418326
0.0351304
0.0236016
0.0092691
-0.00554215
-0.0186619
-0.0285
-0.0338582
-0.0355573
-0.0356936
-0.0348746
-0.0291572
-0.0250419
-0.0241452
-0.0244188
-0.0252885
-0.0259912
-0.0268442
0.0353657
0.03502
0.0334031
0.0290349
0.0212424
0.0110324
-0.000186086
-0.0108575
-0.0195853
-0.0248357
-0.0256577
-0.0238819
-0.0210408
-0.0172409
-0.0165874
-0.0171493
-0.0180434
-0.0188162
-0.0194238
-0.0202712
0.0245732
0.0243356
0.0233244
0.0206287
0.0156399
0.00873204
0.000690379
-0.00741516
-0.0144483
-0.0186873
-0.0179626
-0.0128589
-0.00678672
-0.00530696
-0.00711222
-0.00879629
-0.00946398
-0.00972003
-0.0100983
-0.0109803
0.0147711
0.0145896
0.0139589
0.0123607
0.00930578
0.00480822
-0.000800314
-0.00683014
-0.0123876
-0.0157603
-0.013996
-0.00663672
0.00169659
0.00148467
-0.00240789
-0.00384843
-0.00341808
-0.00258389
-0.00265141
-0.00361117
0.00689062
0.0067345
0.00631296
0.00536078
0.00351411
0.000584116
-0.00334756
-0.0079407
-0.012606
-0.0160394
-0.0152105
-0.00879457
-0.00161339
-0.00323152
-0.00615026
-0.00545728
-0.00358197
-0.00163767
-0.00150749
-0.00256261
0.00113808
0.000997192
0.000678864
5.78747e-05
-0.00112304
-0.00313518
-0.00604355
-0.00987384
-0.0143786
-0.0190122
-0.0216753
-0.0204323
-0.0185614
-0.0211979
-0.0209151
-0.017272
-0.0125791
-0.0099646
-0.00971854
-0.0107002
-0.00260541
-0.0027379
-0.0030154
-0.00350506
-0.00437882
-0.00591514
-0.00837427
-0.0119183
-0.0167693
-0.0233651
-0.0312443
-0.0388192
-0.0453287
-0.0474544
-0.0417055
-0.0342262
-0.0284025
-0.0255051
-0.0252694
-0.0260641
-0.00467695
-0.00480356
-0.00506409
-0.00551558
-0.00622782
-0.00758834
-0.00979275
-0.013159
-0.0183882
-0.0270772
-0.0403026
-0.0569283
-0.0717321
-0.0716671
-0.0608759
-0.051189
-0.0453678
-0.0429877
-0.0427364
-0.0432019
-0.00542127
-0.0055402
-0.00576898
-0.006178
-0.00688156
-0.00803991
-0.0100628
-0.0133512
-0.0187674
-0.0283788
-0.0445389
-0.067407
-0.0863231
-0.0832522
-0.0702657
-0.0604614
-0.0558747
-0.0543002
-0.0539758
-0.0542129
-0.00508626
-0.00518642
-0.00537306
-0.00578672
-0.00642178
-0.00741293
-0.00914958
-0.0120253
-0.0169238
-0.0260191
-0.0416443
-0.0638535
-0.0805079
-0.0753143
-0.0645399
-0.0581429
-0.0558702
-0.0553621
-0.0550475
-0.0551228
-0.00397361
-0.00406763
-0.00423043
-0.00455959
-0.00506248
-0.00586587
-0.00713332
-0.00932367
-0.0131479
-0.0199497
-0.0315576
-0.0469068
-0.0562058
-0.0518123
-0.0463553
-0.0445754
-0.0442234
-0.0445627
-0.0446037
-0.0446708
-0.00233043
-0.00240822
-0.00247992
-0.00266144
-0.00300132
-0.00353525
-0.00438287
-0.00570724
-0.00776048
-0.0113668
-0.0175863
-0.0238362
-0.0258699
-0.0231984
-0.0239935
-0.0244968
-0.0247513
-0.0247019
-0.0251269
-0.0253958
-0.000286838
-0.000343252
-0.000403254
-0.000431138
-0.00049072
-0.000762483
-0.00100357
-0.00101505
-0.00115975
-0.00153036
-0.00210901
-0.00265119
-0.00150022
-0.00144577
-0.00385911
-0.00560843
-0.00742636
-0.00753227
-0.00675639
-0.00602434
-0.082146
0.107523
0.310757
0.481002
0.617327
0.725324
0.815369
0.890825
0.921452
0.905229
0.24736
0.372099
0.502576
0.615371
0.710556
0.789585
0.853182
0.897681
0.920781
0.933572
0.469649
0.554182
0.642868
0.721854
0.789704
0.846386
0.891253
0.924268
0.948471
0.966313
0.630972
0.690927
0.753265
0.810895
0.860831
0.903128
0.937865
0.965911
0.988651
1.00689
0.75726
0.800281
0.847723
0.891326
0.930215
0.964161
0.993244
1.01773
1.03767
1.05561
0.861719
0.895036
0.933796
0.969455
1.00214
1.03154
1.05729
1.07911
1.09624
1.11382
0.954674
0.983706
1.01793
1.05027
1.08031
1.10761
1.13155
1.15147
1.16614
1.18358
1.0435
1.07302
1.10709
1.13933
1.16902
1.1957
1.21868
1.23717
1.24985
1.26731
1.13897
1.17261
1.20908
1.24285
1.27293
1.29912
1.32105
1.33816
1.34963
1.36743
1.25394
1.29254
1.33079
1.36502
1.3943
1.41898
1.43929
1.455
1.46634
1.48468
1.39869
1.43819
1.47376
1.50418
1.52975
1.55181
1.57083
1.58636
1.59901
1.61714
1.57346
1.60551
1.63131
1.65365
1.6737
1.69245
1.71008
1.72663
1.74238
1.76057
1.76107
1.77863
1.79416
1.81075
1.82691
1.84146
1.85449
1.86846
1.88555
1.90523
1.94266
1.95364
1.96579
1.97658
1.98583
1.99539
2.00628
2.01787
2.02782
2.04299
2.1537
2.15571
2.14056
2.12532
2.11894
2.12461
2.14321
2.17363
2.20577
2.23651
2.4596
2.32255
2.24626
2.20417
2.18673
2.19077
2.21812
2.27426
2.37772
2.593
0.754491
0.751114
0.745184
0.735374
0.722426
0.709996
0.699674
0.691712
0.686034
0.682721
0.682312
0.685013
0.690104
0.697333
0.706755
0.718433
0.731557
0.743543
0.750997
0.755715
0.672511
0.678395
0.685298
0.690533
0.693372
0.693035
0.690118
0.686178
0.682586
0.680262
0.680059
0.682215
0.685869
0.6902
0.694129
0.696118
0.694995
0.690897
0.684998
0.677952
0.664872
0.667219
0.670564
0.673465
0.675673
0.677462
0.678405
0.678129
0.677069
0.676131
0.676245
0.677618
0.679393
0.680641
0.680662
0.679472
0.67765
0.675298
0.672135
0.669168
0.659749
0.660835
0.662697
0.665071
0.66702
0.668398
0.669474
0.670306
0.670738
0.670935
0.671363
0.672088
0.672583
0.672511
0.671957
0.67106
0.669638
0.667567
0.665445
0.664028
0.65468
0.655335
0.656439
0.658151
0.659944
0.661543
0.662786
0.663781
0.664658
0.665422
0.666081
0.666528
0.666611
0.666358
0.665758
0.664697
0.663234
0.661642
0.660305
0.659519
0.64979
0.650245
0.651024
0.65231
0.65379
0.655304
0.656743
0.657992
0.659074
0.660067
0.660891
0.661351
0.661405
0.661069
0.660321
0.659273
0.658098
0.656934
0.656006
0.655482
0.64504
0.645381
0.645986
0.647043
0.648316
0.649672
0.65109
0.652496
0.653803
0.654993
0.655988
0.656561
0.656636
0.656271
0.65559
0.654745
0.653844
0.652945
0.652253
0.651869
0.640391
0.640656
0.641144
0.642041
0.643191
0.644462
0.645825
0.64727
0.648743
0.65016
0.65137
0.65209
0.652255
0.652014
0.651521
0.650881
0.65017
0.649484
0.648968
0.648674
0.635771
0.635981
0.636386
0.637174
0.638243
0.639463
0.640808
0.642289
0.64388
0.645516
0.646982
0.647923
0.648289
0.648259
0.647972
0.64753
0.647004
0.646495
0.646113
0.645882
0.631097
0.631267
0.631613
0.632328
0.633351
0.634547
0.635914
0.637464
0.63919
0.641053
0.642823
0.644074
0.644722
0.644944
0.644878
0.644635
0.644294
0.64394
0.643668
0.643483
0.626292
0.626428
0.626733
0.627404
0.628409
0.629627
0.631052
0.632713
0.634622
0.636756
0.638896
0.640544
0.641536
0.642047
0.642227
0.64219
0.642027
0.641819
0.641638
0.64149
0.621276
0.621385
0.621661
0.622313
0.623338
0.624621
0.626151
0.62798
0.630147
0.632639
0.635242
0.637359
0.638745
0.639581
0.640029
0.640212
0.640227
0.640157
0.640054
0.639935
0.615964
0.616049
0.616309
0.616967
0.618046
0.619437
0.621126
0.623191
0.625694
0.628646
0.631823
0.634505
0.636352
0.637561
0.638309
0.638738
0.638942
0.639004
0.63897
0.638874
0.610264
0.610328
0.61058
0.611265
0.612435
0.613981
0.615887
0.618258
0.621182
0.624714
0.628597
0.631961
0.634365
0.636017
0.637114
0.637819
0.638229
0.638428
0.638459
0.638383
0.604068
0.60411
0.60436
0.605093
0.606392
0.608142
0.610333
0.613094
0.616547
0.620782
0.625529
0.629736
0.632821
0.635008
0.636509
0.637522
0.638177
0.638523
0.638618
0.63856
0.597239
0.597257
0.597508
0.598312
0.59978
0.601797
0.604361
0.607633
0.611769
0.616893
0.622701
0.62792
0.631806
0.634615
0.636587
0.637961
0.638893
0.639399
0.639561
0.639519
0.589587
0.589596
0.589855
0.590746
0.592436
0.594786
0.597823
0.601739
0.606736
0.612976
0.62009
0.626521
0.63136
0.634908
0.637458
0.639274
0.640514
0.641197
0.641429
0.641401
0.580847
0.580823
0.581132
0.582155
0.584112
0.586888
0.590528
0.595246
0.6013
0.608897
0.617601
0.625517
0.631524
0.635967
0.639205
0.641561
0.643176
0.644066
0.644375
0.644359
0.570733
0.570683
0.571035
0.572237
0.574537
0.577864
0.58227
0.588021
0.595433
0.604734
0.615383
0.625076
0.632446
0.637939
0.642002
0.644993
0.647049
0.648177
0.648568
0.648563
0.558789
0.558713
0.559138
0.560575
0.563327
0.567372
0.572778
0.579865
0.589002
0.600438
0.613449
0.625237
0.634218
0.640961
0.645994
0.649726
0.652308
0.653711
0.654189
0.654189
0.544363
0.54426
0.544802
0.54656
0.549909
0.554909
0.561636
0.57046
0.581788
0.595845
0.611711
0.626008
0.636886
0.645086
0.651276
0.6559
0.659102
0.660816
0.66138
0.661377
0.526483
0.526356
0.527093
0.529337
0.533547
0.539904
0.548471
0.55966
0.573871
0.591239
0.610504
0.627654
0.640655
0.650501
0.658005
0.663628
0.667521
0.669563
0.670205
0.670189
0.503676
0.503538
0.50461
0.507629
0.51317
0.521545
0.532737
0.547145
0.565068
0.586471
0.609733
0.630162
0.645561
0.657237
0.666185
0.672938
0.677576
0.679941
0.68064
0.680601
0.473603
0.473495
0.475181
0.479565
0.487374
0.498936
0.514024
0.532893
0.555612
0.581912
0.609754
0.633774
0.651753
0.665387
0.675879
0.683839
0.689206
0.691843
0.692563
0.692492
0.432137
0.432203
0.435255
0.442507
0.454542
0.471345
0.492226
0.517117
0.54581
0.577838
0.610764
0.638629
0.659305
0.674972
0.687083
0.696272
0.702275
0.705061
0.705747
0.705635
0.371603
0.37281
0.380299
0.393993
0.413768
0.438892
0.467915
0.500466
0.536239
0.574669
0.61302
0.644842
0.668244
0.685932
0.699637
0.709953
0.716451
0.719214
0.719755
0.719605
0.299059
0.301188
0.31562
0.339302
0.369858
0.404793
0.442716
0.483495
0.526933
0.572529
0.617297
0.654172
0.681293
0.701862
0.717691
0.72945
0.73665
0.739546
0.740157
0.740126
0.224349
0.230831
0.252275
0.286076
0.326947
0.371462
0.418291
0.467364
0.51857
0.571466
0.622858
0.66501
0.696006
0.719623
0.737948
0.751397
0.759147
0.761773
0.762215
0.762272
0.16353
0.172071
0.198118
0.238988
0.28783
0.340481
0.395345
0.452185
0.51081
0.570734
0.628467
0.675567
0.710136
0.736459
0.756809
0.771496
0.779516
0.782465
0.783355
0.78349
0.113881
0.123024
0.152608
0.198652
0.253573
0.312757
0.374374
0.43806
0.503444
0.569926
0.633618
0.685331
0.723133
0.751844
0.773964
0.789825
0.79876
0.802344
0.803418
0.803578
0.0721758
0.0815813
0.113581
0.163589
0.223468
0.288069
0.355395
0.42503
0.496456
0.568932
0.638145
0.694103
0.734856
0.765718
0.789404
0.806253
0.815961
0.819999
0.821252
0.821415
0.0359773
0.0454965
0.0793138
0.132499
0.196461
0.265668
0.337964
0.412853
0.489711
0.567659
0.641957
0.701828
0.745257
0.777939
0.802761
0.820319
0.830719
0.835174
0.836516
0.836692
0.00364263
0.0132129
0.0484201
0.1043
0.17169
0.244854
0.321547
0.401155
0.482964
0.565965
0.645021
0.708546
0.754389
0.788575
0.814202
0.83227
0.843101
0.847908
0.849375
0.849572
-0.0260603
-0.0164269
0.0199224
0.0781309
0.148478
0.225116
0.305715
0.389596
0.475969
0.563723
0.647311
0.714323
0.76239
0.797889
0.824192
0.842653
0.853766
0.858849
0.860385
0.860575
-0.0539357
-0.0442372
-0.00685449
0.0533484
0.126326
0.206068
0.290161
0.377931
0.468546
0.560813
0.648801
0.719216
0.769416
0.80611
0.833011
0.85177
0.863051
0.868285
0.869832
0.87003
-0.0804939
-0.0707111
-0.0323638
0.0295172
0.104913
0.187428
0.274674
0.366002
0.460569
0.557149
0.649459
0.723272
0.775599
0.813477
0.840975
0.860029
0.871437
0.876702
0.878255
0.878364
-0.106161
-0.0962039
-0.0570192
0.00647414
0.0840208
0.169014
0.259116
0.3537
0.451958
0.552666
0.649245
0.726517
0.781055
0.8202
0.848349
0.867703
0.879218
0.884452
0.885948
0.886046
-0.131133
-0.120946
-0.08103
-0.0159696
0.0634958
0.150718
0.243404
0.34097
0.442659
0.547311
0.648116
0.728958
0.785868
0.826419
0.855314
0.874992
0.886586
0.891751
0.89315
0.89322
-0.155475
-0.145082
-0.104379
-0.0379274
0.0432613
0.132492
0.227505
0.327784
0.432648
0.541038
0.64602
0.730582
0.790086
0.832236
0.861979
0.881985
0.89358
0.898598
0.899869
0.899877
-0.179314
-0.168632
-0.127169
-0.0594307
0.0232969
0.114321
0.21142
0.314151
0.42193
0.533832
0.642898
0.731328
0.793717
0.837734
0.868451
0.88876
0.900258
0.905039
0.906119
0.906058
-0.202596
-0.19163
-0.149435
-0.0805071
0.00361287
0.0962326
0.19519
0.300113
0.410531
0.525682
0.638694
0.731113
0.796721
0.842963
0.874853
0.895428
0.906644
0.911033
0.911891
0.911773
-0.225367
-0.214085
-0.171122
-0.101127
-0.0157607
0.0782658
0.178862
0.285735
0.398507
0.516609
0.633366
0.729841
0.799003
0.847937
0.881336
0.902165
0.912834
0.916599
0.917171
0.917
-0.24744
-0.23592
-0.192202
-0.121239
-0.0347705
0.0604935
0.162506
0.271088
0.38593
0.506669
0.626891
0.727414
0.800427
0.85259
0.888062
0.909311
0.919083
0.921787
0.921927
0.921711
-0.26895
-0.257084
-0.212656
-0.14082
-0.0533809
0.0429589
0.146217
0.256255
0.372888
0.495943
0.61928
0.72373
0.800809
0.856735
0.895085
0.917376
0.92606
0.926959
0.926192
0.925902
-0.289738
-0.277553
-0.23246
-0.159819
-0.0715114
0.0257485
0.130076
0.241355
0.359489
0.4845
0.610579
0.718698
0.799942
0.86005
0.902173
0.926804
0.935091
0.933545
0.930583
0.929447
-0.309859
-0.297373
-0.25156
-0.178186
-0.0891253
0.00893147
0.114169
0.22647
0.345845
0.472479
0.600866
0.712238
0.797622
0.862095
0.90863