/*--------------------------------*- C++ -*----------------------------------*\
| =========                 |                                                 |
| \\      /  F ield         | OpenFOAM: The Open Source CFD Toolbox           |
|  \\    /   O peration     | Version:  2306                                  |
|   \\  /    A nd           | Website:  www.openfoam.com                      |
|    \\/     M anipulation  |                                                 |
\*---------------------------------------------------------------------------*/
FoamFile
{
    version     2.0;
    format      ascii;
    arch        "LSB;label=32;scalar=64";
    class       volVectorField;
    location    "42";
    object      U;
}
// * * * * * * * * * * * * * * * * * * * * * * * * * * * * * * * * * * * * * //

dimensions      [0 1 -1 0 0 0 0];

internalField   nonuniform List<vector> 
8800
(
(0.984962 -0.0884523 0)
(1.00213 -0.0568238 0)
(0.999671 -0.0305566 0)
(1.00001 -0.015861 0)
(1.00007 -0.00871612 0)
(1.00006 -0.00507881 0)
(1.00004 -0.00299971 0)
(1.00001 -0.00170011 0)
(0.999997 -0.000800799 0)
(1.00006 -0.000100805 0)
(0.999989 0.000607502 0)
(0.999998 0.00136264 0)
(1.00001 0.00239247 0)
(1.00002 0.00399763 0)
(1.00003 0.0067125 0)
(0.999994 0.0117377 0)
(0.999829 0.0220504 0)
(0.999166 0.0411683 0)
(1.00747 0.0768954 0)
(0.773652 0.0450709 0)
(0.360995 -0.0151724 0)
(1.04556 -0.0742073 0)
(1.08711 -0.0679 0)
(1.04777 -0.0523119 0)
(1.02458 -0.0384074 0)
(1.01237 -0.0261277 0)
(1.00647 -0.016789 0)
(1.00361 -0.0102869 0)
(1.00218 -0.00564672 0)
(1.00151 -0.002045 0)
(1.00138 0.00118179 0)
(1.00174 0.00450454 0)
(1.0027 0.00841257 0)
(1.0047 0.013758 0)
(1.00879 0.0214986 0)
(1.01733 0.0323268 0)
(1.03444 0.0456682 0)
(1.06547 0.0597793 0)
(1.09408 0.0729282 0)
(0.842225 0.0557117 0)
(0.217048 -0.0016474 0)
(1.07584 -0.0503734 0)
(1.09983 -0.048744 0)
(1.06464 -0.0401992 0)
(1.03995 -0.0330388 0)
(1.02374 -0.025746 0)
(1.01397 -0.0183768 0)
(1.0085 -0.0116573 0)
(1.00565 -0.00585872 0)
(1.00448 -0.000546186 0)
(1.0048 0.00458944 0)
(1.00664 0.00991609 0)
(1.01056 0.0159661 0)
(1.01785 0.0228911 0)
(1.0305 0.0301699 0)
(1.05065 0.0371793 0)
(1.08036 0.0445221 0)
(1.1062 0.0517449 0)
(0.942862 0.0413217 0)
(0.216501 0.00166646 0)
(0.175852 -0.000646683 0)
(1.01861 -0.0354396 0)
(1.10555 -0.0414663 0)
(1.07809 -0.0363123 0)
(1.05281 -0.0302939 0)
(1.03552 -0.0245799 0)
(1.02351 -0.0188697 0)
(1.01561 -0.0128577 0)
(1.01096 -0.00672957 0)
(1.00892 -0.000466894 0)
(1.00946 0.00571852 0)
(1.01258 0.0116772 0)
(1.0186 0.0174964 0)
(1.02832 0.0230846 0)
(1.04267 0.0285322 0)
(1.0634 0.0342054 0)
(1.0938 0.0401802 0)
(1.09417 0.0418241 0)
(0.828922 0.0227647 0)
(0.174924 0.000666486 0)
(0.154276 -0.000488716 0)
(0.957165 -0.0255928 0)
(1.10402 -0.0351581 0)
(1.08789 -0.0327331 0)
(1.06134 -0.0281955 0)
(1.04343 -0.02322 0)
(1.03104 -0.0179825 0)
(1.02236 -0.0124937 0)
(1.01675 -0.00660575 0)
(1.01408 -0.000151307 0)
(1.01474 0.00631888 0)
(1.0186 0.0121987 0)
(1.02546 0.0175036 0)
(1.03567 0.0224895 0)
(1.05037 0.0273311 0)
(1.07207 0.0318327 0)
(1.10076 0.0357288 0)
(1.06923 0.0338972 0)
(0.741458 0.014335 0)
(0.152884 0.000510774 0)
(0.139717 -0.000360106 0)
(0.900092 -0.0192553 0)
(1.09631 -0.0302307 0)
(1.09595 -0.0293767 0)
(1.06893 -0.0256471 0)
(1.05021 -0.0215794 0)
(1.03729 -0.0168924 0)
(1.0283 -0.0116727 0)
(1.02233 -0.00598917 0)
(1.01933 0.000334712 0)
(1.01999 0.00668441 0)
(1.02405 0.0123194 0)
(1.03111 0.0173007 0)
(1.04162 0.0218069 0)
(1.05695 0.0257962 0)
(1.07956 0.029313 0)
(1.10308 0.0320109 0)
(1.03743 0.0280116 0)
(0.67499 0.0102087 0)
(0.137757 0.00038591 0)
(0.129029 -0.00027588 0)
(0.850203 -0.014888 0)
(1.08383 -0.0261438 0)
(1.10155 -0.026509 0)
(1.07569 -0.0232346 0)
(1.05646 -0.0196312 0)
(1.0431 -0.0154718 0)
(1.03375 -0.0106386 0)
(1.02754 -0.00518296 0)
(1.02435 0.000938765 0)
(1.0249 0.00705655 0)
(1.02897 0.012405 0)
(1.03617 0.0169765 0)
(1.04699 0.0208826 0)
(1.06271 0.0242481 0)
(1.08577 0.0272869 0)
(1.10235 0.0291184 0)
(1.00286 0.023446 0)
(0.623319 0.00781419 0)
(0.12638 0.000306901 0)
(0.120863 -0.000213529 0)
(0.807697 -0.0117229 0)
(1.06839 -0.0225629 0)
(1.10497 -0.0239131 0)
(1.08185 -0.0210852 0)
(1.06218 -0.0177109 0)
(1.04855 -0.0138551 0)
(1.03894 -0.00936816 0)
(1.03247 -0.0042045 0)
(1.02907 0.00166499 0)
(1.02948 0.00749986 0)
(1.03352 0.0124868 0)
(1.0408 0.0165966 0)
(1.05174 0.0200231 0)
(1.06772 0.0229947 0)
(1.09115 0.0257415 0)
(1.09876 0.026681 0)
(0.967998 0.0198354 0)
(0.581959 0.006246 0)
(0.117378 0.000251088 0)
(0.114519 -0.000165658 0)
(0.771839 -0.00935183 0)
(1.05138 -0.0194061 0)
(1.1072 -0.0215122 0)
(1.08759 -0.0190815 0)
(1.06752 -0.0158768 0)
(1.05366 -0.0121983 0)
(1.04386 -0.00793556 0)
(1.03717 -0.00304091 0)
(1.03353 0.00254223 0)
(1.03376 0.0080512 0)
(1.03771 0.0126449 0)
(1.04495 0.0163504 0)
(1.05591 0.0194064 0)
(1.07213 0.0220449 0)
(1.09529 0.0244614 0)
(1.09244 0.0246158 0)
(0.934215 0.0170136 0)
(0.547929 0.00516062 0)
(0.110016 0.000211309 0)
(0.109556 -0.000127611 0)
(0.741713 -0.00751 0)
(1.03391 -0.0166014 0)
(1.10845 -0.0192433 0)
(1.09301 -0.0171386 0)
(1.07266 -0.0140439 0)
(1.05853 -0.010481 0)
(1.04855 -0.00637657 0)
(1.04166 -0.00169324 0)
(1.03777 0.00360191 0)
(1.03776 0.00875529 0)
(1.04153 0.0129637 0)
(1.04865 0.0162943 0)
(1.05963 0.0190105 0)
(1.07608 0.021357 0)
(1.0982 0.0234285 0)
(1.0838 0.0228559 0)
(0.902138 0.0148237 0)
(0.519218 0.00438759 0)
(0.103816 0.000183018 0)
(0.105686 -9.60786e-05 0)
(0.716513 -0.00602057 0)
(1.01679 -0.0140728 0)
(1.10882 -0.0170422 0)
(1.0983 -0.0152459 0)
(1.07768 -0.0121935 0)
(1.06325 -0.00869614 0)
(1.05307 -0.00469116 0)
(1.04596 -0.000158858 0)
(1.04179 0.0048743 0)
(1.04148 0.00967701 0)
(1.04499 0.0135229 0)
(1.05196 0.0165113 0)
(1.06294 0.0189058 0)
(1.07959 0.020971 0)
(1.09982 0.0226521 0)
(1.07324 0.0213929 0)
(0.871945 0.0131486 0)
(0.494408 0.00383647 0)
(0.0984402 0.000163882 0)
(0.102722 -6.88972e-05 0)
(0.695614 -0.00476721 0)
(1.00065 -0.0117529 0)
(1.10845 -0.0148632 0)
(1.10336 -0.0132976 0)
(1.08263 -0.0102506 0)
(1.0679 -0.00677315 0)
(1.05747 -0.00282536 0)
(1.05008 0.00158728 0)
(1.04557 0.00640515 0)
(1.04489 0.0108958 0)
(1.04809 0.014374 0)
(1.05487 0.0169965 0)
(1.06583 0.0190634 0)
(1.08266 0.0208531 0)
(1.10049 0.0221265 0)
(1.06111 0.0202168 0)
(0.84356 0.0118892 0)
(0.472463 0.00344858 0)
(0.093641 0.000151718 0)
(0.100545 -4.38879e-05 0)
(0.678564 -0.00366009 0)
(0.985964 -0.0095689 0)
(1.10757 -0.0126245 0)
(1.10818 -0.0112096 0)
(1.0876 -0.0081434 0)
(1.07253 -0.00463661 0)
(1.06179 -0.00069504 0)
(1.05405 0.00363663 0)
(1.04912 0.0082636 0)
(1.04797 0.0124397 0)
(1.05081 0.0155495 0)
(1.05737 0.017799 0)
(1.0683 0.0195192 0)
(1.08524 0.0210174 0)
(1.10015 0.0219197 0)
(1.04767 0.0193237 0)
(0.816759 0.0109703 0)
(0.452598 0.0031853 0)
(0.0892266 0.00014511 0)
(0.0990926 -1.91347e-05 0)
(0.665079 -0.00262474 0)
(0.973112 -0.00743623 0)
(1.10646 -0.0102575 0)
(1.11285 -0.00892982 0)
(1.09265 -0.00583251 0)
(1.07719 -0.00224372 0)
(1.06609 0.00175444 0)
(1.05792 0.00605447 0)
(1.05244 0.010524 0)
(1.05074 0.0143928 0)
(1.05314 0.0171139 0)
(1.05944 0.0189779 0)
(1.07034 0.0203309 0)
(1.08733 0.0215141 0)
(1.09874 0.0219805 0)
(1.03305 0.0187016 0)
(0.791239 0.0103321 0)
(0.434192 0.00302138 0)
(0.0850452 0.000143294 0)
(0.0983486 7.14534e-06 0)
(0.655022 -0.00160911 0)
(0.962432 -0.00528692 0)
(1.10546 -0.0076875 0)
(1.1175 -0.00635606 0)
(1.09783 -0.00319174 0)
(1.08198 0.000531045 0)
(1.07046 0.0046257 0)
(1.06178 0.00894495 0)
(1.05565 0.013281 0)
(1.05327 0.0168313 0)
(1.05512 0.0191404 0)
(1.06107 0.0205666 0)
(1.07187 0.0215004 0)
(1.08884 0.0223385 0)
(1.09617 0.0223283 0)
(1.01737 0.018348 0)
(0.766686 0.00993968 0)
(0.416753 0.00294054 0)
(0.0809755 0.000145338 0)
(0.0983369 2.96756e-05 0)
(0.648389 -0.000576992 0)
(0.954245 -0.0030584 0)
(1.10492 -0.00486257 0)
(1.12228 -0.00341904 0)
(1.10324 -0.000131396 0)
(1.08694 0.00377016 0)
(1.0749 0.00801488 0)
(1.06558 0.0124057 0)
(1.05865 0.0166425 0)
(1.05544 0.0198703 0)
(1.05663 0.0217383 0)
(1.06215 0.022679 0)
(1.07285 0.0231316 0)
(1.08961 0.0235459 0)
(1.09227 0.0230137 0)
(1.00063 0.0182969 0)
(0.742739 0.00977553 0)
(0.39984 0.00293826 0)
(0.0769038 0.000151539 0)
(0.0991234 6.8348e-05 0)
(0.645316 0.000495365 0)
(0.948868 -0.000668587 0)
(1.10519 -0.00170666 0)
(1.12739 -5.53828e-05 0)
(1.10894 0.00341445 0)
(1.09214 0.00758153 0)
(1.07948 0.0120591 0)
(1.06938 0.0165798 0)
(1.06146 0.0207456 0)
(1.05724 0.0236388 0)
(1.05762 0.0250139 0)
(1.06264 0.025408 0)
(1.07318 0.0253425 0)
(1.08942 0.0252771 0)
(1.08694 0.0240773 0)
(0.982726 0.0185627 0)
(0.719006 0.00983851 0)
(0.383036 0.00301112 0)
(0.0727238 0.000161346 0)
(0.10087 0.000103684 0)
(0.64619 0.00170535 0)
(0.946686 0.00193817 0)
(1.10669 0.00190421 0)
(1.13296 0.00388663 0)
(1.11507 0.00764369 0)
(1.09771 0.012173 0)
(1.0843 0.0169562 0)
(1.07321 0.0216592 0)
(1.06407 0.0257676 0)
(1.05862 0.0282889 0)
(1.05805 0.0290806 0)
(1.06245 0.0288574 0)
(1.07275 0.0282175 0)
(1.08812 0.0275596 0)
(1.07995 0.025542 0)
(0.96354 0.0191707 0)
(0.695073 0.0101266 0)
(0.365941 0.00315741 0)
(0.0683342 0.000174549 0)
(0.103678 0.000153301 0)
(0.651405 0.00317367 0)
(0.948223 0.00493207 0)
(1.10997 0.00605032 0)
(1.13925 0.0085328 0)
(1.12178 0.0127413 0)
(1.10377 0.0177066 0)
(1.08946 0.022876 0)
(1.07723 0.0278336 0)
(1.06663 0.0319042 0)
(1.05963 0.0340024 0)
(1.05786 0.0341631 0)
(1.06148 0.0332107 0)
(1.07146 0.031891 0)
(1.08552 0.0305231 0)
(1.07114 0.0275658 0)
(0.942841 0.0202115 0)
(0.670463 0.0106745 0)
(0.348133 0.00338353 0)
(0.0636332 0.000191191 0)
(0.107818 0.000219323 0)
(0.661443 0.00489055 0)
(0.953806 0.00838462 0)
(1.11542 0.0108653 0)
(1.1465 0.0140021 0)
(1.12921 0.0188159 0)
(1.1104 0.0243776 0)
(1.09494 0.0300862 0)
(1.08119 0.0353815 0)
(1.06873 0.0394125 0)
(1.05994 0.0410039 0)
(1.05682 0.0403999 0)
(1.05949 0.0386298 0)
(1.06907 0.0365472 0)
(1.08145 0.0343954 0)
(1.06021 0.0302572 0)
(0.920232 0.0217473 0)
(0.644584 0.0115033 0)
(0.329146 0.00368863 0)
(0.0585227 0.000209565 0)
(0.113644 0.000308774 0)
(0.676926 0.00700638 0)
(0.964191 0.0125657 0)
(1.12358 0.0165853 0)
(1.15503 0.0205818 0)
(1.13766 0.026237 0)
(1.1179 0.0325867 0)
(1.10104 0.0389723 0)
(1.08545 0.0446558 0)
(1.07078 0.048583 0)
(1.05978 0.0495232 0)
(1.05496 0.0480161 0)
(1.05648 0.0453298 0)
(1.0655 0.0423778 0)
(1.07579 0.0393064 0)
(1.0468 0.0337904 0)
(0.895239 0.0239288 0)
(0.616714 0.012678 0)
(0.308449 0.00408312 0)
(0.0529218 0.000228714 0)
(0.121634 0.000433246 0)
(0.698728 0.00970726 0)
(0.980073 0.0176486 0)
(1.13509 0.0234787 0)
(1.16538 0.0286508 0)
(1.14747 0.0354783 0)
(1.12642 0.0427968 0)
(1.10768 0.0499505 0)
(1.08973 0.0560215 0)
(1.07232 0.0597642 0)
(1.05876 0.0598818 0)
(1.05201 0.0572559 0)
(1.05223 0.0534999 0)
(1.06055 0.0495806 0)
(1.06831 0.0455254 0)
(1.03053 0.0384334 0)
(0.867192 0.0269218 0)
(0.585918 0.0142718 0)
(0.285396 0.00457578 0)
(0.0467486 0.00024831 0)
(0.132506 0.000615865 0)
(0.728022 0.0133419 0)
(1.00247 0.0240752 0)
(1.15074 0.0320421 0)
(1.17822 0.038747 0)
(1.15898 0.0471368 0)
(1.13609 0.0556358 0)
(1.11491 0.0636494 0)
(1.09401 0.070039 0)
(1.07332 0.0733367 0)
(1.05679 0.0723318 0)
(1.04781 0.0683487 0)
(1.04658 0.0633215 0)
(1.05408 0.0583159 0)
(1.05876 0.0531782 0)
(1.01091 0.0443591 0)
(0.835247 0.0308273 0)
(0.551075 0.0162894 0)
(0.259313 0.00514986 0)
(0.0399299 0.000267353 0)
(0.147455 0.000903769 0)
(0.766648 0.0185599 0)
(1.03287 0.0326713 0)
(1.17143 0.0432147 0)
(1.19437 0.051961 0)
(1.17263 0.0621747 0)
(1.14711 0.0720219 0)
(1.1227 0.0808401 0)
(1.09813 0.0872625 0)
(1.07357 0.0897157 0)
(1.05368 0.087201 0)
(1.04227 0.0815707 0)
(1.03944 0.0751037 0)
(1.04594 0.0687905 0)
(1.04672 0.0624488 0)
(0.987267 0.0516808 0)
(0.7984 0.0356744 0)
(0.511035 0.0186507 0)
(0.229701 0.00575698 0)
(0.0324542 0.000283094 0)
(0.168596 0.00139904 0)
(0.817629 0.0265256 0)
(1.074 0.045051 0)
(1.19815 0.0589068 0)
(1.21436 0.0703999 0)
(1.18854 0.0823621 0)
(1.15925 0.0934333 0)
(1.13057 0.102577 0)
(1.10151 0.10837 0)
(1.07252 0.109275 0)
(1.04898 0.104659 0)
(1.03506 0.0970354 0)
(1.03062 0.0889368 0)
(1.03578 0.0813051 0)
(1.03176 0.0734516 0)
(0.958735 0.0603484 0)
(0.755445 0.0412839 0)
(0.464967 0.0211695 0)
(0.196536 0.00631225 0)
(0.0244351 0.000289724 0)
(0.199287 0.00250719 0)
(0.886617 0.0400299 0)
(1.12882 0.0650751 0)
(1.23135 0.0826597 0)
(1.23809 0.0969604 0)
(1.2062 0.11018 0)
(1.17176 0.121524 0)
(1.13779 0.12986 0)
(1.10359 0.13394 0)
(1.0698 0.1323 0)
(1.04246 0.124841 0)
(1.02601 0.114778 0)
(1.02007 0.104815 0)
(1.02366 0.0958019 0)
(1.01327 0.0862272 0)
(0.924102 0.0701523 0)
(0.705213 0.0472535 0)
(0.413081 0.0236388 0)
(0.160913 0.00675957 0)
(0.0162917 0.000279035 0)
(0.24114 0.00872064 9.3856e-20)
(0.97761 0.067097 8.37763e-20)
(1.19507 0.0990735 -2.93317e-20)
(1.26832 0.118166 0)
(1.26292 0.135203 -7.46269e-34)
(1.22353 0.147859 1.08985e-20)
(1.18306 0.157705 -1.95277e-20)
(1.14322 0.163891 0)
(1.10344 0.165246 3.98134e-34)
(1.06445 0.160347 -2.38926e-20)
(1.03297 0.149632 0)
(1.01371 0.136941 -2.81899e-20)
(1.00604 0.12501 -8.29856e-20)
(1.00783 0.114823 -3.91443e-20)
(0.989162 0.103693 -1.17392e-20)
(0.87914 0.0836253 -6.96477e-21)
(0.642145 0.0550586 0)
(0.352757 0.0267878 4.86646e-21)
(0.123663 0.00785319 5.72733e-21)
(0.00858078 0.000431799 1.01499e-19)
(0.270039 0.024005 7.03442e-20)
(1.05253 0.109647 1.02317e-21)
(1.24917 0.147733 7.88432e-21)
(1.30193 0.166887 0)
(1.28478 0.183647 -3.81833e-20)
(1.23837 0.194206 -4.32924e-20)
(1.19184 0.201855 -1.9809e-20)
(1.14599 0.205707 -7.02378e-20)
(1.10026 0.204424 0)
(1.0554 0.196511 1.02287e-19)
(1.01883 0.182788 1.01209e-19)
(0.995791 0.167644 3.00548e-20)
(0.985361 0.153687 1.09213e-19)
(0.982377 0.141021 1.53013e-19)
(0.952246 0.126513 0)
(0.81901 0.101285 2.1507e-19)
(0.568479 0.0651032 3.0822e-19)
(0.291085 0.031088 3.41551e-19)
(0.0897327 0.00907005 -3.89118e-19)
(0.00189616 0.00025717 -7.19297e-21)
(0.270989 0.0398449 0)
(1.09962 0.165076 1.28366e-20)
(1.28562 0.207636 0)
(1.32804 0.226435 -5.04786e-20)
(1.30191 0.239867 0)
(1.24955 0.24668 -8.55918e-20)
(1.1974 0.250807 4.06362e-20)
(1.14585 0.251329 -1.41977e-19)
(1.09442 0.246656 -3.12799e-21)
(1.04388 0.235142 5.3151e-20)
(1.0023 0.217933 2.23158e-19)
(0.975502 0.199978 -5.94707e-22)
(0.961992 0.184014 -7.95437e-20)
(0.954583 0.169811 -1.44896e-19)
(0.9168 0.152505 1.716e-19)
(0.775147 0.121125 -3.02874e-19)
(0.528503 0.0774414 -3.99017e-20)
(0.267782 0.0375708 0)
(0.0817641 0.0111984 6.63033e-24)
(0.000583927 0.000146138 0)
(0.264632 0.0535248 1.71228e-19)
(1.12478 0.223785 -8.3984e-20)
(1.30819 0.272386 -6.42576e-20)
(1.34513 0.291236 2.40682e-20)
(1.31283 0.30056 -4.05411e-20)
(1.25607 0.303083 1.79882e-19)
(1.19933 0.303082 8.51068e-20)
(1.14282 0.299682 0)
(1.08621 0.291104 -2.67652e-19)
(1.0303 0.275561 0)
(0.983914 0.25474 -1.17538e-19)
(0.953502 0.234217 -1.44733e-19)
(0.937395 0.216719 -8.69151e-20)
(0.926839 0.201256 -1.05543e-19)
(0.883682 0.180801 0)
(0.743308 0.143613 0)
(0.510539 0.0939922 -2.60994e-19)
(0.267719 0.0482305 5.15198e-20)
(0.0873227 0.0155181 -3.01563e-20)
(0.00216972 0.000404282 -3.4723e-20)
(0.257306 0.0656425 -7.2525e-20)
(1.13574 0.282404 0)
(1.32066 0.338166 1.33764e-19)
(1.35429 0.35743 6.84018e-20)
(1.31769 0.362905 9.34726e-20)
(1.25778 0.361188 0)
(1.19744 0.35702 8.36713e-20)
(1.13681 0.349528 1.57834e-19)
(1.07568 0.336858 1.37462e-19)
(1.01497 0.317271 2.51317e-19)
(0.964227 0.293247 0)
(0.930563 0.270777 -3.12869e-19)
(0.911923 0.252032 -1.88282e-19)
(0.897912 0.234593 -1.11162e-19)
(0.851214 0.210159 6.83233e-19)
(0.71822 0.168654 8.11369e-20)
(0.503542 0.114202 3.80703e-19)
(0.276245 0.0620151 -1.79303e-18)
(0.0990244 0.0222524 1.06378e-18)
(0.0057697 0.00134967 -1.26268e-18)
(0.250458 0.0766433 -3.95932e-20)
(1.1378 0.339064 1.35478e-20)
(1.3258 0.403035 -1.49291e-20)
(1.3572 0.423171 -7.09169e-20)
(1.31749 0.425139 -7.99031e-20)
(1.25525 0.419392 3.51802e-21)
(1.19203 0.411209 -9.0649e-20)
(1.12799 0.399688 1.63559e-19)
(1.06304 0.382998 -2.96012e-19)
(0.998226 0.359618 0)
(0.943795 0.332765 -1.41936e-19)
(0.907158 0.308484 -3.22235e-21)
(0.885507 0.288054 -2.06131e-19)
(0.867294 0.267922 0)
(0.818635 0.239816 -1.48134e-19)
(0.696186 0.195218 -3.51301e-19)
(0.499742 0.136457 9.39068e-19)
(0.286282 0.0779735 -9.20509e-19)
(0.111336 0.0305639 1.30626e-18)
(0.0097118 0.00278472 -1.33677e-18)
(0.244819 0.0868639 -8.09874e-22)
(1.13434 0.393081 -5.95916e-21)
(1.32572 0.465964 -4.32688e-20)
(1.35533 0.487265 2.90392e-20)
(1.3133 0.48614 -4.0291e-20)
(1.24928 0.476639 0)
(1.18372 0.464649 -8.47516e-20)
(1.11682 0.449268 -1.71311e-19)
(1.04865 0.428763 -1.53946e-19)
(0.980438 0.401833 0)
(0.922856 0.37214 -1.47368e-19)
(0.883413 0.345551 -1.82268e-19)
(0.858391 0.32259 2.23605e-19)
(0.836112 0.299402 -1.35802e-19)
(0.787097 0.268501 -6.46398e-19)
(0.67507 0.222098 3.85268e-19)
(0.494809 0.159597 1.15075e-19)
(0.293627 0.0946489 0)
(0.121261 0.0394772 -1.26301e-18)
(0.0130474 0.0044078 -4.56099e-20)
(0.240426 0.0966158 5.30485e-22)
(1.12754 0.444245 9.37545e-22)
(1.32184 0.526446 2.05121e-20)
(1.34988 0.548998 1.02581e-19)
(1.30604 0.545169 -1.49356e-19)
(1.24062 0.532251 1.73012e-19)
(1.17312 0.516687 1.82206e-19)
(1.10384 0.49768 -2.73499e-19)
(1.03296 0.473618 9.46485e-20)
(0.961829 0.443265 -6.17728e-19)
(0.901432 0.410412 -1.66477e-19)
(0.859236 0.380816 0)
(0.830877 0.354739 2.42281e-19)
(0.805159 0.328621 2.90008e-19)
(0.756879 0.295765 3.4726e-19)
(0.654184 0.247871 -4.18336e-19)
(0.487227 0.181968 -1.23393e-19)
(0.296359 0.11074 1.4473e-19)
(0.12737 0.0479312 0)
(0.0153728 0.00593745 -9.88606e-20)
(0.237137 0.10603 -4.97705e-20)
(1.1189 0.492666 1.86836e-20)
(1.31541 0.584729 -1.83887e-20)
(1.34182 0.608032 6.23895e-20)
(1.29648 0.6018 -6.7569e-20)
(1.2299 0.585762 -8.08872e-21)
(1.16082 0.566917 -1.98591e-19)
(1.08953 0.544587 -9.87984e-20)
(1.01632 0.517234 -2.66974e-19)
(0.942574 0.483502 4.87875e-22)
(0.87951 0.44711 -5.20691e-19)
(0.834641 0.414015 4.38674e-19)
(0.803269 0.384731 -2.6566e-19)
(0.774968 0.356176 3.19035e-19)
(0.727834 0.321991 0)
(0.632279 0.272486 -2.26323e-19)
(0.476487 0.203137 -9.52686e-22)
(0.294148 0.125311 -6.29194e-19)
(0.128813 0.0550704 -9.2097e-20)
(0.0164956 0.00713966 0)
(0.234822 0.115232 0)
(1.10931 0.538556 2.71884e-20)
(1.30699 0.640125 -1.63736e-20)
(1.33185 0.66419 -5.7058e-20)
(1.2852 0.655822 -8.49285e-20)
(1.2177 0.636934 0)
(1.1473 0.615119 -9.04381e-20)
(1.07431 0.589802 -2.32105e-21)
(0.99904 0.559443 5.71125e-19)
(0.922813 0.522358 -8.46838e-20)
(0.85712 0.482171 -3.75592e-19)
(0.809706 0.44537 2.2803e-19)
(0.775842 0.413002 -4.1953e-21)
(0.745822 0.382372 3.38704e-19)
(0.69982 0.34678 2.0902e-19)
(0.609539 0.295091 -4.88235e-19)
(0.462498 0.221733 5.77393e-19)
(0.287195 0.137195 1.70214e-19)
(0.126387 0.0601847 6.98401e-19)
(0.0165052 0.00785018 -1.8424e-18)
(0.233415 0.124371 -2.6829e-20)
(1.09938 0.582117 3.04464e-20)
(1.29737 0.692567 -1.57604e-20)
(1.32047 0.717469 4.43477e-20)
(1.27273 0.70713 0)
(1.20445 0.685654 -7.94101e-20)
(1.13296 0.6612 3.02465e-19)
(1.05853 0.633246 2.15767e-19)
(0.981367 0.600161 0)
(0.902687 0.559796 -1.21685e-18)
(0.834348 0.51573 1.01376e-18)
(0.784534 0.475215 0)
(0.74864 0.439887 3.0924e-19)
(0.71747 0.407237 -4.11773e-21)
(0.672366 0.369841 -6.65936e-19)
(0.585871 0.315179 2.60643e-19)
(0.445367 0.2372 0)
(0.275914 0.146108 9.16868e-19)
(0.12044 0.0630139 0)
(0.0154589 0.00797055 -8.69573e-19)
(0.232747 0.13349 3.52649e-20)
(1.08959 0.623489 4.83309e-20)
(1.28675 0.742173 -1.34409e-20)
(1.30809 0.767848 0)
(1.25944 0.755704 -7.16226e-20)
(1.19055 0.731914 0)
(1.11816 0.705144 -2.98324e-19)
(1.04245 0.674898 -1.0026e-19)
(0.963515 0.639367 1.00442e-19)
(0.882372 0.595866 -6.012e-19)
(0.811319 0.547987 1.04587e-19)
(0.759201 0.503833 0)
(0.721609 0.465585 -6.59409e-19)
(0.689591 0.430759 4.13926e-21)
(0.64501 0.391089 0)
(0.561072 0.332856 3.9043e-21)
(0.425311 0.249425 8.38689e-19)
(0.260874 0.151584 -7.91636e-19)
(0.111611 0.0637236 2.31845e-19)
(0.0137247 0.00767394 0)
(0.232519 0.142478 0)
(1.08024 0.662748 6.40711e-20)
(1.27548 0.789083 3.30673e-20)
(1.29509 0.81539 -4.76966e-21)
(1.24565 0.801594 -2.40722e-20)
(1.17629 0.775744 -1.76507e-19)
(1.10318 0.746976 1.11298e-19)
(1.02633 0.714765 -1.1782e-19)
(0.945687 0.677057 4.47214e-19)
(0.862036 0.630642 -9.5853e-19)
(0.788168 0.579126 -7.12026e-21)
(0.733753 0.531415 -2.89016e-19)
(0.694649 0.490188 1.06813e-18)
(0.661935 0.452928 -4.84004e-21)
(0.617556 0.410462 -5.14822e-19)
(0.53504 0.347918 -9.19546e-19)
(0.402568 0.258287 0)
(0.242536 0.153668 0)
(0.100472 0.0622606 2.50923e-19)
(0.0115728 0.00694848 -1.44706e-19)
(0.232862 0.151499 5.61921e-20)
(1.0713 0.699813 -1.52479e-19)
(1.26384 0.833362 -3.6064e-20)
(1.28174 0.86016 0)
(1.23163 0.844868 -3.15455e-21)
(1.16193 0.817208 -1.61067e-19)
(1.08823 0.786742 2.68297e-19)
(1.01037 0.752865 4.63335e-19)
(0.928059 0.713251 5.80038e-19)
(0.841863 0.664199 -7.81564e-19)
(0.76505 0.609302 -8.66782e-19)
(0.708241 0.558114 7.72002e-19)
(0.667659 0.513749 0)
(0.634288 0.473671 -2.33639e-19)
(0.589837 0.427799 -5.5657e-19)
(0.507889 0.360115 -6.59543e-19)
(0.377471 0.263473 -7.81569e-19)
(0.221652 0.152313 2.30385e-19)
(0.087595 0.0586138 -1.34907e-19)
(0.0090411 0.00580787 5.21622e-22)
(0.233347 0.1604 0)
(1.06298 0.735151 0)
(1.25207 0.875103 5.16673e-21)
(1.26825 0.902254 0)
(1.21758 0.885622 5.19367e-20)
(1.14766 0.856389 1.08705e-19)
(1.0735 0.82449 0)
(0.994721 0.789219 5.48783e-20)
(0.910798 0.747963 9.65481e-19)
(0.822032 0.696601 -1.79391e-18)
(0.742127 0.638644 0)
(0.682727 0.584072 -4.9567e-19)
(0.640537 0.536333 -5.86437e-21)
(0.606434 0.492936 -4.71451e-21)
(0.561689 0.442938 5.93745e-19)
(0.479658 0.369239 -6.97969e-22)
(0.35011 0.264855 -1.68057e-18)
(0.198709 0.147488 4.95174e-19)
(0.0740619 0.0532802 1.45674e-19)
(0.00646134 0.00442776 0)
(0.23388 0.169158 -2.40504e-19)
(1.05505 0.768827 -1.12963e-19)
(1.24026 0.914387 -1.32602e-19)
(1.25478 0.941783 8.06895e-20)
(1.20366 0.923938 5.9878e-20)
(1.13364 0.893363 0)
(1.05913 0.860277 1.60809e-19)
(0.979519 0.823853 -1.21819e-19)
(0.894042 0.781216 7.70593e-21)
(0.802718 0.727905 1.31844e-19)
(0.719562 0.667257 1.11808e-18)
(0.657288 0.609438 -1.73658e-19)
(0.613197 0.558075 -6.55463e-19)
(0.578137 0.510722 -2.71424e-19)
(0.532904 0.455672 3.22752e-19)
(0.45044 0.374966 -3.30084e-22)
(0.321539 0.262338 4.52566e-19)
(0.175063 0.139689 -1.06414e-18)
(0.0605924 0.0467311 1.25244e-18)
(0.00399197 0.00293511 1.79842e-19)
(0.234286 0.177647 9.38449e-20)
(1.04752 0.800932 -6.55018e-20)
(1.22856 0.951319 1.2279e-20)
(1.24146 0.978876 6.73879e-20)
(1.19001 0.959932 8.12826e-22)
(1.11998 0.92821 -1.87175e-19)
(1.04523 0.894151 4.64618e-20)
(0.964868 0.85678 -5.06416e-19)
(0.877919 0.813012 -1.05881e-18)
(0.784064 0.758126 -1.06496e-18)
(0.697521 0.695219 0)
(0.632018 0.634363 -7.60168e-19)
(0.585574 0.579178 9.42485e-19)
(0.549111 0.527097 0)
(0.503167 0.46573 -6.90024e-19)
(0.420299 0.376785 4.1224e-19)
(0.292474 0.255645 -4.85728e-19)
(0.151961 0.129306 -5.72242e-19)
(0.0480872 0.0395299 -1.00795e-18)
(0.00180327 0.00146752 -7.74066e-19)
(0.235024 0.185992 -1.081e-19)
(1.04026 0.831451 7.00468e-20)
(1.21705 0.985976 1.57057e-19)
(1.2284 1.01362 1.07817e-19)
(1.17672 0.993701 5.5495e-21)
(1.10678 0.961021 -9.88367e-20)
(1.03187 0.926159 1.54456e-19)
(0.950848 0.888035 -5.18481e-19)
(0.862513 0.843371 -6.25152e-19)
(0.766201 0.787287 1.11114e-18)
(0.676154 0.722585 2.44535e-18)
(0.607042 0.658994 0)
(0.557654 0.599898 0)
(0.519027 0.542277 -3.11814e-19)
(0.471913 0.472861 0)
(0.389038 0.373796 8.86358e-19)
(0.263929 0.243974 1.04444e-18)
(0.131282 0.116464 0)
(0.0378089 0.03226 0)
(4.05558e-05 0.00019056 8.31192e-19)
(0.23541 0.193892 1.25638e-19)
(1.03328 0.860378 1.03218e-19)
(1.20581 1.01848 1.15356e-19)
(1.21568 1.04614 -1.15497e-19)
(1.16386 1.02535 -9.04327e-21)
(1.09409 0.991868 9.86145e-20)
(1.0191 0.956354 -2.1061e-19)
(0.937519 0.917636 -2.35292e-23)
(0.847905 0.872297 -9.96773e-21)
(0.749231 0.815381 -1.05436e-20)
(0.655626 0.749389 1.2567e-18)
(0.582524 0.683454 0)
(0.529509 0.620526 9.49272e-19)
(0.487588 0.556654 6.6361e-19)
(0.43825 0.477117 1.6068e-18)
(0.355796 0.364849 4.76415e-19)
(0.236765 0.225166 -5.625e-19)
(0.116718 0.0991826 -3.29241e-19)
(0.0344739 0.024076 0)
(0.000136962 -0.000438056 8.9228e-19)
(0.236088 0.201798 -2.87522e-19)
(1.02657 0.887813 0)
(1.19484 1.0489 1.41814e-19)
(1.20333 1.07653 -1.0247e-19)
(1.15151 1.05498 3.27243e-20)
(1.08195 1.02083 -9.99012e-20)
(1.00698 0.984781 4.04807e-19)
(0.924914 0.945607 -4.27241e-20)
(0.834142 0.899796 0)
(0.733238 0.84238 -1.21944e-18)
(0.63609 0.775629 -2.72319e-18)
(0.558661 0.707847 1.11321e-19)
(0.501326 0.641336 1.30373e-18)
(0.454657 0.570785 0)
(0.401083 0.479199 1.08195e-18)
(0.318284 0.349352 0)
(0.209088 0.194946 0)
(0.111747 0.0656999 -3.56351e-19)
(0.0580898 0.00407716 0)
(0.0265951 0.0105533 2.38853e-19)
(0.236394 0.209093 -3.25899e-19)
(1.02008 0.914086 0)
(1.18414 1.07743 2.40414e-19)
(1.19133 1.10504 0)
(1.13962 1.08285 -2.64283e-20)
(1.0703 1.04819 0)
(0.995431 1.01174 1.95113e-20)
(0.912946 0.972283 7.03028e-20)
(0.821116 0.926233 7.75526e-20)
(0.718079 0.868672 -1.33215e-18)
(0.617406 0.801739 8.1449e-20)
(0.535275 0.732764 8.92455e-19)
(0.472805 0.663003 1.26793e-18)
(0.419542 0.585523 1.71005e-19)
(0.358638 0.480842 8.45825e-19)
(0.271988 0.328805 0)
(0.169817 0.151594 1.18679e-18)
(0.0888599 0.0101062 -6.9097e-19)
(0.0418382 0.0459523 7.92576e-19)
(-0.059884 0.431172 -9.40585e-19)
(0.236667 0.216185 2.72618e-19)
(1.01356 0.938981 4.23222e-19)
(1.17366 1.10439 0)
(1.17955 1.13209 1.01715e-20)
(1.12801 1.10953 9.01378e-20)
(1.05891 1.07463 9.84414e-20)
(0.984164 1.03804 1.37572e-19)
(0.901229 0.998604 0)
(0.808323 0.952702 5.1325e-19)
(0.703104 0.895552 -6.94617e-20)
(0.598678 0.829166 0)
(0.511206 0.759938 0)
(0.442385 0.687241 1.13283e-18)
(0.380404 0.60214 -5.28059e-19)
(0.307978 0.484652 -8.54759e-19)
(0.212226 0.308197 0)
(0.0979873 0.143977 5.91216e-19)
(0.00816284 0.440348 -6.79327e-19)
(0.0329693 1.88603 -3.73977e-19)
(0.0642063 2.80602 -4.93491e-19)
(0.236707 0.222502 -2.06752e-19)
(1.00711 0.96266 -5.47559e-19)
(1.16341 1.12978 1.45961e-19)
(1.168 1.15755 1.12591e-19)
(1.11674 1.13482 0)
(1.04783 1.09985 4.52729e-20)
(0.973371 1.06334 1.83991e-19)
(0.88994 1.02413 -3.37527e-20)
(0.796022 0.978683 7.63593e-20)
(0.688687 0.922411 1.26596e-18)
(0.580505 0.857236 1.36696e-18)
(0.487435 0.789009 9.93773e-19)
(0.411045 0.713848 1.13532e-18)
(0.339046 0.619396 -1.23354e-18)
(0.255298 0.493663 -1.28619e-18)
(0.139358 0.339311 0)
(0.0491805 0.833734 0)
(0.102447 2.54971 3.25955e-19)
(0.105092 3.19827 0)
(0.10753 3.38642 7.24461e-19)
(0.239783 0.228323 0)
(1.00131 0.985377 0)
(1.15312 1.15346 0)
(1.15645 1.18124 3.56908e-20)
(1.10549 1.15845 8.7458e-20)
(1.03684 1.12372 5.47435e-21)
(0.962953 1.08754 1.16368e-19)
(0.879024 1.04874 -3.27578e-20)
(0.784166 1.00402 6.3646e-19)
(0.674845 0.949099 -1.90498e-20)
(0.563015 0.885805 2.69291e-18)
(0.464357 0.819878 -1.1418e-19)
(0.379066 0.743589 1.37155e-19)
(0.297844 0.634818 1.77952e-19)
(0.194259 0.511108 -3.70653e-21)
(0.107918 0.966397 3.48281e-21)
(0.144039 2.71241 -1.70168e-18)
(0.152894 3.29099 -6.36254e-19)
(0.141082 3.42604 3.22674e-19)
(0.127534 3.44824 -3.55055e-19)
(0.159094 0.179886 1.19722e-19)
(0.991018 1.01 0)
(1.14253 1.17564 -2.98032e-19)
(1.14536 1.20354 -3.09984e-19)
(1.09495 1.18113 2.35419e-19)
(1.02679 1.14682 5.05907e-21)
(0.952792 1.11068 -1.16458e-19)
(0.868572 1.07252 3.5742e-19)
(0.772925 1.02881 -5.16763e-19)
(0.661872 0.975722 0)
(0.546589 0.915039 1.31697e-18)
(0.442548 0.852322 -8.05823e-19)
(0.346971 0.779503 0)
(0.252898 0.653397 1.59183e-19)
(0.157518 0.799684 3.87403e-19)
(0.158729 2.4815 -4.62411e-19)
(0.217983 3.32358 5.12135e-19)
(0.197153 3.44035 2.78518e-19)
(0.163193 3.46178 3.0964e-19)
(0.141093 3.47192 4.97898e-19)
(0.280119 0.267159 -2.10467e-19)
(0.97502 1.01988 0)
(1.12404 1.20078 3.31254e-19)
(1.13055 1.23532 3.56371e-19)
(1.07818 1.21436 -2.76965e-19)
(1.0097 1.18083 -5.3621e-20)
(0.934916 1.14637 1.00322e-19)
(0.850173 1.10941 2.80407e-20)
(0.753126 1.06761 4.91568e-19)
(0.639253 1.018 1.08347e-18)
(0.518779 0.962958 7.42252e-20)
(0.405856 0.906829 7.13913e-19)
(0.29054 0.837666 1.26625e-19)
(0.217716 0.969404 -1.6039e-19)
(0.23209 2.33377 -3.63518e-19)
(0.292682 3.32799 3.4327e-19)
(0.276582 3.47114 -3.88242e-19)
(0.240683 3.49263 -2.2647e-19)
(0.203503 3.51967 -1.84175e-19)
(0.152437 3.51277 -1.78251e-20)
(0.269339 0.264765 0)
(0.972902 1.04292 9.94244e-20)
(1.11574 1.22411 -6.98856e-20)
(1.12015 1.25871 -4.40305e-20)
(1.06767 1.23758 -2.00494e-19)
(0.999395 1.20446 6.32163e-20)
(0.924402 1.17031 -4.79991e-20)
(0.839498 1.13412 2.49855e-20)
(0.741952 1.09362 -5.10713e-19)
(0.626881 1.04655 -2.797e-20)
(0.503933 0.995913 -2.37453e-18)
(0.386995 0.944974 1.01527e-19)
(0.279645 0.906762 -1.19014e-19)
(0.256889 1.4945 -1.49139e-19)
(0.33035 3.0979 3.43229e-20)
(0.352098 3.47022 1.82047e-21)
(0.310887 3.52592 5.66872e-19)
(0.273592 3.55134 2.76141e-19)
(0.224829 3.57417 -6.59689e-20)
(0.166979 3.56955 -8.39855e-20)
(0.253578 0.262813 2.53674e-19)
(0.969324 1.06852 6.86841e-19)
(1.10696 1.24951 -2.02127e-19)
(1.10916 1.28348 -1.67239e-19)
(1.05662 1.26219 0)
(0.988667 1.2293 1.52851e-19)
(0.913729 1.1955 -3.9367e-20)
(0.828927 1.16004 2.17123e-20)
(0.731209 1.12092 -5.68517e-20)
(0.615473 1.07663 -9.7539e-19)
(0.490886 1.03075 -1.09303e-18)
(0.371725 0.985852 -8.31121e-19)
(0.280958 1.03828 -9.01296e-19)
(0.32456 2.19517 9.2645e-19)
(0.415689 3.37997 7.59905e-19)
(0.39563 3.52911 0)
(0.348987 3.5724 0)
(0.310709 3.61195 -5.25663e-20)
(0.259797 3.67058 0)
(0.178813 3.64626 -5.23412e-20)
(0.243035 0.264707 -3.8601e-19)
(0.96362 1.09502 -5.91268e-19)
(1.09677 1.27613 0)
(1.09684 1.30903 1.20303e-20)
(1.04433 1.28743 -2.33038e-19)
(0.976839 1.25468 2.70977e-19)
(0.902274 1.22125 -7.29664e-21)
(0.817784 1.1864 1.18393e-20)
(0.720136 1.14859 -3.57886e-19)
(0.604139 1.10703 4.86451e-20)
(0.478737 1.06603 0)