/*--------------------------------*- C++ -*----------------------------------*\
| =========                 |                                                 |
| \\      /  F ield         | OpenFOAM: The Open Source CFD Toolbox           |
|  \\    /   O peration     | Version:  2306                                  |
|   \\  /    A nd           | Website:  www.openfoam.com                      |
|    \\/     M anipulation  |                                                 |
\*---------------------------------------------------------------------------*/
FoamFile
{
    version     2.0;
    format      ascii;
    arch        "LSB;label=32;scalar=64";
    class       volScalarField;
    location    "53";
    object      p;
}
// * * * * * * * * * * * * * * * * * * * * * * * * * * * * * * * * * * * * * //

dimensions      [0 2 -2 0 0 0 0];

internalField   nonuniform List<scalar> 
8800
(
0.818556
0.770505
0.732127
0.703484
0.682856
0.668098
0.65749
0.649979
0.645132
0.64306
0.644334
0.648544
0.655218
0.66456
0.677318
0.694909
0.719355
0.752969
0.795416
0.852542
0.651089
0.658295
0.666732
0.670146
0.668228
0.662701
0.655983
0.649813
0.645047
0.642182
0.641897
0.644416
0.648934
0.654937
0.661851
0.668474
0.672609
0.672097
0.666036
0.65706
0.627799
0.633975
0.638172
0.64153
0.644026
0.644818
0.643702
0.641547
0.6395
0.638581
0.639545
0.641945
0.644783
0.647005
0.647542
0.646014
0.643169
0.639534
0.635
0.631216
0.622667
0.625367
0.628085
0.630392
0.632033
0.633353
0.634252
0.634446
0.63417
0.634123
0.634872
0.63603
0.636824
0.636765
0.635973
0.63478
0.633033
0.630535
0.62811
0.62658
0.617477
0.618898
0.620695
0.622745
0.624492
0.62579
0.626807
0.627668
0.628332
0.628916
0.629557
0.630012
0.630043
0.629694
0.628999
0.627797
0.626102
0.624223
0.622901
0.622078
0.612472
0.613386
0.614619
0.616195
0.617841
0.619357
0.620618
0.621682
0.622664
0.623571
0.624249
0.624549
0.624486
0.62405
0.62318
0.621964
0.620613
0.619347
0.618526
0.617981
0.607609
0.608273
0.609228
0.610522
0.611929
0.613393
0.614828
0.616135
0.617323
0.618426
0.61924
0.619599
0.619513
0.618998
0.618174
0.617209
0.616191
0.615266
0.614681
0.61428
0.60286
0.603373
0.604149
0.60527
0.606538
0.607906
0.609349
0.610813
0.612227
0.613551
0.614547
0.615009
0.614972
0.614568
0.613948
0.613213
0.612434
0.611745
0.611311
0.610998
0.598164
0.598572
0.599221
0.600218
0.601413
0.602728
0.604162
0.605708
0.607316
0.608899
0.610128
0.610766
0.610908
0.610717
0.610318
0.609789
0.609209
0.608709
0.608385
0.608131
0.593438
0.593771
0.594332
0.595248
0.596393
0.597691
0.599155
0.600791
0.60258
0.604443
0.605975
0.606892
0.607299
0.607352
0.607174
0.60686
0.606467
0.606123
0.605883
0.60567
0.588598
0.588873
0.589373
0.590242
0.591367
0.592687
0.594221
0.595989
0.597996
0.600178
0.602094
0.603375
0.6041
0.60443
0.604491
0.60439
0.604183
0.603976
0.603802
0.603619
0.583556
0.583787
0.584248
0.5851
0.586245
0.58763
0.589274
0.591229
0.593516
0.596096
0.598484
0.600202
0.601298
0.601942
0.60227
0.602391
0.602365
0.602282
0.602163
0.602001
0.578225
0.578422
0.578863
0.579728
0.580934
0.582427
0.584238
0.586444
0.589093
0.592175
0.595136
0.597371
0.598898
0.5999
0.600523
0.600874
0.601047
0.60108
0.601007
0.600859
0.572508
0.572676
0.573115
0.574022
0.57533
0.576984
0.579027
0.581566
0.584678
0.588386
0.59204
0.594891
0.596924
0.598333
0.599293
0.599922
0.600286
0.600428
0.600394
0.600256
0.566291
0.566435
0.566886
0.567865
0.569322
0.571195
0.573547
0.576511
0.580207
0.584686
0.589182
0.592771
0.595403
0.597291
0.598631
0.599558
0.600141
0.600398
0.600401
0.600269
0.559441
0.55956
0.560038
0.56112
0.562778
0.56494
0.567687
0.571192
0.575612
0.581033
0.586551
0.591027
0.594372
0.596826
0.598612
0.599879
0.600707
0.601083
0.601121
0.60099
0.551787
0.551883
0.552403
0.553623
0.555539
0.558068
0.561321
0.565509
0.570832
0.577409
0.584162
0.589696
0.593884
0.597005
0.599326
0.600995
0.60209
0.60259
0.60266
0.602527
0.543101
0.543202
0.543775
0.545152
0.547397
0.550402
0.554303
0.559354
0.565801
0.573797
0.582037
0.588831
0.59401
0.597912
0.600865
0.602997
0.604401
0.605034
0.605135
0.604997
0.53309
0.533172
0.533835
0.535434
0.538108
0.541727
0.546449
0.552586
0.560437
0.570174
0.580199
0.588477
0.594826
0.599649
0.60333
0.606012
0.607763
0.608539
0.608669
0.608522
0.521384
0.521449
0.52221
0.524125
0.527353
0.531758
0.537529
0.54504
0.554634
0.566492
0.578657
0.588692
0.596412
0.602315
0.606842
0.610166
0.612302
0.613226
0.613382
0.613223
0.507451
0.507505
0.508409
0.510734
0.514692
0.520133
0.527274
0.536555
0.548345
0.562795
0.5775
0.589575
0.598867
0.606013
0.611527
0.615574
0.61813
0.619203
0.619378
0.619203
0.490533
0.490575
0.491693
0.494599
0.499557
0.506401
0.51537
0.52696
0.541526
0.559129
0.576809
0.591225
0.602299
0.610859
0.617471
0.622335
0.625331
0.626544
0.626729
0.626534
0.469501
0.469542
0.471
0.474774
0.481172
0.489991
0.501468
0.516109
0.534174
0.555569
0.576686
0.593736
0.606804
0.616931
0.624753
0.630507
0.633939
0.635265
0.635444
0.635228
0.442622
0.442681
0.444722
0.4499
0.458521
0.470247
0.485257
0.503954
0.526392
0.552276
0.577293
0.59723
0.612459
0.624296
0.633423
0.64009
0.643911
0.6453
0.645452
0.645212
0.406882
0.407041
0.410281
0.418052
0.430434
0.446611
0.466668
0.490709
0.518527
0.5496
0.578889
0.601882
0.619363
0.632976
0.643483
0.651007
0.655102
0.65647
0.656568
0.656305
0.356543
0.357516
0.363969
0.37707
0.395995
0.419042
0.446051
0.476818
0.510944
0.547776
0.58161
0.607771
0.627542
0.642926
0.654795
0.663038
0.667227
0.668468
0.668487
0.668206
0.282909
0.290136
0.305018
0.327994
0.356684
0.38892
0.424417
0.462943
0.504104
0.547233
0.585967
0.615556
0.637847
0.655217
0.668524
0.677416
0.68163
0.682737
0.682704
0.682464
0.203915
0.220566
0.244681
0.278309
0.317209
0.358794
0.402871
0.449376
0.498002
0.548158
0.592788
0.626744
0.652266
0.672089
0.687207
0.696703
0.700712
0.701589
0.701577
0.701431
0.137461
0.157255
0.189119
0.231817
0.279762
0.330159
0.382571
0.436914
0.492872
0.549865
0.600129
0.638162
0.66669
0.688722
0.705125
0.714808
0.718597
0.719395
0.719448
0.719368
0.0829991
0.104649
0.141976
0.191109
0.246166
0.303996
0.363807
0.42537
0.488234
0.551739
0.607349
0.649197
0.680425
0.704336
0.721905
0.732056
0.736092
0.736965
0.737035
0.737
0.0377315
0.0606205
0.101726
0.155962
0.216726
0.280684
0.346825
0.414788
0.483969
0.553569
0.614232
0.659681
0.693479
0.719247
0.738038
0.748994
0.753368
0.754222
0.754328
0.754321
-0.000759815
0.0228499
0.0668158
0.125105
0.190675
0.259849
0.331479
0.405125
0.480051
0.555306
0.620719
0.669572
0.705805
0.733386
0.753364
0.765116
0.769882
0.770863
0.771001
0.771016
-0.0344823
-0.0103885
0.0358693
0.0974824
0.167118
0.240833
0.317334
0.396096
0.476283
0.556799
0.626676
0.678733
0.717243
0.746468
0.767528
0.779961
0.785139
0.786333
0.786523
0.786546
-0.0649099
-0.0403923
0.00774286
0.0722003
0.145339
0.223031
0.303899
0.387328
0.47239
0.557857
0.631963
0.68703
0.727642
0.758266
0.780287
0.793308
0.798831
0.800251
0.800458
0.800476
-0.0929941
-0.0680892
-0.0183308
0.0485551
0.124783
0.205998
0.290794
0.378503
0.468126
0.558295
0.636459
0.694396
0.736949
0.768873
0.791639
0.805093
0.810869
0.812443
0.812671
0.812678
-0.119512
-0.0941801
-0.0428915
0.0260506
0.105042
0.189399
0.277745
0.369389
0.463287
0.557966
0.640098
0.700848
0.745243
0.778352
0.801703
0.815464
0.82141
0.823084
0.82331
0.823293
-0.144831
-0.119052
-0.0665998
0.00439313
0.0858276
0.172998
0.26456
0.359825
0.457743
0.556783
0.642853
0.706426
0.752654
0.786866
0.810791
0.82468
0.830672
0.832392
0.832587
0.832538
-0.169354
-0.142984
-0.0895111
-0.016662
0.0669407
0.156636
0.251117
0.349713
0.451406
0.554667
0.644696
0.711172
0.759292
0.794612
0.818983
0.832924
0.838914
0.840599
0.840786
0.84071
-0.19321
-0.166417
-0.111745
-0.0372726
0.048266
0.140228
0.237347
0.339
0.444222
0.551569
0.645605
0.715135
0.765289
0.80176
0.826497
0.840399
0.846311
0.847923
0.848062
0.847962
-0.216529
-0.189174
-0.133453
-0.0575219
0.0297564
0.123741
0.223228
0.32766
0.436166
0.547447
0.645537
0.718338
0.770743
0.808439
0.833478
0.847254
0.852987
0.854478
0.854549
0.854412
-0.23941
-0.21145
-0.154714
-0.0774397
0.0113892
0.107176
0.208779
0.31572
0.427244
0.542269
0.644439
0.720768
0.775735
0.814787
0.840069
0.853585
0.858996
0.860287
0.860281
0.86012
-0.261872
-0.233224
-0.175534
-0.0970192
-0.00680391
0.0905654
0.194047
0.303222
0.417484
0.536013
0.642251
0.722378
0.780288
0.820941
0.846453
0.859509
0.864403
0.865416
0.865335
0.86516
-0.283754
-0.254457
-0.19585
-0.116232
-0.024788
0.0739751
0.179093
0.290242
0.406946
0.528703
0.638909
0.72308
0.784361
0.827036
0.85293
0.865295
0.869334
0.869922
0.869754
0.869582
-0.305028
-0.275118
-0.215647
-0.13503
-0.042505
0.0574649
0.164008
0.276859
0.395709
0.520368
0.634369
0.722743
0.787839
0.833135
0.859887
0.871454
0.874115
0.873895
0.87358
0.873453
-0.325764
-0.295164
-0.234898
-0.153376
-0.0598921
0.0411187
0.148881
0.263176
0.383867
0.511073
0.628587
0.721224
0.790517
0.83912
0.867646
0.878857
0.879675
0.877762
0.876917
0.877015
-0.345782
-0.314579
-0.253541
-0.171207
-0.07689
0.0250209
0.133807
0.249305
0.371535
0.500918
0.621554
0.718359
0.792112
0.844615
0.876123
0.888465
0.888047
0.883594
0.880621
0.879971
-0.365176
-0.333359
-0.271591
-0.188551
-0.0935313
0.00913011
0.118734
0.235188
0.358645
0.489831
0.613131
0.713875
0.792317
0.849069
0.884579
0.900436
0.901501
0.895509
0.88641
0.877232
-0.383869
-0.351485
-0.289174
-0.205605
-0.110105
-0.00688576
0.103247
0.220343
0.344659
0.477176
0.602665
0.706968
0.790553
0.851697
0.891152
0.912232
0.915788
0.904858
0.884939
0.878395
-0.401682
-0.368964
-0.306108
-0.22217
-0.126303
-0.0227004
0.0875665
0.205096
0.329884
0.463216
0.59025
0.697142
0.786099
0.851385
0.891509
0.912552
0.919274
0.895244
0.829345
0.80038
-0.418142
-0.387038
-0.322003
-0.237714
-0.141332
-0.0377967
0.0719987
0.189701
0.31457
0.4481
0.57588
0.684053
0.777777
0.847467
0.881102
0.896192
0.886969
0.833697
0.765589
0.724331
-0.468521
-0.403941
-0.336492
-0.253127
-0.1565
-0.053444
0.0565708
0.173938
0.298406
0.431421
0.559011
0.66721
0.761822
0.837908
0.850545
0.848511
0.801473
0.733256
0.657623
0.615912
-0.43518
-0.4182
-0.358222
-0.27425
-0.179237
-0.0763457
0.032753
0.149411
0.272805
0.404236
0.529743
0.635913
0.721646
0.803063
0.791978
0.681224
0.580056
0.508823
0.43717
0.469407
-0.466898
-0.436439
-0.375138
-0.291999
-0.196885
-0.094173
0.0151152
0.131108
0.253418
0.383033
0.505742
0.607834
0.6845
0.728009
0.681248
0.535483
0.412256
0.323821
0.227984
0.278718
-0.490961
-0.458074
-0.394979
-0.311676
-0.216507
-0.113868
-0.00468232
0.110471
0.231368
0.358567
0.477505
0.573441
0.640695
0.649067
0.54505
0.377788
0.231108
0.116415
-0.00937361
0.0261589
-0.514559
-0.480257
-0.41582
-0.331654
-0.236371
-0.13387
-0.0251915
0.088988
0.208272
0.332669
0.446927
0.535242
0.587006
0.564523
0.40854
0.218351
0.0369046
-0.123995
-0.305755
-0.314838
-0.537655
-0.502867
-0.437494
-0.352581
-0.257103
-0.154804
-0.0467645
0.0663162
0.183732
0.304955
0.413829
0.494604
0.527116
0.468541
0.278756
0.0727108
-0.134413
-0.309873
-0.553258
-0.812901
-0.561077
-0.526228
-0.460304
-0.374879
-0.27918
-0.177024
-0.0695527
0.0424018
0.157851
0.275669
0.378848
0.451357
0.46287
0.353764
0.165122
-0.0430767
-0.24363
-0.405229
-0.481187
-0.587166
-0.585792
-0.550816
-0.484583
-0.398881
-0.303103
-0.201181
-0.0943687
0.0162908
0.12946
0.243364
0.340468
0.402044
0.388989
0.245762
0.0632369
-0.128483
-0.293192
-0.382973
-0.405838
-0.422012
-0.612071
-0.57694
-0.510495
-0.424673
-0.329002
-0.227484
-0.121568
-0.0125048
0.0979635
0.207303
0.297874
0.345199
0.314475
0.145017
-0.0295853
-0.19667
-0.322438
-0.360357
-0.372223
-0.373436
-0.640124
-0.604762
-0.538093
-0.452248
-0.356821
-0.255931
-0.151166
-0.0440325
0.0632956
0.16747
0.25065
0.283427
0.231704
0.0522949
-0.113487
-0.261559
-0.33609
-0.353666
-0.35457
-0.354326
-0.670007
-0.634337
-0.56739
-0.481594
-0.386568
-0.286504
-0.183161
-0.0783044
0.0254621
0.12393
0.198728
0.21945
0.132636
-0.0324234
-0.190197
-0.310328
-0.347311
-0.344696
-0.344016
-0.343394
-0.701417
-0.66549
-0.598276
-0.512616
-0.418144
-0.31914
-0.217515
-0.11529
-0.0155019
0.0767734
0.142963
0.14706
0.0425683
-0.111672
-0.251094
-0.323418
-0.334477
-0.337516
-0.338116
-0.337784
-0.733796
-0.69773
-0.630498
-0.545071
-0.451351
-0.353666
-0.254062
-0.154855
-0.0594136
0.0263202
0.0837552
0.0733602
-0.0393371
-0.179251
-0.293041
-0.331822
-0.334844
-0.334873
-0.334664
-0.334421
-0.766651
-0.730465
-0.663593
-0.57854
-0.485826
-0.38974
-0.292501
-0.196705
-0.106
-0.0267401
0.0198695
0.00207595
-0.114456
-0.233277
-0.322897
-0.331009
-0.331209
-0.331822
-0.33204
-0.331928
-0.799095
-0.76298
-0.6966
-0.612423
-0.520998
-0.426861
-0.332349
-0.240339
-0.154809
-0.0818221
-0.0456796
-0.0665197
-0.181104
-0.273096
-0.325715
-0.338334
-0.334769
-0.332637
-0.331844
-0.331585
-0.82949
-0.79414
-0.728545
-0.645746
-0.556057
-0.464288
-0.372905
-0.285019
-0.205032
-0.138492
-0.106434
-0.144669
-0.239301
-0.309288
-0.32118
-0.334928
-0.337912
-0.336647
-0.336027
-0.335473
-0.856206
-0.821962
-0.758329
-0.677263
-0.58991
-0.50103
-0.41324
-0.329784
-0.255465
-0.195921
-0.16557
-0.222448
-0.299725
-0.330101
-0.352761
-0.354076
-0.35152
-0.349891
-0.349957
-0.349661
-0.877098
-0.844573
-0.783777
-0.705539
-0.621222
-0.535851
-0.452173
-0.373463
-0.304796
-0.252609
-0.227636
-0.295186
-0.370622
-0.388492
-0.395198
-0.401416
-0.398938
-0.396476
-0.39495
-0.3931
-0.889883
-0.860069
-0.802934
-0.72863
-0.648423
-0.567323
-0.488337
-0.414657
-0.351608
-0.306456
-0.287658
-0.365848
-0.471804
-0.519547
-0.485028
-0.489233
-0.495491
-0.492292
-0.482687
-0.480159
-0.891845
-0.866075
-0.813841
-0.744665
-0.669729
-0.593972
-0.520201
-0.451798
-0.394166
-0.355174
-0.33673
-0.423554
-0.57629
-0.753
-0.674921
-0.578172
-0.533004
-0.510619
-0.501431
-0.4993
-0.880932
-0.860055
-0.814306
-0.75199
-0.683603
-0.614164
-0.546279
-0.483175
-0.430356
-0.395523
-0.374342
-0.42849
-0.528661
-0.768518
-0.676955
-0.524361
-0.455774
-0.435923
-0.430854
-0.428571
-0.854748
-0.838991
-0.802502
-0.749386
-0.689067
-0.626857
-0.565217
-0.507273
-0.457777
-0.424718
-0.385731
-0.325381
-0.209293
-0.18726
-0.238925
-0.265809
-0.289329
-0.302729
-0.30735
-0.306696
-0.815904
-0.805657
-0.779128
-0.737048
-0.686135
-0.63184
-0.576517
-0.52296
-0.475282
-0.43958
-0.395675
-0.223118
0.0864949
0.405209
0.234218
-0.0478027
-0.22918
-0.279711
-0.291018
-0.292963
-0.771083
-0.76523
-0.749027
-0.717785
-0.676837
-0.630081
-0.580706
-0.530496
-0.483538
-0.443406
-0.402623
-0.336298
-0.264631
-0.101195
-0.208193
-0.391946
-0.470366
-0.457216
-0.446397
-0.466043
-0.729985
-0.726495
-0.718438
-0.697156
-0.664305
-0.623978
-0.579147
-0.531559
-0.483061
-0.444489
-0.413077
-0.543357
-1.01249
-1.77757
-2.26384
-2.3633
-2.19685
-1.92067
-1.61349
-1.48555
-0.699876
-0.697669
-0.693605
-0.679982
-0.653207
-0.616729
-0.574306
-0.526194
-0.475531
-0.425932
-0.403619
-0.521189
-0.952755
-1.42583
-1.63872
-1.5634
-1.37413
-1.16747
-0.97597
-0.901419
-0.677322
-0.676484
-0.675211
-0.668132
-0.646549
-0.611886
-0.568113
-0.517578
-0.459842
-0.394289
-0.346877
-0.339004
-0.332933
-0.178102
0.0120352
0.255194
0.460421
0.590382
0.671473
0.702533
-0.664343
-0.663964
-0.663428
-0.660328
-0.643953
-0.609443
-0.562356
-0.506517
-0.440874
-0.36427
-0.275555
-0.167308
0.0242469
0.412921
0.849525
1.25181
1.54519
1.69478
1.74755
1.75855
-0.656172
-0.655958
-0.655475
-0.654881
-0.64348
-0.609216
-0.558361
-0.49601
-0.421141
-0.325784
-0.215964
-0.0944991
0.159333
0.593987
1.07389
1.51189
1.82482
1.98128
2.03753
2.05082
-0.650716
-0.650929
-0.651189
-0.651321
-0.642932
-0.611136
-0.558479
-0.489908
-0.404521
-0.301785
-0.187796
-0.0709421
0.150564
0.559457
0.988205
1.36573
1.63961
1.78697
1.84518
1.86031
-0.647763
-0.647033
-0.644362
-0.640539
-0.637051
-0.615901
-0.565687
-0.490779
-0.397933
-0.29292
-0.181489
-0.0750327
0.0856557
0.433721
0.782255
1.07351
1.29396
1.41746
1.46925
1.48326
-0.6659
-0.661533
-0.648744
-0.635945
-0.63836
-0.635689
-0.583975
-0.498407
-0.397546
-0.290098
-0.187397
-0.0905524
0.0226694
0.282212
0.558757
0.779146
0.945531
1.04159
1.08224
1.09316
-0.729816
-0.72674
-0.724054
-0.728076
-0.731136
-0.706601
-0.618268
-0.508478
-0.395803
-0.285821
-0.193682
-0.114722
-0.0248235
0.17727
0.376953
0.531774
0.649987
0.719351
0.749293
0.756458
-0.829178
-0.840586
-0.868001
-0.885555
-0.87408
-0.798054
-0.653677
-0.511327
-0.388169
-0.280155
-0.198712
-0.135909
-0.0782961
0.0684361
0.22135
0.339854
0.424854
0.472376
0.492158
0.496766
-0.855258
-0.874339
-0.905367
-0.92327
-0.90313
-0.80261
-0.63708
-0.487721
-0.3665
-0.267498
-0.196937
-0.147876
-0.108022
0.00257639
0.113101
0.194911
0.25561
0.290576
0.304976
0.307412
-0.69706
-0.715459
-0.742746
-0.760417
-0.73953
-0.651629
-0.532164
-0.419702
-0.322764
-0.241955
-0.182069
-0.1404
-0.0993493
-0.0189517
0.0589288
0.112995
0.150296
0.170314
0.178548
0.179719
-0.406373
-0.416867
-0.433986
-0.451852
-0.451813
-0.419181
-0.369657
-0.314049
-0.258846
-0.203413
-0.155779
-0.118165
-0.08077
-0.028755
0.0177612
0.0541273
0.0815368
0.0973025
0.103202
0.103055
-0.136199
-0.140799
-0.152464
-0.172155
-0.193685
-0.209921
-0.215237
-0.208144
-0.189494
-0.160521
-0.127594
-0.0944331
-0.0636046
-0.0309723
-4.83856e-05
0.0235699
0.040769
0.0507094
0.0547476
0.0541926
0.0232119
0.0208324
0.0118922
-0.00891768
-0.0423165
-0.078773
-0.108196
-0.126312
-0.13091
-0.121357
-0.100652
-0.0754211
-0.0520451
-0.0350856
-0.0171559
0.000583806
0.0133249
0.020725
0.0224971
0.0213275
0.0840255
0.0823834
0.0751232
0.0568637
0.0262025
-0.010295
-0.0449723
-0.0719502
-0.0876034
-0.0898112
-0.0791221
-0.0623263
-0.0479536
-0.0414127
-0.0327068
-0.022177
-0.01254
-0.00717826
-0.00604081
-0.00738152
0.0923399
0.0910821
0.0856668
0.0719665
0.0484365
0.0189595
-0.0116658
-0.0388283
-0.0588646
-0.0688891
-0.0671377
-0.0584737
-0.0518734
-0.0516417
-0.0468401
-0.0401263
-0.0351328
-0.0331672
-0.033498
-0.0349114
0.0796656
0.0787858
0.075031
0.0654826
0.0487363
0.026658
0.00187893
-0.0221633
-0.0425141
-0.0566356
-0.0620633
-0.0616265
-0.0614634
-0.0670171
-0.0667885
-0.063165
-0.0604284
-0.0602169
-0.0609181
-0.062019
0.0611671
0.0605863
0.0580664
0.0516037
0.0399879
0.0239789
0.00484976
-0.0152486
-0.0343804
-0.0510932
-0.0631826
-0.0711471
-0.0786672
-0.0859107
-0.0860765
-0.084514
-0.0839409
-0.0848841
-0.0858907
-0.0866986
0.043016
0.0426412
0.0409682
0.0366335
0.0286474
0.0171492
0.00260053
-0.013937
-0.0316367
-0.0500391
-0.0678285
-0.0841892
-0.0973756
-0.102956
-0.102407
-0.101676
-0.102627
-0.104608
-0.105729
-0.106313
0.0274567
0.0271943
0.0261014
0.023203
0.0177123
0.00944582
-0.00157956
-0.0150429
-0.0309579
-0.0500428
-0.0719043
-0.0963226
-0.113056
-0.116376
-0.114062
-0.11368
-0.1152
-0.117457
-0.11844
-0.118808
0.0152341
0.0150407
0.0143064
0.0123739
0.00862159
0.00273427
-0.00555032
-0.0164158
-0.0303693
-0.048929
-0.0728328
-0.100201
-0.119224
-0.119274
-0.11593
-0.116105
-0.11875
-0.121248
-0.122107
-0.122294
0.00624192
0.00611586
0.00561679
0.00438131
0.00189312
-0.00222917
-0.00835391
-0.0168757
-0.028573
-0.0450881
-0.0677787
-0.0939765
-0.110213
-0.107899
-0.106242
-0.107955
-0.111635
-0.114329
-0.115037
-0.115121
0.000236409
0.000133256
-0.000189961
-0.000916451
-0.00243693
-0.00516684
-0.00950042
-0.0158832
-0.0250406
-0.0382964
-0.0562841
-0.0762299
-0.0865492
-0.0843833
-0.0854336
-0.0899766
-0.094563
-0.0972007
-0.0977957
-0.0978665
-0.00303145
-0.0031124
-0.00329479
-0.00366245
-0.0044985
-0.00615985
-0.00901284
-0.0134234
-0.0198941
-0.0290695
-0.0403645
-0.0512038
-0.0558955
-0.0550357
-0.0591391
-0.0654271
-0.0703948
-0.0727205
-0.0732336
-0.0733539
-0.00399526
-0.0040626
-0.00416399
-0.00429171
-0.00463199
-0.00550045
-0.00716385
-0.00987715
-0.0138362
-0.0190216
-0.0234912
-0.0247226
-0.0202013
-0.0228697
-0.0310924
-0.0388994
-0.0433419
-0.0449174
-0.0453736
-0.0456321
-0.00308276
-0.00313607
-0.00318132
-0.00318095
-0.00323551
-0.00356364
-0.00434626
-0.00568114
-0.00756922
-0.00968333
-0.00943497
-0.00293573
0.00536011
0.000939876
-0.00881581
-0.0160283
-0.0189925
-0.0194419
-0.0198063
-0.0202941
-0.000745925
-0.00076074
-0.000772499
-0.000782599
-0.000699548
-0.00062391
-0.000676909
-0.000841389
-0.00110756
-0.00147784
-0.00146671
0.000261909
0.00407609
0.00303011
0.000527252
-0.00199324
-0.00263218
-0.00290323
-0.00359211
-0.00369298
-0.118517
0.068776
0.268776
0.436813
0.570971
0.676799
0.764833
0.838893
0.8693
0.853116
0.205868
0.328842
0.457567
0.568736
0.662368
0.739988
0.802495
0.846318
0.869065
0.881928
0.424942
0.508325
0.595887
0.673767
0.740588
0.796424
0.840661
0.873241
0.897178
0.915072
0.58444
0.643727
0.705074
0.761971
0.811268
0.853043
0.887381
0.915135
0.937696
0.955971
0.709388
0.751862
0.798834
0.841933
0.880421
0.914039
0.942859
0.967154
0.98697
1.00492
0.81304
0.846041
0.884446
0.919803
0.952228
0.981407
1.00698
1.02868
1.04572
1.06332
0.905477
0.934322
0.968307
1.00046
1.03033
1.05749
1.08131
1.10115
1.11576
1.13321
0.99398
1.02338
1.05731
1.08942
1.119
1.14559
1.1685
1.18693
1.19958
1.21704
1.08925
1.12281
1.1592
1.19288
1.2229
1.24902
1.27092
1.28799
1.29943
1.31722
1.2041
1.24264
1.28084
1.31503
1.34426
1.3689
1.38918
1.40486
1.41618
1.43452
1.34877
1.38824
1.42378
1.45416
1.47971
1.50174
1.52074
1.53625
1.54889
1.56701
1.52348
1.55552
1.5813
1.60362
1.62365
1.64238
1.66
1.67655
1.69228
1.71047
1.71107
1.72862
1.74414
1.76072
1.77686
1.7914
1.80442
1.81839
1.83547
1.85515
1.89265
1.90361
1.91575
1.92654
1.93579
1.94534
1.95622
1.9678
1.97775
1.99292
2.10365
2.10567
2.09051
2.07528
2.06889
2.07456
2.09316
2.12357
2.15571
2.18645
2.40956
2.27252
2.19622
2.15411
2.13667
2.14071
2.16806
2.22421
2.32766
2.54294
0.714849
0.711473
0.705546
0.695739
0.682796
0.670372
0.660059
0.652114
0.646459
0.643179
0.642811
0.645553
0.650676
0.657931
0.667371
0.679062
0.692195
0.704187
0.711643
0.716364
0.632861
0.638747
0.64565
0.650888
0.653733
0.653403
0.650497
0.646574
0.643007
0.640718
0.640557
0.642758
0.646447
0.650804
0.654753
0.656755
0.655643
0.651553
0.64566
0.638616
0.625203
0.627549
0.630898
0.633804
0.636018
0.637816
0.638773
0.638515
0.637481
0.636581
0.636743
0.638164
0.639978
0.641256
0.6413
0.640128
0.638319
0.635976
0.63282
0.629856
0.620056
0.621143
0.623007
0.625386
0.627343
0.628731
0.629822
0.630676
0.631139
0.631379
0.631862
0.63264
0.633179
0.633143
0.632618
0.631742
0.630336
0.628277
0.626164
0.62475
0.614956
0.615611
0.616718
0.618435
0.620236
0.621847
0.623107
0.624126
0.62504
0.625853
0.626575
0.627086
0.627223
0.627013
0.626448
0.625414
0.623972
0.622396
0.621071
0.620287
0.610026
0.610481
0.611262
0.612554
0.614042
0.615568
0.617027
0.618303
0.619426
0.620476
0.621375
0.621912
0.622033
0.62175
0.621046
0.620034
0.618886
0.617744
0.61683
0.616309
0.605226
0.605566
0.606173
0.607235
0.608517
0.609886
0.611324
0.612761
0.614113
0.61537
0.616455
0.617121
0.617278
0.616983
0.616358
0.615559
0.614696
0.613824
0.61315
0.612768
0.600514
0.600779
0.601268
0.60217
0.603328
0.604612
0.605997
0.607475
0.608998
0.610491
0.611807
0.612643
0.612912
0.61276
0.61234
0.611761
0.611098
0.61045
0.609954
0.609663
0.595814
0.596025
0.596431
0.597222
0.598299
0.599534
0.600903
0.602421
0.604071
0.605798
0.60739
0.608472
0.608967
0.609047
0.608852
0.608487
0.608025
0.607563
0.607206
0.606977
0.591041
0.591211
0.591559
0.592277
0.593306
0.594518
0.595912
0.597507
0.599306
0.601277
0.603199
0.604622
0.605425
0.605781
0.605828
0.605683
0.605424
0.60513
0.604886
0.604704
0.586111
0.586249
0.586555
0.587227
0.588239
0.589473
0.59093
0.592646
0.594644
0.596912
0.599235
0.601085
0.60226
0.602935
0.603254
0.603342
0.603283
0.603149
0.603001
0.602855
0.580936
0.581048
0.581327
0.581979
0.583007
0.584307
0.585871
0.58776
0.590026
0.592671
0.595492
0.597854
0.599467
0.600508
0.601134
0.601471
0.601618
0.601645
0.601581
0.601462
0.575425
0.575513
0.575776
0.576433
0.577515
0.578923
0.580648
0.582779
0.585392
0.588521
0.591954
0.594929
0.597056
0.598518
0.599488
0.600118
0.60049
0.600666
0.600675
0.600577
0.569473
0.569541
0.569797
0.570481
0.571654
0.573217
0.575168
0.57762
0.580675
0.584411
0.588593
0.592307
0.595044
0.597001
0.598364
0.599317
0.599936
0.600272
0.60035
0.60027
0.562956
0.563004
0.563261
0.563996
0.565299
0.567075
0.569324
0.572186
0.575803
0.580288
0.585385
0.589989
0.593455
0.595996
0.597818
0.59913
0.600036
0.600544
0.600691
0.600625
0.555725
0.555755
0.556017
0.556825
0.558305
0.560356
0.562986
0.56637
0.57069
0.576097
0.582307
0.587987
0.592322
0.595553
0.597921
0.599659
0.60089
0.601582
0.601797
0.601744
0.547595
0.547612
0.547876
0.548783
0.55049
0.552884
0.556006
0.560056
0.565259
0.571808
0.579372
0.586339
0.591704
0.595746
0.598755
0.601007
0.602602
0.603497
0.603782
0.603737
0.53826
0.538247
0.538574
0.539614
0.541605
0.544451
0.548204
0.553096
0.559406
0.56737
0.57658
0.585079
0.591659
0.596656
0.600419
0.603271
0.605287
0.606408
0.606765
0.606727
0.527444
0.527406
0.527776
0.529009
0.531367
0.534797
0.539352
0.545311
0.553009
0.562717
0.57392
0.584244
0.592252
0.598374
0.603025
0.606571
0.609074
0.610439
0.610869
0.610834
0.514671
0.514607
0.515054
0.516536
0.519377
0.523567
0.52916
0.536488
0.54594
0.557803
0.571409
0.583893
0.593568
0.600993
0.606683
0.611028
0.614083
0.615711
0.616211
0.616175
0.49931
0.499218
0.499787
0.501618
0.505103
0.510309
0.517282
0.526406
0.538107
0.552645
0.569129
0.58413
0.595715
0.604624
0.611509
0.616757
0.620421
0.622318
0.62288
0.622837
0.480433
0.480315
0.481081
0.483419
0.487813
0.494432
0.503291
0.514809
0.529409
0.547262
0.56716
0.585042
0.598786
0.609369
0.617571
0.623842
0.628157
0.630316
0.630922
0.630864
0.456642
0.456509
0.457605
0.460729
0.466489
0.475175
0.486708
0.501485
0.519822
0.541722
0.565607
0.586745
0.602881
0.615301
0.624946
0.63233
0.637302
0.639687
0.640309
0.640229
0.42564
0.42553
0.427229
0.431714
0.439755
0.451653
0.467113
0.486372
0.509515
0.536305
0.564743
0.589438
0.608117
0.622491
0.633679
0.642223
0.647786
0.650315
0.650911
0.6508
0.383317
0.383372
0.386393
0.393712
0.405993
0.423153
0.44443
0.469731
0.49885
0.531335
0.564801
0.593278
0.6146
0.630982
0.643744
0.653416
0.659416
0.661946
0.66246
0.662312
0.321991
0.323173
0.33055
0.344265
0.364286
0.3898
0.419245
0.452215
0.488389
0.527227
0.566032
0.598378
0.622342
0.640694
0.654951
0.665571
0.671805
0.674116
0.674459
0.674281
0.248846
0.250875
0.265108
0.288717
0.319501
0.35488
0.393251
0.434426
0.478206
0.524099
0.569139
0.606314
0.633774
0.654726
0.670886
0.682643
0.689075
0.691282
0.691597
0.691506
0.173513
0.179839
0.201019
0.234731
0.275877
0.32087
0.368143
0.417579
0.469053
0.522119
0.573597
0.615799
0.646878
0.670605
0.68888
0.701581
0.707854
0.709709
0.709959
0.709931
0.112016
0.120463
0.146165
0.186909
0.236155
0.289337
0.34466
0.401857
0.460705
0.520694
0.57834
0.625274
0.659688
0.68584
0.705737
0.71911
0.725402
0.727128
0.727488
0.727527
0.0618647
0.0709243
0.100161
0.146118
0.201474
0.261244
0.323374
0.387421
0.452995
0.519462
0.582946
0.634352
0.67187
0.70025
0.721673
0.735906
0.742453
0.744539
0.74499
0.74502
0.0198388
0.029175
0.0608553
0.110818
0.171182
0.236421
0.304304
0.37432
0.445932
0.51837
0.58733
0.642961
0.683424
0.713961
0.736931
0.752154
0.759367
0.761833
0.762352
0.762439
-0.0164446
-0.0069905
0.026534
0.0797071
0.144214
0.214126
0.287024
0.362324
0.439389
0.517317
0.591396
0.651004
0.694244
0.726815
0.751265
0.767456
0.775338
0.778028
0.778632
0.778722
-0.0486433
-0.0391369
-0.00418773
0.0517015
0.119684
0.193623
0.270961
0.351015
0.433065
0.516088
0.594982
0.658336
0.704181
0.738571
0.764298
0.781329
0.789871
0.792824
0.793456
0.79354
-0.0780117
-0.0684426
-0.0323249
0.0259126
0.0968793
0.174344
0.255627
0.339996
0.426648
0.514461
0.597929
0.664849
0.713114
0.749186
0.775971
0.793682
0.802717
0.805887
0.806553
0.806614
-0.105398
-0.0957634
-0.058588
0.00164242
0.0752723
0.155864
0.240672
0.328967
0.419888
0.512231
0.600104
0.67048
0.721055
0.758662
0.786397
0.804619
0.813933
0.817275
0.817984
0.818032
-0.131357
-0.121636
-0.0834633
-0.0215563
0.0544896
0.137862
0.225845
0.317717
0.412604
0.509252
0.601426
0.675227
0.728083
0.767142
0.795753
0.814343
0.823786
0.827217
0.827951
0.827973
-0.156367
-0.146456
-0.107437
-0.0439172
0.0342711
0.120121
0.210969
0.306106
0.404682
0.505432
0.601833
0.679101
0.734275
0.774784
0.804177
0.823049
0.83253
0.835947
0.836654
0.836649
-0.18066
-0.170519
-0.130741
-0.0656288
0.0144424
0.102504
0.195937
0.294055
0.396046
0.500703
0.601283
0.682106
0.739715
0.781749
0.811886
0.830925
0.840372
0.84373
0.844386
0.844344
-0.204338
-0.193978
-0.153356
-0.0868523
-0.00509659
0.0849537
0.1807
0.28152
0.386661
0.495013
0.599728
0.684246
0.744482
0.788172
0.819034
0.838145
0.84748
0.850718
0.851298
0.851233
-0.227533
-0.216867
-0.175463
-0.10766
-0.0243841
0.0674374
0.165249
0.268502
0.376526
0.488351
0.597118
0.685492
0.748629
0.794171
0.825762
0.844849
0.853963
0.856993
0.85746
0.85735
-0.250224
-0.239267
-0.197095
-0.128077
-0.0434228
0.0499704
0.149619
0.25504
0.365669
0.480709
0.59341
0.685786
0.75217
0.799844
0.832225
0.85116
0.85986
0.862567
0.86289
0.862744
-0.272457
-0.26117
-0.218188
-0.148077
-0.0621886
0.0325893
0.133855
0.241197
0.354146
0.472113
0.588569
0.685058
0.755051
0.805254
0.838627
0.857307
0.865317
0.867509
0.867657
0.867484
-0.294042
-0.282505
-0.238729
-0.16762
-0.080631
0.0153679
0.118026
0.227046
0.342033
0.462623
0.582577
0.683223
0.757168
0.810401
0.845217
0.863687
0.870628
0.871943
0.871806
0.871619
-0.315114
-0.303222
-0.258699
-0.186681
-0.0987148
-0.00165265
0.102225
0.21267
0.329419
0.452321
0.575445
0.680179
0.758355
0.815164
0.85216
0.870878
0.876468
0.876228
0.875414
0.875222
-0.335513
-0.323292
-0.278069
-0.205208
-0.116359
-0.0183858
0.0865371
0.198192
0.316415
0.441277
0.567217
0.67583
0.75841
0.819277
0.859354
0.879461
0.884162
0.881651
0.879058
0.878113
-0.355286
-0.342757
-0.29678
-0.223146
-0.133526
-0.0347612
0.0710483
0.183694
0.303135
0.42963
0.55797
0.670083
0.75711
0.82234
0.86623
0.889396
0.895219
0.891408
0.884959
0.875927
-0.374356
-0.361581
-0.314913
-0.240654
-0.150429
-0.0510557
0.0554231
0.168773