/*--------------------------------*- C++ -*----------------------------------*\
| =========                 |                                                 |
| \\      /  F ield         | OpenFOAM: The Open Source CFD Toolbox           |
|  \\    /   O peration     | Version:  2306                                  |
|   \\  /    A nd           | Website:  www.openfoam.com                      |
|    \\/     M anipulation  |                                                 |
\*---------------------------------------------------------------------------*/
FoamFile
{
    version     2.0;
    format      ascii;
    arch        "LSB;label=32;scalar=64";
    class       surfaceScalarField;
    location    "53";
    object      phi;
}
// * * * * * * * * * * * * * * * * * * * * * * * * * * * * * * * * * * * * * //

dimensions      [0 3 -1 0 0 0 0];

oriented        oriented;

internalField   nonuniform List<scalar> 
17370
(
-0.0910991
0.0935458
0.286564
-0.0749555
0.0569559
0.364775
-0.0409396
0.0299563
0.427151
-0.0212025
0.0156034
0.504851
-0.0113546
0.00865578
0.602101
-0.00652368
0.00507099
0.72051
-0.003852
0.0029804
0.863778
-0.00221236
0.00163664
1.03603
-0.00110676
0.000686861
1.24292
-0.000276856
-0.000115791
1.49158
0.000501131
-0.000913226
1.4916
0.00131542
-0.00181745
1.24319
0.00236519
-0.00310381
1.03638
0.00395368
-0.00515672
0.86411
0.00660102
-0.00872685
0.721183
0.0114193
-0.0156596
0.603455
0.0212501
-0.0299941
0.508183
0.0409681
-0.0569762
0.432176
0.0749714
-0.093555
0.365359
0.0911117
0.197899
-0.127346
0.088143
0.0392034
-0.364736
0.353788
-0.0726311
0.0835791
-0.446565
0.454368
-0.0817145
0.0739119
-0.520971
0.529523
-0.0658041
0.0572521
-0.61285
0.621016
-0.0495019
0.0413365
-0.727001
0.73379
-0.0344093
0.0276206
-0.867514
0.872451
-0.0222778
0.0173405
-1.03855
1.0419
-0.0136199
0.0102661
-1.24471
1.24713
-0.00771005
0.00529792
-1.49284
1.49485
-0.00333039
0.00131346
-1.49269
1.49451
0.000507658
-0.00232883
-1.2441
1.24602
0.00430486
-0.00621941
-1.0376
1.04008
0.00856202
-0.0110482
-0.866159
0.869811
0.0143225
-0.017974
-0.72448
0.729773
0.0228457
-0.0281393
-0.608887
0.615774
0.0348817
-0.0417684
-0.51499
0.522697
0.0498888
-0.0575963
-0.439772
0.44783
0.0660963
-0.0741544
-0.375156
0.377
0.0818964
-0.0837401
-0.256917
0.22342
0.0727432
-0.0392466
-0.068652
0.0589213
0.00973062
-0.0520804
0.0587777
-0.374541
0.367844
-0.0578929
0.0540673
-0.453829
0.457654
-0.0487105
0.0443724
-0.527744
0.532082
-0.0401502
0.0363681
-0.621104
0.624886
-0.0321441
0.0280715
-0.734878
0.73895
-0.0235968
0.0196018
-0.874049
0.878044
-0.0154625
0.0119442
-1.0434
1.04692
-0.00837491
0.00530909
-1.24866
1.25173
-0.0020722
-0.000930109
-1.49695
1.49995
0.00391139
-0.00708765
-1.49743
1.50061
0.0100656
-0.0135168
-1.2501
1.25355
0.0169167
-0.0209211
-1.04572
1.04973
0.0247968
-0.0291526
-0.877319
0.881675
0.0331298
-0.037261
-0.739312
0.743444
0.0409652
-0.0451088
-0.626343
0.630486
0.0493803
-0.0546725
-0.534936
0.540229
0.0584275
-0.0592228
-0.45792
0.458715
0.0524131
-0.0320382
-0.336396
0.316021
0.00978646
-0.0685033
0.0587168
-0.053162
0.049112
0.00404999
-0.0331708
0.0436653
-0.358372
0.347878
-0.0473841
0.0467984
-0.459512
0.460098
-0.0438228
0.040554
-0.536026
0.539295
-0.0368436
0.0335075
-0.628447
0.631783
-0.0299406
0.0267873
-0.74226
0.745414
-0.0234338
0.0202626
-0.88158
0.884751
-0.0166614
0.0132795
-1.0504
1.05378
-0.00954117
0.00609954
-1.25503
1.25847
-0.00227006
-0.00138205
-1.50333
1.50698
0.00500332
-0.00874288
-1.50414
1.50788
0.0120624
-0.0156361
-1.25716
1.26074
0.0188509
-0.0222602
-1.0535
1.05691
0.0252604
-0.0284421
-0.885285
0.888467
0.0314567
-0.0348881
-0.746935
0.750367
0.038111
-0.0417046
-0.634502
0.638095
0.0448727
-0.0477345
-0.544458
0.54732
0.0482014
-0.0443156
-0.456884
0.452998
0.0336208
-0.016261
-0.296652
0.279292
0.00411763
-0.0528969
0.0487793
-0.04599
0.0434644
0.00252569
-0.0229305
0.0332994
-0.337237
0.326868
-0.0390829
0.0400695
-0.45981
0.458823
-0.0388535
0.0365543
-0.541969
0.544268
-0.0339133
0.0313501
-0.634779
0.637343
-0.0283421
0.0254818
-0.748478
0.751339
-0.0222455
0.0192478
-0.887752
0.89075
-0.0159281
0.0128165
-1.05695
1.06007
-0.00926819
0.00585942
-1.26189
1.2653
-0.00192906
-0.00189318
-1.51075
1.51457
0.00567601
-0.00948598
-1.51169
1.5155
0.0127331
-0.0160651
-1.26421
1.26754
0.0189582
-0.0220275
-1.06007
1.06314
0.0247998
-0.027805
-0.891613
0.894618
0.0304748
-0.033296
-0.753555
0.756376
0.035704
-0.0381882
-0.641098
0.643582
0.0403535
-0.0413926
-0.549137
0.550176
0.040222
-0.0341695
-0.447802
0.441749
0.0235067
-0.0102886
-0.264111
0.250893
0.0026088
-0.0455822
0.0429734
-0.0413658
0.0395789
0.00178692
-0.0168657
0.0261453
-0.317
0.30772
-0.0327586
0.0348965
-0.45724
0.455102
-0.0344749
0.0327926
-0.546272
0.547954
-0.0305909
0.0284852
-0.639643
0.641748
-0.0260608
0.0236803
-0.753953
0.756334
-0.0208508
0.018093
-0.893608
0.896366
-0.0149007
0.0118661
-1.0631
1.06613
-0.00840602
0.00509624
-1.26862
1.27193
-0.0012602
-0.00248962
-1.51835
1.5221
0.00618842
-0.00987381
-1.51925
1.52294
0.0129794
-0.016165
-1.2708
1.27398
0.0189217
-0.0217943
-1.06616
1.06903
0.0242615
-0.0267907
-0.897419
0.899948
0.028924
-0.0311076
-0.758829
0.761012
0.0330153
-0.0350157
-0.645777
0.647777
0.0365024
-0.0366833
-0.550735
0.550916
0.0342629
-0.027257
-0.435132
0.428126
0.0175833
-0.0074302
-0.239353
0.2292
0.00188839
-0.0407831
0.0388948
-0.0380392
0.0366949
0.00134432
-0.0128934
0.0208803
-0.299092
0.291105
-0.0276549
0.0305881
-0.452537
0.449603
-0.0308027
0.0296867
-0.549384
0.5505
-0.0276963
0.0257808
-0.643792
0.645707
-0.0235827
0.0214523
-0.758565
0.760696
-0.0189527
0.0164858
-0.898919
0.901386
-0.0135616
0.010702
-1.06903
1.07189
-0.0073686
0.00415211
-1.27516
1.27837
-0.000423173
-0.00320125
-1.52576
1.52938
0.00676218
-0.0103023
-1.52655
1.53009
0.0132643
-0.0162551
-1.2771
1.28009
0.0187659
-0.021288
-1.07175
1.07428
0.0233903
-0.0255129
-0.90226
0.904383
0.0273307
-0.0292223
-0.763037
0.764929
0.0308879
-0.0326375
-0.649629
0.651379
0.0334683
-0.0329172
-0.550734
0.550183
0.0295799
-0.0222685
-0.42091
0.413599
0.013776
-0.00574646
-0.22021
0.212181
0.00146786
-0.0372435
0.0357757
-0.0355198
0.0344829
0.00103693
-0.0100865
0.0168482
-0.283755
0.276994
-0.0233678
0.0267614
-0.44642
0.443026
-0.0275564
0.0268706
-0.551394
0.55208
-0.0251174
0.0233438
-0.647596
0.649369
-0.0212902
0.0192907
-0.76276
0.764759
-0.0169372
0.0146269
-0.903705
0.906015
-0.0119073
0.00923719
-1.07459
1.07726
-0.00609211
0.00302076
-1.28147
1.28455
0.00056751
-0.00405636
-1.53291
1.5364
0.00746769
-0.0108222
-1.53353
1.53688
0.0135784
-0.0162994
-1.28297
1.28569
0.0185392
-0.0207627
-1.07666
1.07888
0.0226216
-0.0245067
-0.9064
0.908285
0.0261182
-0.0277911
-0.766714
0.768387
0.0292554
-0.0306767
-0.65298
0.654401
0.0310069
-0.0297371
-0.549284
0.548014
0.0257875
-0.0185625
-0.406306
0.399081
0.0111668
-0.00462697
-0.204966
0.198426
0.00118708
-0.0344653
0.0332782
-0.0335715
0.0327621
0.000809358
-0.00800687
0.0136979
-0.270797
0.265106
-0.0197405
0.0233395
-0.43952
0.435921
-0.0246196
0.0241857
-0.552675
0.553109
-0.0227073
0.0210471
-0.651141
0.652801
-0.0190931
0.017185
-0.766711
0.768619
-0.0149329
0.0127184
-0.90821
0.910425
-0.0101099
0.00755936
-1.07979
1.08234
-0.0045693
0.00164774
-1.28749
1.29041
0.00176937
-0.00509071
-1.53978
1.5431
0.00831788
-0.0114501
-1.54012
1.54325
0.0139863
-0.0164598
-1.28829
1.29077
0.0184842
-0.0204832
-1.08103
1.08303
0.0221415
-0.0238157
-0.910089
0.911763
0.0252451
-0.0267284
-0.769971
0.771454
0.0280026
-0.0290542
-0.655612
0.656663
0.029019
-0.0270902
-0.546416
0.544488
0.022751
-0.0158052
-0.391991
0.385045
0.00932714
-0.00384973
-0.192469
0.186992
0.00099191
-0.0322022
0.0312103
-0.0320502
0.0314167
0.000633512
-0.00640495
0.011182
-0.2599
0.255122
-0.0166417
0.02025
-0.432316
0.428708
-0.0218631
0.0216615
-0.553467
0.553668
-0.0204226
0.0188262
-0.654483
0.656079
-0.0169328
0.015079
-0.770494
0.772348
-0.0128924
0.010744
-0.912529
0.914677
-0.00821421
0.00574376
-1.08477
1.08724
-0.00285697
5.76491e-05
-1.29321
1.29601
0.00320515
-0.00635063
-1.5463
1.54944
0.00937861
-0.012289
-1.54625
1.54916
0.014626
-0.0168856
-1.29315
1.29541
0.0187151
-0.020501
-1.08496
1.08675
0.0219683
-0.0234468
-0.913368
0.914846
0.0247135
-0.0260273
-0.772862
0.774176
0.0271585
-0.0278037
-0.657492
0.658137
0.0274066
-0.0249303
-0.542298
0.539822
0.0203597
-0.0137624
-0.378285
0.371687
0.00801531
-0.00330293
-0.181937
0.177224
0.000855263
-0.0302986
0.0294433
-0.0308626
0.0303712
0.000491383
-0.00511769
0.00910742
-0.250765
0.246775
-0.01394
0.0174096
-0.425178
0.421709
-0.019217
0.0192145
-0.553818
0.553821
-0.0181793
0.0166234
-0.657726
0.659282
-0.0147591
0.0129269
-0.774181
0.776013
-0.0107666
0.00864978
-0.91672
0.918837
-0.00616672
0.0037519
-1.08959
1.09201
-0.00093836
-0.00177317
-1.2987
1.30142
0.00490091
-0.00788747
-1.55246
1.55545
0.0107322
-0.013437
-1.55195
1.55465
0.0155842
-0.0176342
-1.29758
1.29963
0.0192724
-0.0208511
-1.08848
1.09006
0.0221369
-0.0234346
-0.916267
0.917564
0.0245534
-0.0257101
-0.77542
0.776577
0.026653
-0.0269342
-0.658577
0.658858
0.0261523
-0.0232181
-0.537127
0.534193
0.0185189
-0.0122672
-0.365284
0.359032
0.00708423
-0.00292153
-0.172822
0.168659
0.000761442
-0.0286465
0.027885
-0.0299472
0.0295757
0.000371522
-0.00404151
0.00734064
-0.243155
0.239856
-0.0115347
0.0147557
-0.418381
0.41516
-0.0166314
0.016792
-0.553798
0.553637
-0.0158461
0.0143702
-0.660877
0.662352
-0.0125086
0.010667
-0.777834
0.779676
-0.0084969
0.00637923
-0.920852
0.92297
-0.00390869
0.00151844
-1.09431
1.0967
0.00124262
-0.00388799
-1.30403
1.30667
0.00691095
-0.0097624
-1.55832
1.56117
0.0124417
-0.0149504
-1.55723
1.55974
0.0169103
-0.0187516
-1.30159
1.30343
0.0202006
-0.0215753
-1.0916
1.09297
0.0226831
-0.0238046
-0.918814
0.919935
0.0247775
-0.0257695
-0.777666
0.778658
0.0264677
-0.0264504
-0.658996
0.658979
0.0252703
-0.0219373
-0.531071
0.527738
0.01716
-0.0112054
-0.352958
0.347003
0.00644162
-0.0026648
-0.164722
0.160945
0.00070024
-0.027166
0.0264658
-0.0292643
0.0289994
0.000264914
-0.00310029
0.00577697
-0.23689
0.234214
-0.00933285
0.0122226
-0.412127
0.409237
-0.0140539
0.0143069
-0.553493
0.55324
-0.0134142
0.011991
-0.663889
0.665312
-0.0101126
0.00823556
-0.781512
0.783389
-0.00602369
0.00387291
-0.924987
0.927138
-0.00137625
-0.00101638
-1.09898
1.10137
0.00376592
-0.0063746
-1.30922
1.31183
0.00931867
-0.0120553
-1.56391
1.56665
0.0145834
-0.0169044
-1.56213
1.56445
0.0186822
-0.0203178
-1.30518
1.30682
0.0215775
-0.0227445
-1.09432
1.09549
0.0236682
-0.0246099
-0.921016
0.921957
0.0254371
-0.0262586
-0.779568
0.78039
0.0266834
-0.0264122
-0.658829
0.658557
0.0247942
-0.0210821
-0.524237
0.520525
0.0162343
-0.0105011
-0.341199
0.335466
0.00602859
-0.00250673
-0.157329
0.153807
0.000665051
-0.0257958
0.0251308
-0.0287913
0.0286274
0.000163866
-0.00222974
0.00432222
-0.231851
0.229758
-0.0072347
0.00972321
-0.406576
0.404087
-0.0114032
0.0116718
-0.553054
0.552785
-0.0108014
0.00939511
-0.66683
0.668237
-0.00747447
0.00553361
-0.785263
0.787204
-0.00324538
0.00102959
-0.929185
0.931401
0.00152576
-0.00395992
-1.10367
1.1061
0.00672817
-0.0093254
-1.31435
1.31694
0.0122156
-0.014854
-1.56928
1.57192
0.0172403
-0.0193771
-1.56665
1.56878
0.0209719
-0.0223969
-1.30836
1.30979
0.0234606
-0.0244074
-1.09665
1.09759
0.02513
-0.0258733
-0.922856
0.923599
0.0265429
-0.0272157
-0.781118
0.781791
0.0273398
-0.0267171
-0.65806
0.657437
0.0246831
-0.0206131
-0.516677
0.512607
0.015682
-0.010088
-0.329851
0.324257
0.00579777
-0.00242637
-0.150395
0.147024
0.000650332
-0.024487
0.0238367
-0.02852
0.0284581
6.18743e-05
-0.0013807
0.00290346
-0.22797
0.226448
-0.00515864
0.00718265
-0.401861
0.399837
-0.00860864
0.0088116
-0.55264
0.552437
-0.00791749
0.00649182
-0.669773
0.671199
-0.00448983
0.00245463
-0.789144
0.79118
-5.61065e-05
-0.00225926
-0.933511
0.935826
0.00491017
-0.00741832
-1.10844
1.11095
0.010241
-0.0128556
-1.31945
1.32207
0.015716
-0.01827
-1.57445
1.57701
0.0205189
-0.0224687
-1.57079
1.57274
0.0238732
-0.0250765
-1.31111
1.31231
0.0259319
-0.0266429
-1.09854
1.09925
0.0271485
-0.0276737
-0.924311
0.924836
0.0281793
-0.0286562
-0.782308
0.782785
0.0284981
-0.0274705
-0.65656
0.655532
0.0249933
-0.0205425
-0.508415
0.503964
0.0154832
-0.009933
-0.318746
0.313196
0.00572445
-0.00241305
-0.143722
0.140411
0.000653485
-0.0232007
0.0225472
-0.028453
0.0285
-4.69314e-05
-0.00050678
0.00145417
-0.225231
0.224284
-0.00302411
0.00451866
-0.39811
0.396615
-0.00558858
0.00564337
-0.552419
0.552364
-0.00467196
0.00317513
-0.672801
0.674298
-0.00106303
-0.00110316
-0.793215
0.795381
0.00365666
-0.00610693
-0.938037
0.940487
0.00889779
-0.0115161
-1.11336
1.11598
0.0144319
-0.0170943
-1.3246
1.32726
0.0199514
-0.0224363
-1.57945
1.58194
0.0245528
-0.0263098
-1.57455
1.57631
0.0275113
-0.0284757
-1.31339
1.31436
0.0291065
-0.0295664
-1.09997
1.10043
0.0298403
-0.0301302
-0.925341
0.925631
0.030444
-0.0306542
-0.782988
0.783198
0.0302295
-0.0287132
-0.65423
0.652714
0.0257489
-0.0208785
-0.49941
0.494539
0.0156287
-0.0100201
-0.307691
0.302083
0.00579645
-0.00246138
-0.137132
0.133797
0.000673048
-0.0219018
0.0212287
-0.0286022
0.0287645
-0.000162349
0.000415126
-7.47856e-05
-0.223657
0.223317
-0.000760429
0.00164312
-0.395449
0.394566
-0.00225218
0.0020735
-0.552565
0.552744
-0.000966223
-0.00066711
-0.676024
0.677657
0.00294292
-0.00528568
-0.79755
0.799893
0.008041
-0.0106716
-0.942837
0.945467
0.0136485
-0.0164173
-1.11851
1.12128
0.019465
-0.0222048
-1.32984
1.33258
0.0250832
-0.0275108
-1.58432
1.58674
0.0294934
-0.0310423
-1.57791
1.57946
0.0320232
-0.0327189
-1.31519
1.31588
0.0330993
-0.0332884
-1.1009
1.10108
0.033316
-0.0333499
-0.925897
0.925931
0.0334547
-0.0333388
-0.78304
0.782924
0.0325803
-0.0304811
-0.650955
0.648855
0.0269834
-0.021633
-0.489572
0.484222
0.016112
-0.0103352
-0.296477
0.2907
0.00600237
-0.00256564
-0.13046
0.127023
0.000707277
-0.0205582
0.0198509
-0.0290061
0.0293084
-0.000302276
0.00141007
-0.00171873
-0.223335
0.223644
0.00172373
-0.00155758
-0.394006
0.39384
0.00154024
-0.00206055
-0.553292
0.553812
0.00338937
-0.00521107
-0.679577
0.681399
0.00770495
-0.0102724
-0.802234
0.804802
0.0132845
-0.0161458
-0.947999
0.95086
0.0193624
-0.022327
-1.12397
1.12693
0.0255491
-0.0283952
-1.33524
1.33809
0.0313112
-0.033681
-1.58905
1.59142
0.0355148
-0.0368253
-1.58083
1.58214
0.0375623
-0.0379575
-1.31642
1.31681
0.0380615
-0.0379518
-1.10124
1.10113
0.0377051
-0.0374576
-0.925913
0.925666
0.0373465
-0.0367984
-0.782346
0.781798
0.0356118
-0.0328621
-0.646578
0.643828
0.028753
-0.0228322
-0.47877
0.472849
0.0169398
-0.0108757
-0.284883
0.278819
0.00633804
-0.0027233
-0.123553
0.119938
0.000755322
-0.0191412
0.0183858
-0.0296832
0.0301612
-0.000477936
0.00269013
-0.00374312
-0.224337
0.22539
0.00461507
-0.00524185
-0.39401
0.394637
0.00594461
-0.00691411
-0.554834
0.555804
0.00854255
-0.0106167
-0.683563
0.685637
0.0134036
-0.0162619
-0.807367
0.810226
0.0196008
-0.0227552
-0.953627
0.956782
0.0262754
-0.0294873
-1.12982
1.13304
0.032929
-0.035909
-1.34085
1.34383
0.0388741
-0.0411764
-1.59366
1.59597
0.0428335
-0.0438698
-1.58325
1.58429
0.0443045
-0.0443709
-1.31701
1.31708
0.044165
-0.0437203
-1.10092
1.10048
0.0431673
-0.0426026
-0.925311
0.924746
0.0421814
-0.0411823
-0.780748
0.779749
0.0394521
-0.0359442
-0.640947
0.637439
0.0311202
-0.0245085
-0.466812
0.4602
0.0181241
-0.0116421
-0.272666
0.266184
0.00680077
-0.00293202
-0.116258
0.112389
0.000816211
-0.0176239
0.0168077
-0.0307116
0.0314056
-0.000694003
0.00416952
-0.00610626
-0.226868
0.228804
0.00804948
-0.00957264
-0.395675
0.397198
0.0110957
-0.0126426
-0.557443
0.55899
0.0147144
-0.0171358
-0.688134
0.690555
0.0203222
-0.0235521
-0.813086
0.816316
0.0273018
-0.0308199
-0.959851
0.96337
0.0347116
-0.0382204
-1.13618
1.13969
0.0419203
-0.0450513
-1.34673
1.34986
0.0480616
-0.0502697
-1.59812
1.60032
0.0517053
-0.052414
-1.58509
1.5858
0.0524843
-0.0521712
-1.31689
1.31657
0.051606
-0.0507794
-1.09985
1.09903
0.0498819
-0.04895
-0.92401
0.923078
0.0481185
-0.0466215
-0.778214
0.776717
0.0442134
-0.039817
-0.633834
0.629438
0.0341453
-0.0266897
-0.453449
0.445993
0.0196714
-0.0126295
-0.259563
0.252521
0.00738299
-0.0031862
-0.108426
0.104229
0.000887601
-0.0159819
0.0150943
-0.0321695
0.0331501
-0.000980603
0.00604652
-0.0090433
-0.231179
0.234176
0.0122298
-0.0148092
-0.399262
0.401841
0.0173011
-0.0195536
-0.561397
0.56365
0.0222127
-0.0251112
-0.693488
0.696386
0.0288195
-0.0325217
-0.819557
0.823259
0.0367792
-0.0407382
-0.966813
0.970772
0.0450724
-0.0489262
-1.14313
1.14698
0.052912
-0.0561931
-1.35289
1.35617
0.0592173
-0.0612742
-1.60234
1.6044
0.0624155
-0.0627078
-1.58623
1.58652
0.0623587
-0.0615723
-1.31591
1.31512
0.0605858
-0.0593108
-1.09793
1.09665
0.0580163
-0.0567013
-0.921904
0.920589
0.0553507
-0.0532576
-0.774651
0.772558
0.0500452
-0.0445819
-0.624959
0.619495
0.0378868
-0.029396
-0.438371
0.42988
0.0215799
-0.0138247
-0.24529
0.237535
0.00807069
-0.00347676
-0.0999112
0.0953173
0.000966083
-0.014196
0.0132299
-0.0341879
0.0355613
-0.00137334
0.00849566
-0.0128427
-0.237601
0.241948
0.0175126
-0.0213216
-0.405142
0.408951
0.024943
-0.0280483
-0.567028
0.570134
0.0314702
-0.0349989
-0.6999
0.703429
0.0393855
-0.0436857
-0.82698
0.83128
0.0485678
-0.0530552
-0.974671
0.979158
0.0578995
-0.0621272
-1.15077
1.15499
0.0663911
-0.0697794
-1.35931
1.3627
0.072733
-0.074533
-1.6062
1.608
0.075261
-0.0750122
-1.58646
1.58621
0.0741544
-0.072776
-1.31387
1.31249
0.0713101
-0.0695283
-1.09499
1.09321
0.0677956
-0.0660244
-0.918917
0.917146
0.0640689
-0.0612546
-0.769856
0.767042
0.0570548
-0.0503001
-0.613955
0.6072
0.0423675
-0.0326153
-0.421199
0.411447
0.0238183
-0.0151912
-0.229545
0.220918
0.00883336
-0.00378637
-0.0905846
0.0855376
0.0010456
-0.0122549
0.0112093
-0.0369617
0.038896
-0.00193428
0.0119107
-0.0179593
-0.246654
0.252702
0.0244228
-0.0296741
-0.413803
0.419054
0.034634
-0.0387806
-0.574721
0.578868
0.0431792
-0.0475402
-0.707693
0.712054
0.0528045
-0.0578458
-0.835602
0.840643
0.0634703
-0.0685527
-0.983595
0.988678
0.0739304
-0.0785052
-1.15912
1.16369
0.0829671
-0.0863468
-1.36588
1.36925
0.0890619
-0.0904224
-1.60945
1.61081
0.0905545
-0.0895907
-1.58552
1.58456
0.0880707
-0.0860031
-1.31055
1.30848
0.0839615
-0.0816325
-1.0909
1.08857
0.0794339
-0.0770531
-0.914882
0.912501
0.0745005
-0.0707391
-0.763499
0.759738
0.065331
-0.0570077
-0.600357
0.592034
0.0475755
-0.0362961
-0.401488
0.390209
0.0263173
-0.0166615
-0.212028
0.202372
0.00961992
-0.00408825
-0.0803486
0.0748169
0.00111754
-0.0101609
0.00904334
-0.0408128
0.0436192
-0.00280641
0.0168553
-0.0251544
-0.259048
0.267347
0.0338432
-0.04083
-0.425914
0.4329
0.0474207
-0.0528437
-0.58496
0.590383
0.0584851
-0.0639311
-0.717288
0.722734
0.0703
-0.0762066
-0.845695
0.851602
0.0826259
-0.0882795
-0.993686
0.999339
0.0940946
-0.0988731
-1.16808
1.17286
0.103323
-0.106468
-1.3723
1.37544
0.108669
-0.109327
-1.61167
1.61233
0.108621
-0.106723
-1.58304
1.58114
0.104377
-0.101465
-1.30577
1.30286
0.0987343
-0.0957727
-1.08551
1.08255
0.0930515
-0.0899896
-0.909439
0.906377
0.0867602
-0.0818172
-0.755108
0.750165
0.074906
-0.0646649
-0.583576
0.573335
0.053422
-0.0403153
-0.37873
0.365623
0.0289436
-0.0181181
-0.19246
0.181634
0.0103454
-0.00433945
-0.0691678
0.0631618
0.0011682
-0.00793541
0.00676721
-0.0463127
0.0505886
-0.00427585
0.0245239
-0.0358812
-0.275951
0.287308
0.0474482
-0.0567404
-0.442492
0.451784
0.0653294
-0.0722341
-0.598349
0.605253
0.0794007
-0.0863136
-0.729089
0.736002
0.0938358
-0.100529
-0.857454
0.864147
0.107578
-0.113589
-1.00482
1.01083
0.119536
-0.12419
-1.17728
1.18194
0.128225
-0.130745
-1.37805
1.38057
0.131995
-0.131563
-1.61228
1.61185
0.129683
-0.126574
-1.57853
1.57543
0.123215
-0.119299
-1.2992
1.29529
0.11577
-0.11208
-1.07866
1.07497
0.108801
-0.104949
-0.902384
0.898532
0.100864
-0.0943888
-0.744157
0.737682
0.0856174
-0.0730564
-0.562857
0.550296
0.059671
-0.0444408
-0.352364
0.337133
0.0314827
-0.01939
-0.170641
0.158548
0.0108911
-0.00448168
-0.0571124
0.0507029
0.00117868
-0.0056278
0.00444913
-0.0545227
0.061863
-0.00734029
0.0379599
-0.0537799
-0.299498
0.315318
0.0693848
-0.0818568
-0.465181
0.477653
0.0926052
-0.100869
-0.615313
0.623577
0.109549
-0.117697
-0.743459
0.751608
0.126095
-0.133161
-0.870595
0.877661
0.140269
-0.146045
-1.01639
1.02217
0.151456
-0.155352
-1.18592
1.18982
0.15831
-0.159597
-1.38223
1.38352
0.159314
-0.157314
-1.61043
1.60843
0.153881
-0.149266
-1.57145
1.56683
0.144668
-0.139567
-1.29054
1.28544
0.135117
-0.130623
-1.07016
1.06566
0.126685
-0.122017
-0.89348
0.888811
0.116687
-0.108245
-0.729881
0.721439
0.0971375
-0.0817443
-0.537253
0.52186
0.0658777
-0.0483334
-0.321828
0.304284
0.0336935
-0.0203399
-0.146539
0.133185
0.0111775
-0.00448015
-0.0444202
0.0377228
0.00113137
-0.00332382
0.00219245
-0.0687126
0.0727877
-0.00407512
0.029036
-0.0427805
-0.333658
0.347403
0.0566328
-0.0680762
-0.4954
0.506844
0.078254
-0.0877323
-0.635441
0.64492
0.0982474
-0.107817
-0.759274
0.768844
0.118383
-0.12773
-0.88383
0.893177
0.137616
-0.146323
-1.027
1.03571
0.155285
-0.162804
-1.1926
1.20012
0.170026
-0.175474
-1.3836
1.38905
0.179818
-0.18194
-1.60517
1.60729
0.181792
-0.179918
-1.56112
1.55924
0.177015
-0.173089
-1.2794
1.27548
0.169502
-0.165317
-1.05978
1.05559
0.161725
-0.156961
-0.882311
0.877547
0.149889
-0.137745
-0.711236
0.699093
0.121444
-0.0997002
-0.505697
0.483953
0.0782787
-0.0554059
-0.286604
0.263731
0.0373148
-0.0216786
-0.120427
0.10479
0.0114815
-0.00444658
-0.0315723
0.0245373
0.00110607
-0.00113915
3.30813e-05
-0.0800588
0.0780949
0.00196391
0.00742418
-0.016492
-0.363908
0.372975
0.0270266
-0.0351278
-0.522963
0.531064
0.0432495
-0.0512188
-0.656848
0.664817
0.060902
-0.069855
-0.778022
0.786975
0.0793279
-0.0879239
-0.901964
0.91056
0.0969748
-0.1046
-1.04411
1.05173
0.112615
-0.118954
-1.20741
1.21375
0.124944
-0.129111
-1.39411
1.39828
0.131746
-0.132317
-1.60846
1.60903
0.130611
-0.127148
-1.55648
1.55301
0.122658
-0.117054
-1.27086
1.26526
0.111839
-0.106059
-1.0497
1.04392
0.100702
-0.0943648
-0.868039
0.861701
0.0871684
-0.0765986
-0.683049
0.672479
0.0644265
-0.0498289
-0.460715
0.446117
0.0368322
-0.02454
-0.24106
0.228767
0.0157655
-0.00881659
-0.0899746
0.0830258
0.00456163
-0.00174502
-0.0178767
0.0150601
0.000387125
0.00104649
-0.00143361
-0.0814798
0.0785746
0.00290519
-0.00167392
-0.00357257
-0.384362
0.389608
0.0107294
-0.0166134
-0.543296
0.54918
0.022648
-0.0296056
-0.674921
0.681879
0.0379893
-0.0457639
-0.795025
0.8028
0.0542053
-0.061702
-0.918408
0.925904
0.0693428
-0.0761293
-1.05917
1.06596
0.0830365
-0.0885585
-1.21962
1.22515
0.093282
-0.0962721
-1.40172
1.40471
0.097918
-0.0973529
-1.60879
1.60823
0.0945246
-0.0899414
-1.54879
1.54421
0.084568
-0.0782351
-1.2593
1.25297
0.0719683
-0.0652297
-1.03682
1.03008
0.0589486
-0.0517773
-0.852212
0.845041
0.0449192
-0.0361658
-0.658434
0.64968
0.0273861
-0.0182152
-0.429697
0.420526
0.0116146
-0.00667716
-0.215739
0.210802
0.0038776
-0.00212378
-0.075896
0.0741422
0.00117979
-0.000552678
-0.0121061
0.011479
7.10729e-05
0.0020042
-0.00207527
-0.0802419
0.0775042
0.00273779
-0.00525106
0.00272277
-0.398025
0.400553
0.00188152
-0.00635181
-0.558336
0.562807
0.0114764
-0.0173161
-0.689842
0.695682
0.0244935
-0.0311591
-0.809919
0.816585
0.0383771
-0.0448114
-0.932874
0.939308
0.0517443
-0.0574905
-1.07231
1.07805
0.0635056
-0.0678351
-1.23023
1.23456
0.0717706
-0.0740811
-1.40743
1.40974
0.0748473
-0.0733222
-1.60714
1.60562
0.0699917
-0.0649608
-1.53899
1.53396
0.0592039
-0.0521051
-1.24627
1.23917
0.0454396
-0.0381708
-1.02237
1.0151
0.0312534
-0.0240152
-0.835439
0.828201
0.0174363
-0.0103827
-0.637814
0.63076
0.00431638
0.000407396
-0.410043
0.40532
-0.00257193
0.00315383
-0.203919
0.203337
-0.00279788
0.00182699
-0.0713064
0.0722773
-0.00100249
0.000300115
-0.0104094
0.0111117
-0.00019307
0.00244841
-0.00225534
-0.0787701
0.0763575
0.00241257
-0.00633149
0.00539176
-0.40715
0.40809
-0.00202424
-0.00120684
-0.570432
0.573663
0.00540146
-0.0107214
-0.702361
0.707681
0.0167703
-0.0226322
-0.822534
0.828396
0.0288956
-0.0344935
-0.945294
0.950892
0.0404429
-0.0455549
-1.08366
1.08877
0.0506251
-0.0545754
-1.23874
1.24269
0.0578665
-0.0596534
-1.41166
1.41345
0.0599247
-0.0580254
-1.60388
1.60198
0.0544203
-0.0489838
-1.52822
1.52279
0.0430854
-0.0359941
-1.23197
1.22488
0.0291888
-0.021552
-1.00711
0.999473
0.0145581
-0.00717356
-0.818851
0.811466
0.00100711
0.00454157
-0.620936
0.615387
-0.00853211
0.010686
-0.398162
0.396008
-0.010604
0.00902943
-0.200219
0.201794
-0.00702717
0.00466246
-0.0722833
0.074648
-0.00274054
0.00110736
-0.0114419
0.0130751
-0.0003544
0.00235112
-0.00199672
-0.0774212
0.0753617
0.00205959
-0.00618646
0.00573561
-0.413435
0.413886
-0.0037302
0.00114287
-0.579767
0.582355
0.00296074
-0.00752281
-0.712992
0.717554
0.0127394
-0.0178404
-0.833454
0.838555
0.0234274
-0.0284459
-0.956144
0.961162
0.0339023
-0.0383844
-1.09361
1.09809
0.042944
-0.0464854
-1.24635
1.24989
0.0493396
-0.0507978
-1.41496
1.41642
0.0507744
-0.0490632
-1.59998
1.59827
0.0453384
-0.0400374
-1.51692
1.51162
0.034166
-0.0271341
-1.21759
1.21056
0.020642
-0.0130207
-0.991505
0.983884
0.00612457
0.000908543
-0.80285
0.795816
-0.00651044
0.01115
-0.60695
0.602311
-0.0141435
0.0154113
-0.390906
0.389638
-0.014277
0.0117518
-0.200854
0.203379
-0.00916739
0.00617722
-0.0761552
0.0791454
-0.00369739
0.00158675
-0.0143629
0.0164735
-0.000451629
0.00178753
-0.0013359
-0.0764125
0.0748127
0.00159981
-0.00529865
0.00516962
-0.418143
0.418272
-0.00354749
0.00158588
-0.58791
0.589872
0.00226185
-0.00639641
-0.722209
0.726344
0.0113576
-0.0157623
-0.843244
0.847648
0.020685
-0.0251473
-0.966148
0.970611
0.0303391
-0.0344233
-1.10261
1.10669
0.0384834
-0.0418439
-1.25324
1.2566
0.0448616
-0.0461813
-1.41789
1.41921
0.0462253
-0.0444714
-1.59617
1.59441
0.0411607
-0.0358201
-1.50613
1.50079
0.030371
-0.0238527
-1.20344
1.19692
0.0176051
-0.0106296
-0.976304
0.969328
0.0041128
0.00264547
-0.78774
0.780981
-0.00770232
0.0120537
-0.594597
0.590246
-0.0147205
0.0157041
-0.38569
0.384707
-0.0147695
0.0123689
-0.203246
0.205646
-0.00972846
0.00662717
-0.0812661
0.0843674
-0.00402093
0.00177178
-0.0181164
0.0203656
-0.000497919
0.000988827
-0.000490908
-0.07591
0.0746602
0.00124986
-0.00422486
0.00421635
-0.421915
0.421923
-0.00277981
0.00091277
-0.595022
0.596889
0.00281509
-0.00652277
-0.730505
0.734213
0.0107865
-0.0150422
-0.851981
0.856236
0.0195988
-0.0242046
-0.974876
0.979482
0.0286819
-0.0325965
-1.11088
1.11479
0.0368014
-0.0399408
-1.25985
1.26299
0.0425127
-0.0442721
-1.42045
1.42221
0.0445305
-0.0431028
-1.59273
1.5913
0.0400253
-0.0353739
-1.49571
1.49106
0.0303863
-0.0243776
-1.19023
1.18422
0.0186826
-0.0121803
-0.962266
0.955764
0.00609158
0.00018633
-0.77367
0.767392
-0.00519517
0.00933894
-0.583131
0.578987
-0.0116718
0.0129466
-0.381284
0.380009
-0.0125819
0.0106714
-0.205499
0.20741
-0.00851199
0.00587364
-0.0862304
0.0888687
-0.00361626
0.00161973
-0.0219311
0.0239277
-0.000453383
9.05251e-05
0.000362857
-0.0759325
0.0748984
0.00103412
-0.00296027
0.00271784
-0.42532
0.425563
-0.001505
-0.000391514
-0.601542
0.603439
0.00389752
-0.00748801
-0.73824
0.74183
0.0115844
-0.015441
-0.860261
0.864118
0.0201174
-0.023944
-0.983508
0.987335
0.0284001
-0.032149
-1.11886
1.12261
0.0362593
-0.0396143
-1.26611
1.26947
0.0425015
-0.0440809
-1.42374
1.42532
0.0447295
-0.0437719
-1.58984
1.58888
0.0414342
-0.0372366
-1.48639
1.48219
0.0328219
-0.0273528
-1.17843
1.17296
0.0221599
-0.0161023
-0.94911
0.943052
0.0105958
-0.00468287
-0.760576
0.754663
-0.00031314
0.00453208
-0.572575
0.568356
-0.00707061
0.00839063
-0.376404
0.375084
-0.0086692
0.00763476
-0.206818
0.207852
-0.00624988
0.00439852
-0.0901474
0.0919987
-0.0027599
0.00128818
-0.0250961
0.0265678
-0.000388378
-0.000671675
0.00106005
-0.0762376
0.0755279
0.000709672
-0.00182689
0.00117066
-0.428831
0.429487
-0.000175225
-0.00207115
-0.607239
0.609485
0.00518937
-0.00863027
-0.745471
0.748912
0.0125582
-0.0165457
-0.867818
0.871805
0.0206123
-0.0246059
-0.991363
0.995357
0.0290367
-0.0325944
-1.12678
1.13034
0.0368163
-0.0401509
-1.27263
1.27597
0.0431299
-0.0452744
-1.42731
1.42946
0.0464689
-0.0458766
-1.588
1.58741
0.0438843
-0.0405004
-1.47825
1.47487
0.0367042
-0.0316727
-1.16746
1.16243
0.0268067
-0.0214283
-0.936978
0.931599
0.0160267
-0.0107101
-0.748272
0.742955
0.0059907
-0.00141588
-0.56256
0.557985
-0.00148143
0.00338543
-0.370955
0.369051
-0.004142
0.00406789
-0.206814
0.206888
-0.00344448
0.0025041
-0.0924402
0.0933806
-0.00165287
0.00081657
-0.0271957
0.028032
-0.000265444
-0.00124497
0.00151041
-0.0769633
0.0764158
0.000547445
-0.000870524
0.000329064
-0.432572
0.433114
0.00144672
-0.00347676
-0.613229
0.615259
0.00673016
-0.0100442
-0.75219
0.755504
0.0138234
-0.0174143
-0.875445
0.879036
0.0216099
-0.0252992
-0.99935
1.00304
0.0296938
-0.0337016
-1.13435
1.13836
0.0375884
-0.041275
-1.27935
1.28304
0.0447065
-0.0469835
-1.43151
1.43379
0.0486095
-0.0488626
-1.58707
1.58733
0.0473777
-0.0446571
-1.47141
1.46869
0.0411014
-0.0365853
-1.1575
1.15299
0.0322416
-0.0272225
-0.925902
0.920883
0.0224062
-0.0173349
-0.736935
0.731863
0.0127035
-0.00787362
-0.552182
0.547352
0.00437683
-0.00188602
-0.364698
0.362207
0.00040821
0.000354296
-0.205148
0.204386
-0.0006378
0.000651111
-0.0929577
0.0929444
-0.000531737
0.000327169
-0.0280559
0.0282605
-0.000130536
-0.00156756
0.0016981
-0.0779601
0.0776064
0.000353682
0.00016441
-0.00100748
-0.436399
0.437242
0.00261671
-0.00495528
-0.618782
0.621121
0.00813767
-0.0112953
-0.75868
0.761837
0.0151581
-0.0186023
-0.88259
0.886034
0.0226481
-0.0264689
-1.0072
1.01102
0.0307828
-0.0347723
-1.14222
1.14621
0.0389008
-0.0426375
-1.28665
1.29038
0.046286
-0.0493426
-1.43636
1.43942
0.0514585
-0.0520497
-1.58754
1.58813
0.0512744
-0.0488844
-1.46588
1.46349
0.0459074
-0.0420153
-1.14849
1.14459
0.0378957
-0.0333286
-0.915702
0.911135
0.0288685
-0.0238195
-0.726221
0.721172
0.019202
-0.0140303
-0.54167
0.536498
0.0100866
-0.00675885
-0.35749