/*--------------------------------*- C++ -*----------------------------------*\
| =========                 |                                                 |
| \\      /  F ield         | OpenFOAM: The Open Source CFD Toolbox           |
|  \\    /   O peration     | Version:  2306                                  |
|   \\  /    A nd           | Website:  www.openfoam.com                      |
|    \\/     M anipulation  |                                                 |
\*---------------------------------------------------------------------------*/
FoamFile
{
    version     2.0;
    format      ascii;
    arch        "LSB;label=32;scalar=64";
    class       volScalarField;
    location    "75";
    object      p;
}
// * * * * * * * * * * * * * * * * * * * * * * * * * * * * * * * * * * * * * //

dimensions      [0 2 -2 0 0 0 0];

internalField   nonuniform List<scalar> 
8800
(
0.841766
0.793717
0.755344
0.726707
0.706089
0.691345
0.680757
0.673275
0.668468
0.66645
0.667781
0.67204
0.67875
0.68812
0.700898
0.718503
0.742958
0.776578
0.819031
0.876158
0.674288
0.681496
0.689937
0.693357
0.691447
0.685932
0.679232
0.673088
0.668357
0.66554
0.665316
0.667891
0.672454
0.678491
0.68543
0.692069
0.696215
0.69571
0.689657
0.680687
0.650978
0.657156
0.661359
0.664726
0.667235
0.668043
0.66695
0.664828
0.662826
0.661967
0.662996
0.665452
0.668332
0.670586
0.671145
0.669635
0.666803
0.663177
0.658648
0.654864
0.645813
0.648516
0.651241
0.653559
0.655214
0.656553
0.65748
0.657711
0.657485
0.657505
0.658327
0.659548
0.660389
0.660368
0.659603
0.658431
0.656699
0.654213
0.651795
0.650265
0.64058
0.642004
0.643809
0.645872
0.647636
0.648957
0.650005
0.650909
0.651632
0.652293
0.653018
0.653545
0.653634
0.653328
0.652667
0.651491
0.649815
0.647951
0.646637
0.645813
0.635519
0.636434
0.637677
0.639268
0.640935
0.642478
0.643776
0.644891
0.645941
0.646939
0.647717
0.648103
0.648108
0.647727
0.646898
0.645714
0.644388
0.64314
0.642327
0.641782
0.630585
0.631251
0.632215
0.633527
0.634959
0.636455
0.637934
0.639301
0.64057
0.641781
0.642713
0.643177
0.643174
0.642727
0.641954
0.64103
0.640045
0.639142
0.638566
0.638164
0.625749
0.626263
0.62705
0.628192
0.629488
0.630893
0.632388
0.633922
0.635432
0.636884
0.638024
0.638614
0.63868
0.638361
0.637806
0.637122
0.636385
0.635724
0.6353
0.634985
0.620946
0.621354
0.622016
0.623036
0.624264
0.625623
0.627118
0.628747
0.630469
0.632204
0.633606
0.634402
0.634673
0.634588
0.634271
0.633807
0.63328
0.632814
0.632501
0.632245
0.61609
0.616422
0.616996
0.617939
0.619122
0.620473
0.622009
0.623743
0.625667
0.627711
0.629454
0.630564
0.631131
0.631316
0.631242
0.631011
0.630684
0.630383
0.630155
0.629939
0.611091
0.611366
0.61188
0.61278
0.613949
0.615331
0.616948
0.618833
0.621001
0.623402
0.625573
0.627088
0.62801
0.628503
0.628696
0.628703
0.628579
0.628422
0.628262
0.628074
0.605858
0.606089
0.606565
0.607451
0.608647
0.610103
0.611846
0.613938
0.616417
0.619261
0.621955
0.623958
0.625295
0.626141
0.626634
0.626884
0.62697
0.62695
0.626846
0.626679
0.600296
0.600492
0.600949
0.601852
0.603116
0.604691
0.606615
0.608983
0.611857
0.615255
0.618583
0.621164
0.622988
0.624241
0.625073
0.625595
0.625903
0.62601
0.625954
0.625799
0.594299
0.594467
0.594923
0.595872
0.597245
0.598991
0.601164
0.603887
0.607262
0.611341
0.615437
0.61871
0.62111
0.622833
0.624054
0.624901
0.625432
0.625663
0.625648
0.6255
0.587745
0.587889
0.588359
0.589383
0.590912
0.592888
0.595388
0.598565
0.602565
0.607478
0.612502
0.616602
0.619684
0.621962
0.623629
0.624829
0.62562
0.625982
0.626004
0.62586
0.58049
0.58061
0.581108
0.582237
0.583974
0.586251
0.589166
0.592916
0.597692
0.603624
0.609765
0.614852
0.618741
0.621674
0.623868
0.62548
0.626561
0.627058
0.627114
0.626968
0.572342
0.572452
0.572988
0.574254
0.576256
0.578911
0.582356
0.586826
0.59256
0.599732
0.607217
0.613477
0.618318
0.622022
0.62485
0.626943
0.62835
0.628988
0.629076
0.628925
0.563065
0.563164
0.563763
0.565193
0.56753
0.570678
0.574793
0.58016
0.587075
0.595758
0.604851
0.612501
0.618467
0.623077
0.626652
0.629311
0.631086
0.631873
0.631988
0.631828
0.552338
0.552418
0.553103
0.554765
0.55754
0.561315
0.566272
0.572762
0.581139
0.591656
0.602671
0.611956
0.619242
0.62492
0.629349
0.632678
0.634863
0.635804
0.635941
0.635768
0.53977
0.539836
0.540623
0.542598
0.545933
0.550512
0.556545
0.564454
0.574645
0.58739
0.600686
0.611882
0.620692
0.627611
0.633039
0.637134
0.639762
0.640852
0.641003
0.640814
0.524793
0.524848
0.52578
0.528172
0.532248
0.537881
0.545311
0.555036
0.567495
0.582941
0.59892
0.612323
0.622872
0.631209
0.637787
0.642734
0.645826
0.647049
0.647202
0.646993
0.506609
0.506653
0.507801
0.510783
0.515873
0.522931
0.532223
0.544307
0.559613
0.578318
0.59742
0.613329
0.62584
0.635767
0.643604
0.649498
0.653041
0.654362
0.6545
0.654271
0.48403
0.484073
0.485571
0.489441
0.495992
0.505056
0.516901
0.532098
0.550984
0.573591
0.596269
0.614965
0.629632
0.64131
0.650511
0.657375
0.66131
0.66267
0.662773
0.662524
0.455245
0.45531
0.457411
0.462717
0.47155
0.483565
0.499014
0.518349
0.541705
0.568908
0.595601
0.617315
0.634279
0.647802
0.658457
0.666235
0.670431
0.671742
0.671787
0.671523
0.41714
0.417316
0.420658
0.428615
0.441298
0.457856
0.478448
0.50322
0.53204
0.564522
0.595588
0.620471
0.639811
0.655205
0.667324
0.675838
0.680084
0.681237
0.681205
0.680933
0.36375
0.364788
0.371457
0.384898
0.404288
0.427875
0.455569
0.487206
0.522448
0.560773
0.596421
0.62452
0.646225
0.663457
0.676879
0.685827
0.689839
0.690733
0.690623
0.690354
0.286122
0.293695
0.309083
0.332708
0.362088
0.395075
0.431429
0.47094
0.513271
0.557886
0.598395
0.629888
0.654128
0.673303
0.68788
0.696975
0.700567
0.701188
0.70103
0.700801
0.203039
0.220413
0.245316
0.279852
0.319683
0.362188
0.40722
0.454737
0.504472
0.555933
0.602046
0.637553
0.664723
0.686096
0.701812
0.710516
0.7133
0.71363
0.713498
0.713341
0.133053
0.1537
0.186551
0.230388
0.279441
0.330915
0.384376
0.439745
0.496717
0.554769
0.60613
0.645272
0.674953
0.697959
0.714031
0.721937
0.724138
0.72439
0.724299
0.724177
0.0756874
0.0982253
0.136654
0.187066
0.243363
0.302371
0.363288
0.425864
0.489626
0.553922
0.610199
0.652654
0.68449
0.708688
0.724877
0.732312
0.734249
0.734499
0.734456
0.734359
0.0280917
0.0518746
0.0941364
0.149746
0.21184
0.277057
0.34435
0.413317
0.483293
0.553441
0.614374
0.659962
0.69381
0.71916
0.735556
0.742706
0.744483
0.744748
0.744748
0.744672
-0.0121759
0.0122935
0.0574707
0.11717
0.184157
0.254659
0.327489
0.402138
0.477789
0.553417
0.618807
0.667418
0.703264
0.729762
0.746477
0.753535
0.755351
0.755608
0.755636
0.755576
-0.0471755
-0.0222786
0.0251902
0.0882772
0.159406
0.234521
0.312278
0.392072
0.472967
0.553768
0.623466
0.675079
0.712933
0.740608
0.757823
0.765114
0.766912
0.767171
0.767217
0.767171
-0.078431
-0.0531797
-0.00384559
0.0621328
0.136843
0.216016
0.298216
0.382733
0.468535
0.55429
0.628188
0.682782
0.722676
0.751649
0.769547
0.777102
0.778987
0.779239
0.779274
0.779247
-0.106954
-0.0813994
-0.0304739
0.0380105
0.115869
0.198659
0.284876
0.373755
0.464199
0.554731
0.632767
0.690337
0.732307
0.762594
0.7812
0.789094
0.791096
0.791355
0.79138
0.791347
-0.13357
-0.107679
-0.0553676
0.0153404
0.0960254
0.18206
0.271928
0.364851
0.459686
0.554855
0.637005
0.697565
0.741598
0.773209
0.7925
0.800709
0.802814
0.803037
0.803018
0.803003
-0.158691
-0.132463
-0.0787882
-0.00627831
0.0769756
0.165931
0.259124
0.355793
0.454791
0.554491
0.640752
0.704313
0.75038
0.783266
0.803176
0.811682
0.813872
0.814073
0.81402
0.813995
-0.1828
-0.15615
-0.101433
-0.0270568
0.0584735
0.150055
0.246284
0.346423
0.449365
0.553485
0.643885
0.710505
0.7586
0.792653
0.813066
0.821737
0.823959
0.824134
0.824045
0.824009
-0.206041
-0.178918
-0.123303
-0.0471978
0.0403532
0.134299
0.233288
0.336634
0.443293
0.551721
0.646321
0.716105
0.766248
0.801368
0.822091
0.830824
0.832999
0.833133
0.833011
0.832962
-0.228568
-0.201084
-0.144439
-0.0668374
0.0225234
0.11859
0.22007
0.326349
0.436492
0.549105
0.647976
0.721102
0.773388
0.809475
0.83033
0.838915
0.841005
0.841097
0.840945
0.840883
-0.250552
-0.222578
-0.16497
-0.0860394
0.00493054
0.102894
0.206606
0.315548
0.428924
0.545561
0.64877
0.725485
0.780132
0.817182
0.837953
0.846169
0.848057
0.84807
0.847906
0.847835
-0.272036
-0.243483
-0.184995
-0.10483
-0.0124211
0.0872065
0.192907
0.30424
0.420576
0.541024
0.64862
0.729237
0.786591
0.824699
0.84517
0.852725
0.854253
0.854177
0.853991
0.853916
-0.292911
-0.263807
-0.204462
-0.123205
-0.0295253
0.0715675
0.179006
0.292466
0.41147
0.53548
0.647436
0.732296
0.792825
0.832302
0.852357
0.85885
0.859717
0.859477
0.859304
0.859235
-0.313153
-0.283525
-0.223377
-0.141134
-0.0463476
0.056015
0.164973
0.28028
0.401657
0.528924
0.645137
0.734541
0.798831
0.840249
0.86004
0.865099
0.864751
0.864102
0.863974
0.863978
-0.332843
-0.302612
-0.241737
-0.158603
-0.0628408
0.0406158
0.150876
0.267765
0.391205
0.52139
0.641638
0.735811
0.804482
0.848634
0.868825
0.872508
0.870212
0.868444
0.868262
0.868643
-0.351829
-0.321069
-0.259493
-0.175565
-0.0789598
0.0254422
0.1368
0.255016
0.380211
0.512946
0.636889
0.735895
0.80952
0.857251
0.879031
0.882373
0.878228
0.874144
0.872698
0.872967
-0.370202
-0.338899
-0.276667
-0.19206
-0.0947424
0.0104518
0.122689
0.24198
0.368611
0.503526
0.630747
0.734518
0.813678
0.865708
0.890375
0.895451
0.891201
0.883734
0.875814
0.867969
-0.387897
-0.356089
-0.293385
-0.208284
-0.110469
-0.00467347
0.108147
0.2282
0.3559
0.49254
0.622632
0.730985
0.816569
0.873576
0.901631
0.910319
0.906363
0.892996
0.871379
0.867474
-0.404755
-0.372677
-0.309478
-0.224065
-0.125821
-0.0196179
0.0933784
0.213982
0.342359
0.480201
0.61253
0.724637
0.817199
0.879568
0.908763
0.917922
0.914891
0.88696
0.821921
0.793739
-0.420319
-0.389992
-0.324594
-0.238931
-0.13995
-0.033864
0.0787009
0.199581
0.328231
0.466644
0.600376
0.715007
0.814005
0.882604
0.906692
0.91051
0.892555
0.834999
0.765509
0.724104
-0.468942
-0.406229
-0.33823
-0.253842
-0.15425
-0.0487423
0.0641366
0.184759
0.313178
0.451404
0.585527
0.701379
0.802739
0.87859
0.884019
0.873436
0.816197
0.74208
0.66426
0.62119
-0.436018
-0.419185
-0.358639
-0.273126
-0.17589
-0.0704677
0.0415157
0.161545
0.289113
0.426172
0.55893
0.673965
0.768116
0.851532
0.831378
0.709233
0.600895
0.524716
0.450208
0.47903
-0.466323
-0.43649
-0.374749
-0.290189
-0.192865
-0.0875251
0.0247077
0.144132
0.270718
0.406143
0.536364
0.647586
0.731586
0.776225
0.721936
0.565559
0.435519
0.342491
0.243958
0.291539
-0.489245
-0.457059
-0.393747
-0.309121
-0.211721
-0.106446
0.00570072
0.124321
0.249552
0.382645
0.509173
0.614067
0.688253
0.696303
0.583561
0.408568
0.255932
0.13681
0.00821531
0.0413739
-0.511611
-0.478147
-0.413617
-0.328163
-0.23073
-0.125624
-0.0140049
0.103653
0.227296
0.357605
0.479366
0.575854
0.634077
0.609944
0.445196
0.248239
0.0618412
-0.102884
-0.287091
-0.298518
-0.533461
-0.499607
-0.434242
-0.348091
-0.250553
-0.145702
-0.0347582
0.0817858
0.203546
0.330614
0.446769
0.534735
0.572589
0.510407
0.313115
0.100874
-0.110684
-0.289512
-0.534892
-0.793048
-0.555627
-0.521782
-0.455958
-0.369379
-0.271701
-0.167056
-0.0567323
0.058643
0.178378
0.301891
0.411958
0.491272
0.506065
0.392101
0.197071
-0.0170807
-0.222065
-0.386911
-0.465385
-0.570551
-0.579051
-0.545136
-0.479088
-0.392332
-0.294662
-0.190328
-0.0807303
0.0332846
0.150638
0.27001
0.37348
0.441264
0.430024
0.281431
0.0926333
-0.10493
-0.274284
-0.367036
-0.390554
-0.406582
-0.603999
-0.569975
-0.503796
-0.417027
-0.319562
-0.215727
-0.10711
0.00522006
0.119734
0.234242
0.330678
0.383149
0.353053
0.177784
-0.00266464
-0.175379
-0.305482
-0.344808
-0.356696
-0.357891
-0.630678
-0.596464
-0.530142
-0.443464
-0.346353
-0.243256
-0.135893
-0.0256036
0.0856015
0.194595
0.28309
0.319939
0.267196
0.0823232
-0.0891535
-0.242443
-0.320501
-0.337746
-0.338769
-0.338562
-0.659141
-0.624656
-0.558153
-0.471644
-0.375055
-0.27291
-0.167087
-0.0592037
0.0482521
0.151161
0.23068
0.254724
0.16545
-0.00476591
-0.167921
-0.292675
-0.33066
-0.328582
-0.328014
-0.32745
-0.689097
-0.654403
-0.587731
-0.501486
-0.405585
-0.304637
-0.200665
-0.0955556
0.00773083
0.104058
0.174432
0.181007
0.0732483
-0.0853647
-0.230074
-0.308048
-0.318387
-0.320867
-0.321337
-0.321053
-0.720009
-0.685197
-0.618636
-0.532771
-0.437762
-0.338285
-0.236478
-0.134531
-0.035761
0.0536601
0.114978
0.106298
-0.00994795
-0.153771
-0.273361
-0.312261
-0.31719
-0.317343
-0.316981
-0.316669
-0.751409
-0.71649
-0.650411
-0.565107
-0.471247
-0.373538
-0.274247
-0.175845
-0.0819256
0.000741352
0.0512736
0.0345511
-0.0855995
-0.209116
-0.301734
-0.316255
-0.31279
-0.313448
-0.313707
-0.313518
-0.782418
-0.747628
-0.682181
-0.597891
-0.505503
-0.409928
-0.31352
-0.219015
-0.130311
-0.0539469
-0.0138228
-0.0315062
-0.151691
-0.249623
-0.305695
-0.31543
-0.313656
-0.312475
-0.312005
-0.311872
-0.811516
-0.777504
-0.712985
-0.630197
-0.539774
-0.446759
-0.353643
-0.263336
-0.180141
-0.109806
-0.0738314
-0.102902
-0.205312
-0.288651
-0.297905
-0.311974
-0.313289
-0.311576
-0.311094
-0.310808
-0.837073
-0.804118
-0.741789
-0.660883
-0.57303
-0.483103
-0.393759
-0.307934
-0.230248
-0.16603
-0.130445
-0.169211
-0.250019
-0.312673
-0.331206
-0.322632
-0.317932
-0.316183
-0.315352
-0.314789
-0.856997
-0.825751
-0.766265
-0.688595
-0.603992
-0.51784
-0.432786
-0.351782
-0.279408
-0.221382
-0.187806
-0.222275
-0.282113
-0.339507
-0.36588
-0.339522
-0.328927
-0.326206
-0.324624
-0.323841
-0.869096
-0.840533
-0.784846
-0.711328
-0.631179
-0.549666
-0.469552
-0.393695
-0.326517
-0.274159
-0.242217
-0.264114
-0.293284
-0.332731
-0.325119
-0.325091
-0.326504
-0.32636
-0.325995
-0.32618
-0.870746
-0.846156
-0.795471
-0.727375
-0.652913
-0.577175
-0.50274
-0.432464
-0.370463
-0.323031
-0.286838
-0.297976
-0.28917
-0.293373
-0.298916
-0.312271
-0.317039
-0.318959
-0.320055
-0.320341
-0.859777
-0.839952
-0.795999
-0.735178
-0.667773
-0.598914
-0.53104
-0.466824
-0.41016
-0.367007
-0.323833
-0.32699
-0.302932
-0.290288
-0.307077
-0.317297
-0.322167
-0.324284
-0.324996
-0.32516
-0.834121
-0.819316
-0.784663
-0.733509
-0.674782
-0.613928
-0.553314
-0.495476
-0.444335
-0.405163
-0.359176
-0.352863
-0.348191
-0.346758
-0.342159
-0.339723
-0.338158
-0.337403
-0.336937
-0.336916
-0.796523
-0.786989
-0.762329
-0.722529
-0.673947
-0.621973
-0.568931
-0.517399
-0.471386
-0.436245
-0.405588
-0.385988
-0.378663
-0.407307
-0.403304
-0.36952
-0.351314
-0.343779
-0.341285
-0.340584
-0.753725
-0.748284
-0.733785
-0.705079
-0.667179
-0.623839
-0.578023
-0.532104
-0.489853
-0.457155
-0.42848
-0.398514
-0.370229
-0.37672
-0.38015
-0.360885
-0.335032
-0.321175
-0.317583
-0.316379
-0.715305
-0.71202
-0.705087
-0.686469
-0.657384
-0.62137
-0.581688
-0.539839
-0.499131
-0.46423
-0.436072
-0.389316
-0.319245
-0.241817
-0.164314
-0.155075
-0.201635
-0.24358
-0.26414
-0.267633
-0.687639
-0.685608
-0.682052
-0.670825
-0.648343
-0.617619
-0.581827
-0.542158
-0.500081
-0.460387
-0.42916
-0.381154
-0.336512
-0.310225
-0.385883
-0.534172
-0.63769
-0.635486
-0.574162
-0.564517
-0.66685
-0.666105
-0.664937
-0.659378
-0.642613
-0.615292
-0.580759
-0.540567
-0.495795
-0.448641
-0.409979
-0.383536
-0.431342
-0.605021
-0.829908
-0.931204
-0.954796
-0.914026
-0.832154
-0.793596
-0.654746
-0.654489
-0.65388
-0.651322
-0.639753
-0.614317
-0.579176
-0.537097
-0.488841
-0.432903
-0.389331
-0.350424
-0.367912
-0.440192
-0.574988
-0.682941
-0.663059
-0.558995
-0.448074
-0.392582
-0.646467
-0.646296
-0.645785
-0.64491
-0.638
-0.614826
-0.578475
-0.533773
-0.479867
-0.415737
-0.352559
-0.284793
-0.180185
-0.041824
0.120625
0.256337
0.410639
0.540432
0.617795
0.650409
-0.641287
-0.641245
-0.641095
-0.641216
-0.636872
-0.61707
-0.579783
-0.531022
-0.471513
-0.398801
-0.311493
-0.224039
-0.0367407
0.273138
0.62618
0.97263
1.25046
1.40638
1.47304
1.49281
-0.63711
-0.637139
-0.637104
-0.636871
-0.635602
-0.620484
-0.583208
-0.530399
-0.465561
-0.383587
-0.284682
-0.181781
0.0266609
0.379459
0.779431
1.15017
1.44443
1.60838
1.6678
1.68002
-0.63433
-0.634263
-0.633799
-0.632438
-0.631585
-0.625068
-0.58967
-0.532988
-0.463196
-0.377847
-0.2758
-0.17088
-0.0028557
0.325292
0.66401
0.972331
1.21432
1.34403
1.38779
1.39557
-0.634173
-0.634982
-0.637056
-0.640316
-0.644235
-0.638164
-0.59867
-0.537893
-0.46735
-0.382267
-0.284037
-0.185891
-0.0588838
0.203209
0.465376
0.68325
0.843643
0.926407
0.955627
0.961826
-0.630954
-0.633242
-0.640348
-0.656048
-0.67433
-0.658486
-0.604706
-0.545192
-0.479359
-0.395596
-0.303416
-0.214623
-0.117348
0.0738734
0.261111
0.403684
0.502608
0.553622
0.574892
0.581759
-0.640191
-0.641623
-0.642591
-0.634048
-0.617923
-0.602178
-0.585058
-0.554646
-0.495892
-0.413617
-0.329937
-0.252144
-0.178066
-0.0372102
0.101815
0.20425
0.275401
0.313952
0.332063
0.337711
-0.679736
-0.678817
-0.669463
-0.61639
-0.537625
-0.511123
-0.56267
-0.569274
-0.516901
-0.434603
-0.355847
-0.287107
-0.228364
-0.120941
-0.0114173
0.0730089
0.134431
0.170279
0.18575
0.189521
-0.733624
-0.730881
-0.73288
-0.719599
-0.703112
-0.675211
-0.681218
-0.633545
-0.548413
-0.45626
-0.378292
-0.319913
-0.274642
-0.184463
-0.091879
-0.0191985
0.0369673
0.0708612
0.0840382
0.0855653
-0.865973
-0.881905
-0.934308
-1.00126
-1.02533
-0.990495
-0.899499
-0.73831
-0.593182
-0.476473
-0.394037
-0.340343
-0.303425
-0.227356
-0.148448
-0.0880359
-0.0408332
-0.0135297
-0.00294945
-0.00240413
-1.0227
-1.05186
-1.11018
-1.16364
-1.185
-1.14343
-1.02178
-0.804377
-0.620101
-0.483656
-0.397049
-0.347646
-0.311876
-0.25109
-0.188015
-0.137517
-0.0997828
-0.0776457
-0.0693171
-0.0691728
-1.03265
-1.05351
-1.0935
-1.13244
-1.14935
-1.11323
-0.977538
-0.767903
-0.592698
-0.462441
-0.382703
-0.337709
-0.305294
-0.258625
-0.210625
-0.171035
-0.142122
-0.125672
-0.120275
-0.121057
-0.837771
-0.858667
-0.89593
-0.936867
-0.958186
-0.925053
-0.79896
-0.643719
-0.510654
-0.411609
-0.34826
-0.311047
-0.286356
-0.253972
-0.219516
-0.191734
-0.171364
-0.160224
-0.15699
-0.158216
-0.500513
-0.516568
-0.548094
-0.587726
-0.617567
-0.611002
-0.551326
-0.472944
-0.399299
-0.341743
-0.300487
-0.275137
-0.258492
-0.238485
-0.218514
-0.203677
-0.192982
-0.187957
-0.18686
-0.188154
-0.160733
-0.17007
-0.191383
-0.224985
-0.263884
-0.290254
-0.300016
-0.297062
-0.284856
-0.264831
-0.246044
-0.232713
-0.225352
-0.217429
-0.211733
-0.209215
-0.209391
-0.211435
-0.212504
-0.213333
0.0638441
0.0588177
0.0442057
0.0154664
-0.0279975
-0.0806049
-0.128085
-0.163041
-0.184874
-0.193022
-0.19204
-0.187686
-0.186018
-0.188868
-0.196045
-0.205233
-0.21471
-0.221651
-0.223935
-0.224286
0.158631
0.155654
0.145057
0.121131
0.0805902
0.0269632
-0.0289666
-0.0778355
-0.113774
-0.135992
-0.14413
-0.143942
-0.145315
-0.156589
-0.172848
-0.188982
-0.202637
-0.210976
-0.213284
-0.213431
0.172342
0.17026
0.162459
0.144241
0.112421
0.0690182
0.0206703
-0.0266471
-0.0659906
-0.0936402
-0.1068
-0.108569
-0.11096
-0.127329
-0.146552
-0.162989
-0.175571
-0.18198
-0.183669
-0.183905
0.151076
0.14969
0.144266
0.131414
0.10866
0.0765676
0.0384659
-0.000899528
-0.0362478
-0.0648601
-0.0818717
-0.0883528
-0.0934788
-0.108492
-0.122981
-0.134353
-0.142057
-0.145191
-0.146113
-0.1465
0.119627
0.118809
0.115259
0.106645
0.0910837
0.0685308
0.0403413
0.00924879
-0.0207729
-0.04746
-0.0680651
-0.0830163
-0.0930185
-0.0995212
-0.1051
-0.108617
-0.110131
-0.110333
-0.11067
-0.1112
0.0875519
0.0872354
0.0850864
0.0796075
0.0693924
0.0540991
0.0342287
0.0115232
-0.0121978
-0.0359768
-0.0596051
-0.0828699
-0.0963126
-0.0933048
-0.0899452
-0.086509
-0.0843304
-0.0832228
-0.0832424
-0.0837383
0.0580875
0.0579437
0.0568166
0.0535981
0.0473171
0.0376126
0.0245998
0.00923615
-0.00767981
-0.0265571
-0.0482676
-0.0732064
-0.0849626
-0.0772011
-0.0681905
-0.0647211
-0.0630303
-0.0625451
-0.0625688
-0.0628622
0.0312049
0.0312281
0.0308061
0.0292547
0.0259995
0.0208778
0.0138617
0.00547742
-0.00425458
-0.015324
-0.0299057
-0.0466828
-0.0525822
-0.0460236
-0.0412862
-0.040163
-0.040619
-0.041327
-0.0413856
-0.0413727
0.00570543
0.00579904
0.00586497
0.00609845
0.00595468
0.00523229
0.00394756
0.00227942
0.000357476
-0.00149622
-0.00393052
-0.00798837
-0.0104803
-0.0104594
-0.010989
-0.0111369
-0.0115466
-0.0117144
-0.0111847
-0.0104362
-0.105498
0.0800461
0.277613
0.443314
0.574496
0.676701
0.761038
0.832008
0.86138
0.845366
0.213189
0.334682
0.461508
0.57058
0.661871
0.737103
0.79757
0.840028
0.862119
0.87517
0.428242
0.510382
0.596431
0.672784
0.738032
0.792469
0.835621
0.867475
0.891038
0.909048
0.585085
0.643334
0.703604
0.759437
0.807765
0.848726
0.882452
0.909789
0.932123
0.950469
0.708108
0.74986
0.796202
0.838581
0.876482
0.909622
0.938076
0.96212
0.981791
0.999789
0.810575
0.843159
0.881086
0.916026
0.948089
0.976977
1.00233
1.02387
1.04082
1.05844
0.902266
0.930863
0.964548
0.99644
1.0261
1.05308
1.07676
1.0965
1.11105
1.12851
0.990322
1.01956
1.05332
1.08527
1.11472
1.1412
1.16402
1.18239
1.19499
1.21245
1.08532
1.11878
1.15507
1.18866
1.21859
1.24465
1.26649
1.28352
1.29492
1.31272
1.20001
1.23849
1.27663
1.31076
1.33994
1.36454
1.38478
1.40044
1.41174
1.43007
1.34459
1.38402
1.41952
1.44986
1.47538
1.49739
1.51636
1.53186
1.54448
1.5626
1.51923
1.55126
1.57701
1.59931
1.61932
1.63804
1.65564
1.67217
1.6879
1.70609
1.70678
1.72432
1.73983
1.75639
1.77253
1.78706
1.80007
1.81403
1.83111
1.85078
1.88834
1.8993
1.91143
1.92221
1.93146
1.94101
1.95188
1.96346
1.9734
1.98857
2.09933
2.10134
2.08618
2.07095
2.06456
2.07022
2.08882
2.11923
2.15136
2.1821
2.40524
2.2682
2.19189
2.14977
2.13233
2.13637
2.16371
2.21986
2.32331
2.53859
0.738053
0.734679
0.728755
0.718954
0.706019
0.693607
0.683313
0.675392
0.669772
0.666539
0.666229
0.669027
0.674194
0.681481
0.690945
0.702652
0.715795
0.727795
0.735255
0.739979
0.65605
0.661937
0.668845
0.67409
0.676944
0.676628
0.67374
0.669844
0.666314
0.664074
0.663975
0.666235
0.669971
0.674364
0.678338
0.680358
0.679258
0.675178
0.66929
0.662247
0.648366
0.650714
0.654067
0.656981
0.659207
0.66102
0.661998
0.66177
0.660776
0.659931
0.660161
0.661648
0.663514
0.664831
0.664904
0.663754
0.661961
0.659629
0.656482
0.653522
0.643183
0.644269
0.646139
0.648527
0.650498
0.651904
0.653021
0.653909
0.654419
0.654721
0.655281
0.656134
0.656732
0.656742
0.656251
0.655402
0.654015
0.651972
0.649869
0.648458
0.638033
0.638688
0.6398
0.641529
0.643346
0.644978
0.646268
0.647328
0.648296
0.649182
0.649993
0.650592
0.650799
0.650645
0.650121
0.64912
0.647703
0.646146
0.644833
0.644053
0.63304
0.633494
0.634281
0.635586
0.637094
0.638645
0.640138
0.641462
0.642649
0.643786
0.644792
0.645433
0.645638
0.645423
0.644771
0.6438
0.642684
0.641566
0.640667
0.640149
0.62816
0.6285
0.629113
0.63019
0.631495
0.632895
0.634373
0.635865
0.637294
0.638652
0.639865
0.640657
0.640919
0.640707
0.640148
0.639401
0.638579
0.637736
0.637079
0.636701
0.623351
0.623615
0.62411
0.625029
0.626214
0.627534
0.628967
0.63051
0.632122
0.633736
0.635204
0.636194
0.636593
0.636545
0.636208
0.635695
0.635084
0.634474
0.633999
0.63371
0.618533
0.618742
0.619155
0.619965
0.621073
0.62235
0.623776
0.62537
0.627126
0.628996
0.630772
0.632042
0.632696
0.632906
0.632815
0.632534
0.632138
0.631724
0.631391
0.631165
0.613617
0.613785
0.61414
0.614878
0.615943
0.617204
0.618664
0.62035
0.622274
0.624417
0.626559
0.628211
0.629211
0.629728
0.629905
0.629866
0.629691
0.629457
0.629242
0.629062
0.608513
0.608648
0.608962
0.609657
0.610709
0.611999
0.613534
0.615357
0.617506
0.619979
0.622569
0.624695
0.626109
0.626982
0.627464
0.627687
0.627733
0.627676
0.627561
0.627417
0.603128
0.603236
0.603523
0.604201
0.605275
0.606639
0.608293
0.610308
0.612751
0.615642
0.618783
0.621479
0.623383
0.624668
0.625497
0.626005
0.62629
0.626409
0.626383
0.626266
0.597363
0.597448
0.597719
0.598404
0.599536
0.601018
0.602846
0.605122
0.607939
0.611358
0.615172
0.618552
0.621037
0.622801
0.624026
0.62487
0.625419
0.625708
0.625761
0.625664
0.591105
0.59117
0.591434
0.592148
0.593376
0.595023
0.59709
0.599707
0.602999
0.607072
0.611707
0.615909
0.619085
0.621415
0.623097
0.62432
0.625159
0.625634
0.625764
0.625684
0.58422
0.584264
0.584529
0.585295
0.58666
0.588528
0.590907
0.593958
0.597849
0.602728
0.608359
0.613548
0.617545
0.620545
0.622765
0.624416
0.625594
0.626271
0.626475
0.626408
0.576552
0.576573
0.576839
0.577681
0.579227
0.581379
0.584156
0.587758
0.592397
0.598264
0.605101
0.611471
0.616441
0.62023
0.623091
0.625255
0.626816
0.627711
0.62799
0.627932
0.567864
0.567876
0.568162
0.569102
0.57088
0.573383
0.576671
0.580967
0.586533
0.593613
0.601908
0.609686
0.615809
0.620526
0.624141
0.626922
0.628921
0.630055
0.630409
0.630356
0.557879
0.557863
0.558197
0.559285
0.561353
0.564318
0.568253
0.573419
0.580137
0.588704
0.598756
0.608207
0.615688
0.6215
0.626001
0.629497
0.632006
0.6334
0.633827
0.633775
0.546276
0.546235
0.546619
0.547899
0.550337
0.553897
0.558653
0.564916
0.573074
0.583465
0.595631
0.607056
0.616121
0.623213
0.628752
0.633072
0.636164
0.637833
0.638326
0.638271
0.532553
0.532486
0.532951
0.534485
0.53741
0.541741
0.547557
0.555227
0.565198
0.577833
0.592528
0.606267
0.617158
0.625715
0.632466
0.637734
0.641464
0.643411
0.643959
0.643894
0.516039
0.515943
0.516537
0.518425
0.522003
0.527365
0.534584
0.544087
0.556363
0.571763
0.589465
0.605879
0.618853
0.629072
0.637186
0.643514
0.647935
0.650144
0.650725
0.650642
0.495759
0.495639
0.496439
0.498845
0.503343
0.510137
0.519274
0.531218
0.546455
0.565255
0.586498
0.605954
0.621258
0.633325
0.642923
0.650428
0.655543
0.657965
0.658545
0.658438
0.47025
0.470119
0.471261
0.474471
0.480363
0.489255
0.501115
0.516382
0.535441
0.558391
0.583741
0.606588
0.624424
0.638488
0.649695
0.658424
0.664166
0.666708
0.667242
0.667103
0.437127
0.437024
0.438788
0.443393
0.451617
0.463797
0.479659
0.499492
0.523443
0.551371
0.581375
0.607899
0.628408
0.644562
0.657431
0.667368
0.673568
0.676087
0.676523
0.676348
0.392125
0.392202
0.395338
0.402863
0.415431
0.432987
0.454788
0.48078
0.510815
0.544536
0.579648
0.610025
0.63327
0.651521
0.666047
0.677028
0.683388
0.685689
0.685982
0.685777
0.327256
0.328524
0.336186
0.350312
0.370853
0.396971
0.427134
0.460962
0.49818
0.538335
0.578823
0.613084
0.639014
0.659287
0.675269
0.686936
0.693106
0.694962
0.695083
0.694867
0.250164
0.252344
0.267125
0.291446
0.323038
0.359226
0.398463
0.440584
0.485422
0.532565
0.57914
0.618034
0.64727
0.670008
0.687609
0.699771
0.70547
0.706933
0.706996
0.706861
0.17093
0.177557
0.199535
0.234244
0.276413
0.322418
0.370696
0.421145
0.473661
0.52784
0.580566
0.624099
0.656544
0.681653
0.700851
0.71294
0.717678
0.718606
0.718612
0.71854
0.106171
0.115031
0.141599
0.183511
0.233963
0.288304
0.344735
0.402984
0.462817
0.523738
0.582287
0.63009
0.665367
0.692297
0.712296
0.724001
0.728234
0.729038
0.729074
0.729047
0.0533936
0.0628773
0.093051
0.140271
0.196937
0.257967
0.321274
0.386395
0.452899
0.520121
0.584158
0.635962
0.673836
0.702392
0.722996
0.734496
0.73843
0.739181
0.739262
0.739283
0.00930324
0.0190603
0.0517089
0.102981
0.164742
0.231325
0.300447
0.371561
0.444059
0.517104
0.586337
0.641956
0.68231
0.712448
0.733772
0.745221
0.74891
0.749702
0.749853
0.749916
-0.0285167
-0.0186648
0.0158196
0.0703271
0.136324
0.207657
0.281856
0.358287
0.436224
0.514677
0.588846
0.648175
0.690993
0.722719
0.744787
0.756353
0.760107
0.760949
0.761126
0.761227
-0.061773
-0.0519061
-0.0160238
0.041218
0.11077
0.186208
0.264919
0.34616
0.429111
0.512644
0.591559
0.654533
0.699812
0.733169
0.756123
0.768101
0.77202
0.772879
0.77304
0.773151
-0.0917728
-0.0818885
-0.0448716
0.0147314
0.0873328
0.166378
0.249122
0.334753
0.422369
0.510741
0.594264
0.660837
0.708596
0.743641
0.767588
0.780079
0.7842
0.785097
0.785236
0.785327
-0.119438
-0.109534
-0.0715457
-0.00984431
0.0654361
0.147692
0.23406
0.323711
0.415696
0.508698
0.596734
0.666895
0.717145
0.753895
0.77884
0.791852
0.79618
0.797051
0.797085
0.797199
-0.145371
-0.135408
-0.0965237
-0.0330778
0.0446355
0.129781
0.219427
0.312769
0.408841
0.506287
0.598779
0.672543
0.725267
0.763684
0.789607
0.803088
0.807659
0.808549
0.808578
0.808612
-0.170054
-0.159997
-0.12024
-0.0553031
0.0246416
0.112374
0.204991
0.30172
0.401624
0.503344
0.600251
0.67765
0.732868
0.772898
0.799701
0.813547
0.818266
0.819148
0.819138
0.819137
-0.193823
-0.183587
-0.143083
-0.0767032
0.00524661
0.0952798
0.190591
0.290432
0.393913
0.499738
0.601028
0.682144
0.739901
0.781489
0.809043
0.823116
0.827883
0.828704
0.828657
0.828625
-0.21679
-0.206375
-0.165226
-0.0974183
-0.0137077
0.0783958
0.176134
0.278812
0.385616
0.495353
0.601009
0.685974
0.746376
0.7895
0.817615
0.831729
0.836418
0.83719
0.837117
0.837058
-0.239166
-0.228507
-0.18666
-0.117564
-0.0323003
0.0616554
0.161568
0.266814
0.37668
0.490127
0.600105
0.689087
0.752339
0.797051
0.825588
0.839546
0.844005
0.844688
0.844563
0.844487
-0.260936
-0.250035
-0.207512
-0.137224
-0.050559
0.0450417
0.14689
0.254436
0.367092
0.484011
0.598232
0.691422
0.757844
0.804322
0.833159
0.846681
0.850737
0.851252
0.851084
0.850996
-0.282159
-0.270991
-0.227766
-0.15641
-0.0684877
0.0285602
0.132114
0.24171
0.356873
0.476987
0.595321
0.692908
0.762907
0.811482
0.840619
0.853392
0.856746
0.856991
0.856781
0.856688
-0.302724
-0.291346
-0.24742
-0.175094
-0.0860611
0.0122594
0.117286
0.228681
0.346065
0.469082
0.591318
0.693445
0.767483
0.818685
0.848362
0.86013
0.862304
0.862
0.861737
0.861679
-0.322751
-0.31107
-0.266478
-0.193274
-0.103264
-0.00383875
0.102479
0.21541
0.334735
0.46035
0.586195
0.692904
0.771451
0.825967
0.856787
0.867636
0.868093
0.866613
0.866097
0.866192
-0.342102
-0.330137
-0.28493
-0.21092
-0.120033
-0.0196619
0.0877616
0.202005
0.322974
0.450834
0.579961
0.691148
0.774609
0.833181
0.866091
0.876815
0.875537
0.872011
0.870291
0.870065
-0.360839
-0.348609
-0.30273
-0.227991
-0.136342
-0.0351508
0.0732108
0.188534
0.310881
0.440651
0.572656
0.688027
0.776689
0.839969
0.875956
0.888114
0.886593
0.880891
0.875051
0.867337
-0.378895
-0.366453
-0.319963
-0.244646
-0.152402
-0.0505681
0.0585079
0.174621
0.298042
0.429345
0.563818
0.683068
0.777338
0.846201
0.886038
0.901383
0.90198
0.894958
0.883407
0.880713
-0.396221
-0.383659
-0.336629
-0.260853