/*--------------------------------*- C++ -*----------------------------------*\
| =========                 |                                                 |
| \\      /  F ield         | OpenFOAM: The Open Source CFD Toolbox           |
|  \\    /   O peration     | Version:  2306                                  |
|   \\  /    A nd           | Website:  www.openfoam.com                      |
|    \\/     M anipulation  |                                                 |
\*---------------------------------------------------------------------------*/
FoamFile
{
    version     2.0;
    format      ascii;
    arch        "LSB;label=32;scalar=64";
    class       surfaceScalarField;
    location    "75";
    object      phi;
}
// * * * * * * * * * * * * * * * * * * * * * * * * * * * * * * * * * * * * * //

dimensions      [0 3 -1 0 0 0 0];

oriented        oriented;

internalField   nonuniform List<scalar> 
17370
(
-0.0910978
0.0935437
0.286565
-0.074952
0.0569512
0.364776
-0.0409337
0.0299492
0.427153
-0.0211939
0.0155934
0.504852
-0.0113433
0.0086437
0.602102
-0.00651096
0.00505778
0.720511
-0.0038384
0.0029668
0.863778
-0.00219912
0.00162374
1.03603
-0.00109395
0.000673897
1.24292
-0.000263009
-0.000132688
1.49159
0.000519767
-0.000933202
1.4916
0.0013383
-0.00184127
1.24319
0.00238623
-0.00311921
1.03637
0.00396427
-0.00516383
0.864106
0.00660613
-0.00873072
0.721182
0.0114227
-0.0156622
0.603454
0.0212514
-0.0299936
0.508181
0.0409655
-0.0569727
0.432175
0.0749687
-0.0935534
0.36536
0.0911122
0.197899
-0.12735
0.0881501
0.0391997
-0.36474
0.353796
-0.0726218
0.0835654
-0.446567
0.454373
-0.0816963
0.0738904
-0.520973
0.52953
-0.065779
0.0572225
-0.612852
0.621022
-0.0494683
0.0412988
-0.727004
0.733796
-0.0343682
0.0275759
-0.867517
0.872457
-0.02223
0.0172896
-1.03855
1.04191
-0.0135668
0.010211
-1.24472
1.24713
-0.00765273
0.00523751
-1.49284
1.49486
-0.0032672
0.00124794
-1.49269
1.49451
0.000574634
-0.00239691
-1.2441
1.24602
0.00437572
-0.00629298
-1.0376
1.04008
0.00863446
-0.0111141
-0.866157
0.869801
0.0143777
-0.0180209
-0.724476
0.729766
0.0228874
-0.0281776
-0.608884
0.615768
0.0349162
-0.0418
-0.514987
0.522691
0.0499173
-0.0576213
-0.439772
0.447824
0.0661155
-0.074167
-0.375151
0.376999
0.0818986
-0.0837469
-0.256911
0.223411
0.0727482
-0.0392482
-0.0686617
0.0589352
0.00972651
-0.0520557
0.0587456
-0.374552
0.367862
-0.0578535
0.054022
-0.453836
0.457668
-0.048659
0.0443148
-0.527752
0.532097
-0.0400855
0.0362973
-0.621114
0.624902
-0.0320665
0.0279876
-0.734889
0.738968
-0.0235062
0.0195055
-0.874061
0.878062
-0.0153602
0.0118365
-1.04341
1.04694
-0.00826116
0.00519032
-1.24867
1.25174
-0.00194913
-0.00105596
-1.49695
1.49996
0.00403901
-0.00721758
-1.49742
1.5006
0.0101966
-0.0136442
-1.25009
1.25354
0.017034
-0.0210224
-1.04572
1.0497
0.0248856
-0.0292329
-0.877305
0.881653
0.0332042
-0.0373284
-0.739299
0.743424
0.0410268
-0.0451652
-0.62633
0.630468
0.0494326
-0.0547208
-0.534926
0.540214
0.0584697
-0.0592583
-0.45791
0.458698
0.0524365
-0.0320506
-0.336379
0.315993
0.00979028
-0.0684906
0.0587003
-0.05318
0.0491348
0.00404517
-0.0331386
0.0436186
-0.3584
0.34792
-0.0473245
0.0467292
-0.45953
0.460126
-0.0437442
0.0404667
-0.536045
0.539323
-0.0367466
0.0334017
-0.628469
0.631814
-0.029825
0.0266627
-0.742286
0.745449
-0.0232996
0.0201195
-0.881608
0.884788
-0.0165081
0.0131167
-1.05043
1.05382
-0.00936811
0.00591844
-1.25505
1.2585
-0.00208219
-0.00157372
-1.50334
1.507
0.00519712
-0.00893862
-1.50413
1.50787
0.0122583
-0.0158257
-1.25714
1.26071
0.0190261
-0.0224138
-1.05347
1.05686
0.0253976
-0.0285685
-0.885254
0.888425
0.0315753
-0.0349975
-0.746906
0.750328
0.0382115
-0.0417964
-0.634475
0.63806
0.044957
-0.0478106
-0.544435
0.547289
0.0482681
-0.0443693
-0.456856
0.452957
0.0336582
-0.0162789
-0.296606
0.279227
0.00412293
-0.0528754
0.0487525
-0.0460178
0.0434979
0.00251983
-0.0228894
0.033237
-0.337296
0.326949
-0.0390005
0.039973
-0.459847
0.458874
-0.0387432
0.036433
-0.542003
0.544313
-0.033779
0.0312034
-0.63482
0.637395
-0.0281815
0.0253086
-0.748525
0.751398
-0.0220588
0.0190486
-0.887803
0.890813
-0.0157152
0.0125909
-1.057
1.06013
-0.00902836
0.00560795
-1.26193
1.26535
-0.0016674
-0.00216034
-1.51077
1.5146
0.00594574
-0.00975696
-1.51168
1.51549
0.0130033
-0.016327
-1.26417
1.26749
0.0192017
-0.0222437
-1.06002
1.06306
0.0249959
-0.0279879
-0.891557
0.894549
0.0306484
-0.0334572
-0.753503
0.756312
0.0358527
-0.0383247
-0.641052
0.643524
0.0404798
-0.0415055
-0.549094
0.55012
0.0403198
-0.0342449
-0.447742
0.441667
0.0235567
-0.010312
-0.264022
0.250777
0.00261562
-0.0455484
0.0429328
-0.0414054
0.0396255
0.00177994
-0.016815
0.0260663
-0.317103
0.307852
-0.0326511
0.034768
-0.457305
0.455188
-0.0343281
0.0326312
-0.546327
0.548024
-0.0304127
0.0282909
-0.639707
0.641829
-0.0258479
0.0234502
-0.754028
0.756426
-0.0206019
0.0178271
-0.89369
0.896465
-0.0146161
0.0115644
-1.06318
1.06623
-0.00808654
0.00476179
-1.26868
1.27201
-0.000912526
-0.00284484
-1.51838
1.52214
0.00654667
-0.0102328
-1.51923
1.52292
0.0133371
-0.0165127
-1.27074
1.27391
0.0192476
-0.0220864
-1.06608
1.06892
0.0245283
-0.0270418
-0.897331
0.899844
0.0291643
-0.0313331
-0.758745
0.760914
0.0332254
-0.0352096
-0.645704
0.647688
0.036681
-0.0368428
-0.550661
0.550823
0.0343985
-0.027358
-0.43502
0.42798
0.0176483
-0.00746012
-0.239206
0.229017
0.001897
-0.0407339
0.0388369
-0.0380931
0.036757
0.00133608
-0.0128325
0.0207838
-0.299254
0.291303
-0.0275203
0.0304248
-0.452645
0.44974
-0.0306148
0.029478
-0.549468
0.550605
-0.0274672
0.0255308
-0.643887
0.645823
-0.0233082
0.0211555
-0.758676
0.760829
-0.0186313
0.0161418
-0.899041
0.901531
-0.0131928
0.0103107
-1.06915
1.07204
-0.00695402
0.00371844
-1.27526
1.2785
2.79366e-05
-0.00366203
-1.52581
1.52945
0.00722767
-0.0107683
-1.52651
1.53005
0.0137278
-0.0167069
-1.27701
1.27999
0.0191914
-0.0216723
-1.07164
1.07412
0.0237454
-0.0258506
-0.902131
0.904236
0.0276559
-0.0295301
-0.762915
0.764789
0.031176
-0.0329042
-0.649524
0.651252
0.0337123
-0.0331336
-0.550617
0.550038
0.0297608
-0.0223999
-0.420721
0.41336
0.0138591
-0.00578426
-0.219986
0.211911
0.00147861
-0.0371749
0.0356963
-0.0355907
0.0345635
0.00102716
-0.010014
0.0167321
-0.283992
0.277274
-0.0232031
0.0265585
-0.446589
0.443233
-0.0273195
0.0266069
-0.55152
0.552232
-0.0248262
0.0230261
-0.647729
0.649529
-0.0209419
0.0189141
-0.762917
0.764944
-0.0165296
0.0141907
-0.90388
0.906218
-0.0114397
0.00874076
-1.07476
1.07746
-0.00556517
0.0024685
-1.28162
1.28472
0.00114146
-0.00464554
-1.53299
1.5365
0.00806413
-0.01142
-1.53349
1.53684
0.0141732
-0.0168806
-1.28284
1.28555
0.0190892
-0.0212639
-1.07651
1.07868
0.0230891
-0.0249546
-0.90622
0.908086
0.0265517
-0.0282036
-0.766544
0.768196
0.0296433
-0.0310342
-0.652835
0.654226
0.0313378
-0.0300249
-0.549107
0.547794
0.0260244
-0.0187313
-0.406007
0.398714
0.0112721
-0.00467451
-0.204644
0.198047
0.00120048
-0.0343724
0.0331719
-0.0336623
0.0328645
0.000797811
-0.00792127
0.0135602
-0.271124
0.265485
-0.0195424
0.0230916
-0.439769
0.43622
-0.0243261
0.0238572
-0.552852
0.553321
-0.0223431
0.02065
-0.651323
0.653016
-0.0186592
0.0167169
-0.766926
0.768868
-0.0144267
0.0121765
-0.908451
0.910701
-0.00952765
0.00694007
-1.08003
1.08262
-0.00391056
0.000954311
-1.2877
1.29066
0.00249277
-0.00583462
-1.5399
1.54324
0.00907265
-0.0122082
-1.54007
1.54321
0.0147421
-0.0172011
-1.28813
1.29059
0.0191884
-0.0211293
-1.08082
1.08276
0.0227489
-0.024402
-0.909848
0.911501
0.0258156
-0.0272746
-0.769743
0.771202
0.0285178
-0.0295259
-0.655412
0.65642
0.0294549
-0.0274677
-0.546146
0.544159
0.0230565
-0.0160192
-0.391543
0.384506
0.00945943
-0.00390897
-0.192022
0.186472
0.00100848
-0.0320792
0.0310707
-0.0321645
0.0315444
0.000620035
-0.00630515
0.0110207
-0.260334
0.255619
-0.0164071
0.0199522
-0.43267
0.429125
-0.0215057
0.0212591
-0.553711
0.553958
-0.0199738
0.0183396
-0.654725
0.656359
-0.0164023
0.0145071
-0.77078
0.772676
-0.0122733
0.0100799
-0.91285
0.915044
-0.00749905
0.00498079
-1.0851
1.08762
-0.0020405
-0.000804456
-1.2935
1.29635
0.00410605
-0.00728116
-1.54646
1.54964
0.0103278
-0.0132469
-1.5462
1.54912
0.0155842
-0.0178297
-1.29294
1.29519
0.0196164
-0.0213339
-1.08469
1.08641
0.0227578
-0.0242136
-0.913054
0.91451
0.0254612
-0.0267443
-0.772566
0.773849
0.0278399
-0.0284235
-0.657217
0.657801
0.0279782
-0.0254196
-0.541898
0.539339
0.0207515
-0.0140341
-0.377637
0.370919
0.00818201
-0.00337706
-0.181331
0.176526
0.000875831
-0.0301381
0.0292622
-0.0310043
0.0305285
0.000475795
-0.00500239
0.00892038
-0.251327
0.247409
-0.0136655
0.0170568
-0.425662
0.422271
-0.0187884
0.0187281
-0.554149
0.55421
-0.0176344
0.0160328
-0.65804
0.659641
-0.0141156
0.0122329
-0.774555
0.776438
-0.0100142
0.0078411
-0.917143
0.919316
-0.00529359
0.00281958
-1.09003
1.0925
5.04218e-05
-0.00282795
-1.29909
1.30187
0.00601455
-0.00904281
-1.5527
1.55573
0.0119151
-0.0146349
-1.55191
1.55463
0.0167863
-0.0188232
-1.29733
1.29937
0.0204116
-0.0219103
-1.08814
1.08964
0.0231488
-0.0244237
-0.915868
0.917143
0.0255223
-0.0266455
-0.775043
0.776167
0.0275447
-0.0277546
-0.658195
0.658405
0.0268911
-0.0238477
-0.536547
0.533504
0.0190184
-0.0126101
-0.364373
0.357965
0.00729315
-0.00301373
-0.172015
0.167736
0.000786809
-0.0284396
0.0276527
-0.0301207
0.0297672
0.000353541
-0.00390887
0.00712493
-0.243865
0.240649
-0.0112162
0.0143433
-0.419024
0.415897
-0.0161258
0.0162137
-0.554242
0.554154
-0.0151989
0.013666
-0.661283
0.662815
-0.0117407
0.00983735
-0.778317
0.78022
-0.0075951
0.00540658
-0.9214
0.923589
-0.00285441
0.000391293
-1.09488
1.09734
0.00245866
-0.00518135
-1.30455
1.30728
0.00827935
-0.0111882
-1.55866
1.56157
0.0139085
-0.0164425
-1.55722
1.55975
0.0184137
-0.0202456
-1.3013
1.30313
0.0216379
-0.0229207
-1.09119
1.09247
0.0239792
-0.0250806
-0.918318
0.919419
0.026036
-0.0269939
-0.777194
0.778152
0.0276299
-0.0275475
-0.658481
0.658399
0.0262343
-0.022746
-0.530247
0.526759
0.0177944
-0.0116367
-0.351706
0.345549
0.00670245
-0.00277902
-0.163663
0.159739
0.000731415
-0.0269021
0.0261707
-0.0294747
0.0292304
0.000244262
-0.00294828
0.00552959
-0.23777
0.235189
-0.00896677
0.0117461
-0.412961
0.410182
-0.0134647
0.0136279
-0.55408
0.553917
-0.0126503
0.0111563
-0.664411
0.665905
-0.00919933
0.00724568
-0.782127
0.784081
-0.00494366
0.00270535
-0.925691
0.92793
-0.000113054
-0.0023846
-1.09972
1.10222
0.00524269
-0.00794829
-1.30992
1.31262
0.0109912
-0.0138061
-1.56439
1.5672
0.0163929
-0.0187536
-1.56216
1.56452
0.0205526
-0.0221849
-1.30485
1.30648
0.0233807
-0.0244422
-1.09383
1.0949
0.0253157
-0.0262395
-0.920413
0.921337
0.0270484
-0.0278418
-0.778986
0.779779
0.0281896
-0.0278043
-0.658171
0.657786
0.0260279
-0.0221082
-0.523079
0.519159
0.0170327
-0.0110394
-0.339505
0.333512
0.00635161
-0.00264687
-0.155952
0.152247
0.000702886
-0.025462
0.0247591
-0.0290443
0.0289039
0.00014035
-0.00205705
0.00404173
-0.232925
0.23094
-0.0068199
0.009181
-0.407635
0.405274
-0.0107265
0.010885
-0.553818
0.55366
-0.0099098
0.00841552
-0.667499
0.668993
-0.00639891
0.00436389
-0.786043
0.788078
-0.0019641
-0.000357013
-0.930084
0.932405
0.00304215
-0.0056009
-1.10463
1.10719
0.00850684
-0.0112285
-1.31526
1.31798
0.0142478
-0.0169917
-1.56993
1.57267
0.0194602
-0.0216569
-1.56675
1.56894
0.0232886
-0.0247223
-1.308
1.30943
0.0257153
-0.0265442
-1.09607
1.0969
0.0272204
-0.0279491
-0.922139
0.922867
0.0286015
-0.0292511
-0.780421
0.781071
0.0292796
-0.0284921
-0.657204
0.656417
0.0262552
-0.0219082
-0.515072
0.510725
0.0166807
-0.0107549
-0.327591
0.321665
0.00619448
-0.00259668
-0.148623
0.145025
0.000695724
-0.0240686
0.0233728
-0.0288221
0.0287866
3.54786e-05
-0.00118821
0.00259068
-0.229264
0.227861
-0.00469555
0.00657358
-0.40318
0.401302
-0.00784064
0.00791125
-0.553621
0.553551
-0.00689121
0.00535857
-0.670626
0.672159
-0.00324282
0.00109226
-0.790125
0.792276
0.00144611
-0.00389502
-0.93465
0.937099
0.00670643
-0.00936869
-1.10967
1.11233
0.012366
-0.0151404
-1.32064
1.32341
0.0181705
-0.0208676
-1.57534
1.57804
0.0232333
-0.0252723
-1.571
1.57304
0.0267368
-0.0279688
-1.31073
1.31197
0.028755
-0.0293482
-1.09789
1.09848
0.0298221
-0.0303458
-0.923471
0.923994
0.0308269
-0.031252
-0.781489
0.781914
0.0309837
-0.0297212
-0.655436
0.654174
0.026982
-0.0221704
-0.50621
0.501399
0.0167288
-0.0107569
-0.315762
0.30979
0.00620995
-0.00261905
-0.141459
0.137868
0.000707604
-0.0226805
0.0219729
-0.0288115
0.0288831
-7.16278e-05
-0.000304455
0.00111558
-0.226767
0.225956
-0.00251499
0.00384191
-0.399723
0.398396
-0.00472636
0.00462437
-0.553661
0.553763
-0.00350144
0.00187769
-0.673883
0.675507
0.000373956
-0.00268195
-0.794443
0.796751
0.00540645
-0.00802647
-0.939467
0.942087
0.0110166
-0.0138271
-1.11493
1.11774
0.0169612
-0.0198259
-1.32614
1.329
0.0229017
-0.0255758
-1.58066
1.58334
0.0278519
-0.0297366
-1.57494
1.57683
0.0310299
-0.0320522
-1.31304
1.31407
0.0326281
-0.0329796
-1.09926
1.09961
0.0332399
-0.0335441
-0.924382
0.924686
0.0338268
-0.0339451
-0.782016
0.782134
0.0333619
-0.0315458
-0.652726
0.650909
0.0282499
-0.0229112
-0.49641
0.491072
0.01717
-0.0110278
-0.303785
0.297643
0.00638347
-0.00270692
-0.134264
0.130587
0.000736467
-0.0212606
0.0205241
-0.0290276
0.0292207
-0.000193102
0.000624492
-0.000439681
-0.225458
0.225273
-0.000202382
0.000902127
-0.39739
0.39669
-0.00129915
0.000940932
-0.554119
0.554478
0.000343363
-0.00213752
-0.677385
0.679179
0.00458951
-0.00710651
-0.799084
0.801601
0.0100716
-0.0129109
-0.944628
0.947467
0.0161341
-0.0191419
-1.12049
1.1235
0.0224632
-0.0254585
-1.33182
1.33482
0.028615
-0.0312871
-1.58594
1.58861
0.0334815
-0.0352081
-1.57856
1.58029
0.0363261
-0.0371294
-1.3149
1.31571
0.037485
-0.0375793
-1.10015
1.10024
0.0376089
-0.0376789
-0.924836
0.924906
0.0377653
-0.0374885
-0.781895
0.781618
0.0365047
-0.034053
-0.64892
0.646468
0.0301185
-0.0241551
-0.485528
0.479564
0.0180033
-0.0115546
-0.291406
0.284957
0.0067027
-0.00285344
-0.126855
0.123006
0.000780013
-0.019776
0.018996
-0.0294982
0.0298415
-0.000343321
0.00168468
-0.00214015
-0.225432
0.225887
0.00234788
-0.00238204
-0.396322
0.396356
0.00261134
-0.00333996
-0.55522
0.555949
0.00486561
-0.00686817
-0.681276
0.683279
0.00957219
-0.0123513
-0.804138
0.806917
0.0156199
-0.0187376
-0.950232
0.95335
0.0222576
-0.0255171
-1.12646
1.12972
0.0290789
-0.0322457
-1.33778
1.34094
0.0355165
-0.0382043
-1.59122
1.59391
0.0403196
-0.0418766
-1.58185
1.58341
0.0427971
-0.0433714
-1.31628
1.31685
0.0434976
-0.0433115
-1.1005
1.10031
0.0430864
-0.0429063
-0.924778
0.924598
0.04278
-0.0420117
-0.780952
0.780184
0.0405376
-0.0373372
-0.643859
0.640658
0.0326499
-0.0259281
-0.473354
0.466633
0.0192303
-0.0123273
-0.278347
0.271444
0.00715708
-0.00305241
-0.119061
0.114956
0.00083614
-0.0181984
0.0173623
-0.0302557
0.0307797
-0.000523946
0.00298879
-0.00422117
-0.226752
0.227984
0.00530686
-0.00614864
-0.396732
0.397573
0.00710574
-0.00830943
-0.557189
0.558393
0.0101731
-0.0124654
-0.685664
0.687956
0.0155111
-0.0186294
-0.809721
0.812839
0.0222811
-0.0257465
-0.9564
0.959865
0.0296339
-0.0332039
-1.13294
1.13651
0.0370616
-0.0404387
-1.34408
1.34746
0.0438503
-0.0465612
-1.59653
1.59924
0.0485878
-0.0499579
-1.58478
1.58615
0.0506555
-0.0509872
-1.31713
1.31746
0.0508624
-0.0503722
-1.10027
1.09978
0.0498756
-0.0494306
-0.924157
0.923712
0.0489659
-0.0477292
-0.779075
0.777838
0.0455998
-0.0415007
-0.637298
0.633199
0.0359083
-0.0282534
-0.459606
0.451951
0.0208481
-0.0133309
-0.264309
0.256791
0.00773175
-0.00329495
-0.110719
0.106283
0.00090171
-0.0165042
0.0156025
-0.0313747
0.0321234
-0.000748666
0.00450997
-0.00663557
-0.22963
0.231756
0.00880586
-0.0105654
-0.398831
0.400591
0.0123593
-0.0141571
-0.560282
0.562079
0.0164947
-0.0191801
-0.690716
0.693401
0.0226809
-0.0262241
-0.815988
0.819531
0.0303509
-0.0342438
-0.963274
0.967167
0.0385791
-0.0425227
-1.14005
1.14399
0.0467297
-0.0503482
-1.3508
1.35442
0.0539131
-0.0566369
-1.60187
1.60459
0.0585484
-0.0596931
-1.58731
1.58845
0.0601294
-0.0601803
-1.31739
1.31744
0.0597827
-0.0589661
-1.0994
1.09859
0.0581737
-0.0574381
-0.922926
0.922191
0.0565545
-0.0547716
-0.776303
0.77452
0.0518425
-0.0466412
-0.628927
0.623726
0.0399411
-0.0311325
-0.443915
0.435107
0.0228334
-0.0145338
-0.248966
0.240666
0.00840018
-0.00356625
-0.101681
0.0968474
0.000971703
-0.0146764
0.0137047
-0.0329376
0.0339807
-0.00104304
0.00642441
-0.00961925
-0.234308
0.237503
0.0130627
-0.0158916
-0.402887
0.405716
0.0186646
-0.0211847
-0.564777
0.567297
0.0241439
-0.0273471
-0.696652
0.699855
0.031435
-0.0355176
-0.823111
0.827194
0.0402294
-0.0446388
-0.971017
0.975427
0.0495053
-0.0538808
-1.14792
1.15229
0.0584767
-0.0623479
-1.358
1.36187
0.0660495
-0.0687465
-1.6072
1.6099
0.0704895
-0.0713487
-1.58935
1.59021
0.071464
-0.0711789
-1.31694
1.31666
0.070489
-0.0693056
-1.09783
1.09664
0.0681824
-0.0671564
-0.921049
0.920023
0.0657306
-0.0633021
-0.772461
0.770032
0.0593864
-0.0528154
-0.618329
0.611758
0.0447488
-0.0345202
-0.425829
0.4156
0.0251219
-0.015874
-0.231984
0.222736
0.0091165
-0.00384278
-0.0918272
0.0865535
0.00103864
-0.0127097
0.0116711
-0.0350741
0.0365222
-0.00144808
0.00891929
-0.013483
-0.241112
0.245676
0.018427
-0.022497
-0.40927
0.41334
0.026412
-0.0298069
-0.571007
0.574402
0.033567
-0.037451
-0.703743
0.707627
0.042295
-0.0470501
-0.831315
0.83607
0.0524702
-0.057488
-0.97981
0.984828
0.0629592
-0.067803
-1.15665
1.16149
0.0727908
-0.0768837
-1.36567
1.36977
0.0806541
-0.0832364
-1.61243
1.61502
0.0847148
-0.0851908
-1.59077
1.59125
0.0849254
-0.0842267
-1.31569
1.31499
0.0831849
-0.0816225
-1.09546
1.09389
0.080187
-0.0787259
-0.918485
0.917023
0.0767876
-0.0734595
-0.767285
0.763957
0.0683079
-0.0600233
-0.604945
0.59666
0.0502634
-0.0383012
-0.404804
0.392842
0.0275887
-0.0172473
-0.213044
0.202702
0.00980939
-0.00409047
-0.081089
0.07537
0.00109234
-0.010615
0.00952269
-0.0379844
0.0400079
-0.00202348
0.0123914
-0.0186851
-0.250567
0.256861
0.0254303
-0.0309487
-0.418474
0.423992
0.0362174
-0.0406852
-0.579361
0.583828
0.0454551
-0.0502243
-0.712334
0.717103
0.056038
-0.0616175
-0.840859
0.846438
0.0678671
-0.0735633
-0.98983
0.995527
0.0796682
-0.08496
-1.16629
1.17158
0.0902679
-0.0944771
-1.37373
1.37794
0.0981658
-0.100474
-1.61735
1.61966
0.101532
-0.101481
-1.59133
1.59128
0.100747
-0.0995194
-1.31352
1.31229
0.0980825
-0.0961271
-1.09224
1.09028
0.0943375
-0.0923283
-0.914898
0.912889
0.0898372
-0.0853457
-0.760234
0.755742
0.078602
-0.0681453
-0.58805
0.577593
0.0562901
-0.0422463
-0.380222
0.366178
0.0300205
-0.0184924
-0.191884
0.180355
0.0103765
-0.00426351
-0.0694831
0.0633701
0.00111985
-0.0084246
0.00730475
-0.0419942
0.0449072
-0.002913
0.0174283
-0.0259885
-0.263408
0.271968
0.0349634
-0.0422286
-0.431169
0.438434
0.0491255
-0.0548787
-0.590332
0.596085
0.060986
-0.0669396
-0.722852
0.728806
0.0739219
-0.0804348
-0.852026
0.858539
0.0875689
-0.0939277
-1.00119
1.00755
0.100578
-0.106179
-1.17674
1.18234
0.1116
-0.115702
-1.38189
1.38599
0.119036
-0.120812
-1.62158
1.62335
0.121217
-0.120439
-1.59074
1.58996
0.119085
-0.117239
-1.31021
1.30837
0.115366
-0.112987
-1.08809
1.08571
0.110805
-0.108161
-0.910042
0.907398
0.104923
-0.0988676
-0.750707
0.744651
0.0900551
-0.07686
-0.566694
0.553499
0.0624476
-0.0459755
-0.351424
0.334952
0.032096
-0.0193893
-0.168378
0.155671
0.0106883
-0.00430832
-0.0571508
0.0507708
0.00110713
-0.00619677
0.00508963
-0.0476857
0.0521034
-0.00441777
0.0252178
-0.0368597
-0.2808
0.292442
0.0487385
-0.0583334
-0.448399
0.457994
0.0672676
-0.0745329
-0.604518
0.611784
0.0822253
-0.0897134
-0.735681
0.743169
0.0979278
-0.105303
-0.86502
0.872396
0.113157
-0.119955
-1.01377
1.02057
0.12683
-0.132397
-1.18764
1.19321
0.137519
-0.14112
-1.38963
1.39323
0.143666
-0.144528
-1.62454
1.6254
0.143962
-0.142216
-1.58856
1.58681
0.140077
-0.137512
-1.30558
1.30301
0.13512
-0.132293
-1.08288
1.08005
0.129577
-0.12631
-0.903795
0.900528
0.121931
-0.113718
-0.737816
0.729603
0.102173
-0.0855562
-0.53968
0.523063
0.0681112
-0.0489479
-0.317816
0.298653
0.033404
-0.0196853
-0.142656
0.128938
0.0106081
-0.00417256
-0.0443982
0.0379626
0.00104047
-0.00401585
0.00297538
-0.0561489
0.0637146
-0.00756567
0.0388896
-0.0550304
-0.304917
0.321058
0.0709792
-0.0837888
-0.471801
0.484611
0.0949081
-0.103592
-0.622371
0.631055
0.112833
-0.121619
-0.751198
0.759985
0.130788
-0.138599
-0.879537
0.887348
0.146572
-0.153194
-1.02695
1.03357
0.159603
-0.164489
-1.19815
1.20304
0.168634
-0.171119
-1.39604
1.39853
0.172304
-0.171803
-1.62541
1.62491
0.169907
-0.166898
-1.58429
1.58128
0.163761
-0.160315
-1.29939
1.29595
0.157316
-0.154013
-1.07648
1.07318
0.150762
-0.146538
-0.895829
0.891604
0.140446
-0.129191
-0.720218
0.708963
0.114011
-0.0931986
-0.505513
0.4847
0.072429
-0.0505788
-0.279057
0.257207
0.0335983
-0.0192382
-0.115253
0.100893
0.0100872
-0.00384984
-0.0317156
0.0254782
0.000918837
-0.0019886
0.00106976
-0.0707496
0.0749449
-0.00419528
0.0297435
-0.0437773
-0.339773
0.353807
0.0579706
-0.0697338
-0.502806
0.514569
0.0803149
-0.0902398
-0.64353
0.653455
0.101392
-0.111632
-0.768258
0.778499
0.123032
-0.133218
-0.894249
0.904434
0.144127
-0.153887
-1.03926
1.04902
0.164161
-0.17305
-1.20686
1.21575
0.182007
-0.1893
-1.39989
1.40718
0.196028
-0.200739
-1.62327
1.62798
0.20342
-0.204681
-1.5773
1.57856
0.204752
-0.204311
-1.29133
1.29088
0.204044
-0.203223
-1.06861
1.06779
0.201711
-0.197346
-0.885232
0.880867
0.188492
-0.170969
-0.695925
0.678402
0.147279
-0.116288
-0.462717
0.431726
0.0872353
-0.0583918
-0.235366
0.206522
0.0373942
-0.020642
-0.0872501
0.0704979
0.0104515
-0.00383362
-0.0197388
0.0131209
0.00087273
-0.000219401
-0.000653329
-0.0824081
0.0803997
0.00200845
0.00768511
-0.0170099
-0.370644
0.379968
0.0278547
-0.0362497
-0.531069
0.539464
0.044771
-0.0531572
-0.66599
0.674376
0.0634071
-0.0729845
-0.78833
0.797908
0.0832312
-0.0926129
-0.914061
0.923443
0.102628
-0.111248
-1.05851
1.06713
0.120515
-0.128173
-1.22447
1.23213
0.135854
-0.141853
-1.41421
1.42021
0.146896
-0.150144
-1.63198
1.63523
0.15143
-0.151339
-1.57925
1.57916
0.150042
-0.148134
-1.28952
1.28761
0.146487
-0.144649
-1.0643
1.06246
0.14214
-0.136431
-0.871923
0.866214
0.12672
-0.110385
-0.656782
0.640447
0.0910814
-0.0682196
-0.398961
0.376099
0.0488818
-0.031554
-0.178424
0.161096
0.0197742
-0.0108128
-0.0548801
0.0459187
0.00546917
-0.00198473
-0.00682588
0.00334144
0.000387697
0.00161495
-0.00200264
-0.0838656
0.0808575
0.00300809
-0.00170305
-0.0037216
-0.391579
0.397004
0.011131
-0.0172546
-0.552061
0.558185
0.0235813
-0.0309284
-0.685008
0.692355
0.0398208
-0.0481425
-0.806537
0.814859
0.0572606
-0.0654455
-0.932056
0.940241
0.0739335
-0.0816059
-1.07556
1.08324
0.0896333
-0.0963488
-1.23933
1.24605
0.102615
-0.107294
-1.42553
1.43021
0.111194
-0.11318
-1.63779
1.63978
0.113254
-0.112007
-1.57851
1.57726
0.109827
-0.10715
-1.28527
1.28259
0.104334
-0.101393
-1.05794
1.055
0.0979697
-0.0920029
-0.856488
0.850521
0.0830353
-0.0692569
-0.621174
0.607395
0.0547587
-0.0392688
-0.351654
0.336164
0.0276343
-0.0179988
-0.143667
0.134032
0.0116185
-0.00671087
-0.0371032
0.0321956
0.00359015
-0.00128654
3.60862e-05
-0.00233969
0.000282133
0.00262564
-0.00290778
-0.0825261
0.0796681
0.00285794
-0.00551457
0.00291898
-0.40558
0.408176
0.0018717
-0.00653192
-0.567603
0.572264
0.0118819
-0.0180385
-0.7007
0.706857
0.0256191
-0.0327286
-0.822491
0.829601
0.0405028
-0.0475041
-0.947869
0.95487
0.0551409
-0.0616198
-1.09045
1.09692
0.0685728
-0.0739034
-1.25231
1.25764
0.0791539
-0.0829185
-1.43461
1.43838
0.0856446
-0.0863575
-1.64127
1.64198
0.0856037
-0.0835685
-1.57542
1.57339
0.0806964
-0.0768939
-1.27943
1.27563
0.0733161
-0.0693882
-1.04988
1.04596
0.0650634
-0.0594322
-0.840344
0.834713
0.0516137
-0.041179
-0.591119
0.580684
0.0312981
-0.0220075
-0.319698
0.310408
0.0156802
-0.0107385
-0.123699
0.118757
0.00742485
-0.00469016
-0.0267951
0.0240604
0.00264466
-0.00110192
0.00479541
-0.00633815
0.000283854
0.00344286
-0.00372672
-0.0808919
0.0783319
0.00255998
-0.00680145
0.00589996
-0.41485
0.415752
-0.00241219
-0.000893258
-0.580087
0.583392
0.00524889
-0.0108336
-0.713824
0.719409
0.0171773
-0.0233778
-0.835961
0.842162
0.0300673
-0.0360998
-0.961382
0.967414
0.042589
-0.0482697
-1.10323
1.10891
0.0540673
-0.0588037
-1.26277
1.26751
0.0631274
-0.0660633
-1.4417
1.44463
0.0678922
-0.0677786
-1.64242
1.64231
0.0662461
-0.0632417
-1.57054
1.56754
0.0597136
-0.055336
-1.27153
1.26715
0.0510469
-0.0461083
-1.04035
1.03541
0.0412741
-0.0356745
-0.824834
0.819235
0.0293334
-0.0216704
-0.567973
0.56031
0.0154638
-0.0105383
-0.29983
0.294905
0.00768282
-0.00576858
-0.112903
0.110989
0.00447815
-0.00320985
-0.0207414
0.0194731
0.00192758
-0.00090447
0.0082448
-0.00926791
0.000268913
0.00422429
-0.0044932
-0.0793157
0.0770916
0.00222414
-0.00682938
0.00651128
-0.421089
0.421407
-0.00446606
0.0018217
-0.589591
0.592236
0.00228812
-0.00703928
-0.724891
0.729642
0.012448
-0.0177908
-0.847527
0.85287
0.0236828
-0.0290082
-0.973057
0.978382
0.0348461
-0.0397263
-1.11426
1.11914
0.0447982
-0.0488939
-1.27188
1.27598
0.052477
-0.0547493
-1.4472
1.44947
0.0558353
-0.0554176
-1.64197
1.64155
0.0532077
-0.0497138
-1.56393
1.56043
0.0456089
-0.0405953
-1.26233
1.25731
0.0359565
-0.0302649
-1.02938
1.02368
0.0249729
-0.0195731
-0.809978
0.804578
0.0141946
-0.00849048
-0.55072
0.545016
0.00475581
-0.0025939
-0.288252
0.28609
0.00203133
-0.00191429
-0.107764
0.107647
0.00182932
-0.0016131
-0.0176835
0.0174673
0.00112271
-0.000619968
0.0105397
-0.0110425
0.000216137
0.00489188
-0.00510802
-0.0780301
0.0762595
0.00177059
-0.00607526
0.0061657
-0.425566
0.425476
-0.00457783
0.00264274
-0.597776
0.599711
0.00110819
-0.00538448
-0.734365
0.738641
0.0104535
-0.0150025
-0.85777
0.862319
0.0201128
-0.0247614
-0.983635
0.988284
0.0301884
-0.0345101
-1.124
1.12832
0.0388723
-0.042564
-1.27981
1.2835
0.0460234
-0.0478305
-1.45166
1.45347
0.0485525
-0.0476052
-1.64059
1.63964
0.0452714
-0.0410914
-1.55655
1.55237
0.0367731
-0.0314985
-1.25191
1.24664
0.0263227
-0.0204005
-1.01732
1.0114
0.0147589
-0.00908206
-0.795793
0.790116
0.00459298
-0.000187465
-0.53723
0.532824
-0.00219554
0.00272586
-0.281706
0.281175
-0.00220986
0.00137036
-0.106404
0.107244
-0.000605606
-2.4601e-05
-0.0169343
0.0175645
0.000233633
-0.000257487
0.0116572
-0.0116333
0.000131068
0.00536421
-0.00549527
-0.0772185
0.0757983
0.00142017
-0.00509093
0.00536898
-0.428939
0.428661
-0.00403439
0.0022358
-0.604778
0.606576
0.00130652
-0.00507526
-0.742782
0.746551
0.00935617
-0.0136778
-0.866771
0.871093
0.0183216
-0.0230168
-0.992693
0.997388
0.027587
-0.0315954
-1.13269
1.1367
0.0359217
-0.039185
-1.287
1.29026
0.0419204
-0.0438803
-1.45508
1.45704
0.0444257
-0.0433591
-1.63862
1.63756
0.0407269
-0.0366019
-1.54823
1.5441
0.0321043
-0.0265888
-1.24084
1.23533
0.0212663
-0.0150883
-1.00483
0.99865
0.0093204
-0.00366438
-0.782071
0.776415
-0.000662431
0.00420444
-0.526085
0.522543
-0.00597319
0.0060047
-0.278139
0.278108
-0.00503601
0.00364891
-0.107013
0.1084
-0.00243154
0.00125658
-0.0178564
0.0190314
-0.000582431
0.000116816
0.0116391
-0.0111735
2.49254e-05
0.00558951
-0.00561443
-0.0769186
0.0757164
0.00120219
-0.00387364
0.00396456
-0.43182
0.431729
-0.00296071
0.00122571
-0.611083
0.612818
0.00213098
-0.00570576
-0.750486
0.754061
0.00975128
-0.0136023
-0.875156
0.879007
0.0182847
-0.0220975
-1.00145
1.00527
0.0265316
-0.0302466
-1.14081
1.14452
0.034314
-0.0376205
-1.29344
1.29674
0.0404444
-0.04196
-1.45867
1.46018
0.0425537
-0.0415583
-1.6363
1.6353
0.0391989
-0.0349643
-1.53972
1.53548
0.0305191
-0.0249862
-1.22977
1.22424
0.0196783
-0.0134177
-0.991919
0.985658
0.00774035
-0.00183135
-0.768835
0.762926
-0.00228794
0.00554106
-0.516392
0.513139
-0.00729541
0.00724933
-0.275622
0.275668
-0.00629907
0.00484645
-0.108535
0.109988
-0.00351541
0.00208366
-0.0198055
0.0212372
-0.00117148
0.000406176
0.0107427
-0.0099774
-7.18399e-05
0.00556969
-0.00549785
-0.0768892
0.0760291
0.000860051
-0.00275023
0.0024066
-0.43469
0.435034
-0.00158921
-0.00012469
-0.616585
0.618299
0.00321093
-0.00660921
-0.757585
0.760983
0.0104303
-0.0143575
-0.882675
0.886602
0.0183473
-0.0222549
-1.00925
1.01315
0.0265661
-0.0299807
-1.14862
1.15204
0.0340244
-0.0371599
-1.29978
1.30292
0.0398802
-0.0417556
-1.46204
1.46391
0.0426094
-0.0416409
-1.63425
1.63328
0.0392446
-0.035437
-1.53132
1.52752
0.0312816
-0.0258523
-1.21849
1.21306
0.0205732
-0.0146511
-0.979127
0.973205
0.0087101
-0.00302067
-0.755624
0.749935
-0.00130727
0.00457322
-0.507345
0.504079
-0.00631188
0.00683416
-0.273279
0.272757
-0.00631565
0.00523352
-0.110213
0.111295
-0.00400097
0.0025825
-0.0221602
0.0235786
-0.00150869
0.000605535
0.00929994
-0.00839679
-0.000142431
0.00535355
-0.00521112
-0.0772739
0.0765947
0.000679211
-0.0017876
0.00152087
-0.437715
0.437982
-0.000263736
-0.00153875
-0.621956
0.623758
0.00467325
-0.00787749
-0.764099
0.767303
0.0114991
-0.0149761
-0.890152
0.893629
0.0190401
-0.0225765
-1.01703
1.02056
0.0267706
-0.0305574
-1.15587
1.15966
0.034146
-0.0375193
-1.30604
1.30942
0.0405423
-0.042374
-1.46561
1.46744
0.0434272
-0.0430567
-1.63245
1.63208
0.0409053
-0.0375213
-1.5235
1.52012
0.0334168
-0.0283119
-1.20763
1.20252
0.0233621
-0.0175299
-0.966762
0.960929
0.0119214
-0.00621825
-0.742848
0.737145
0.0016328
0.00202778
-0.498149
0.494488
-0.00405531
0.00501881
-0.270282
0.269319
-0.00511153
0.00451408
-0.1112
0.111798
-0.00363267
0.00249313
-0.0243965
0.0255361
-0.00152926
0.000667516
0.00762931
-0.00676757
-0.000179047
0.00500303
-0.00482398
-0.0779552
0.0774624
0.000492806
-0.000732204
0.000351887
-0.440887
0.441267
0.000952856
-0.00302835
-0.627063
0.629138
0.00603314
-0.00904899
-0.770287
0.773303
0.0127279
-0.016019
-0.897048
0.900339
0.019883
-0.0235037
-1.02455
1.02817
0.0275512
-0.0312509
-1.16325
1.16695
0.0349989
-0.038329
-1.31266
1.31599
0.0414485
-0.0439372
-1.46951
1.47199
0.0453033
-0.0450839
-1.63157
1.63135
0.0434762
-0.040268
-1.51656
1.51335
0.0366211
-0.0320007
-1.19734
1.19272
0.0270878
-0.0214902
-0.954771
0.949173
0.0160675
-0.0102813
-0.730351
0.724564
0.0056191
-0.00145642
-0.488837
0.484675