/*--------------------------------*- C++ -*----------------------------------*\
| =========                 |                                                 |
| \\      /  F ield         | OpenFOAM: The Open Source CFD Toolbox           |
|  \\    /   O peration     | Version:  2306                                  |
|   \\  /    A nd           | Website:  www.openfoam.com                      |
|    \\/     M anipulation  |                                                 |
\*---------------------------------------------------------------------------*/
FoamFile
{
    version     2.0;
    format      ascii;
    arch        "LSB;label=32;scalar=64";
    class       surfaceScalarField;
    location    "73";
    object      phi;
}
// * * * * * * * * * * * * * * * * * * * * * * * * * * * * * * * * * * * * * //

dimensions      [0 3 -1 0 0 0 0];

oriented        oriented;

internalField   nonuniform List<scalar> 
17370
(
-0.0910979
0.0935438
0.286565
-0.0749522
0.0569515
0.364776
-0.0409341
0.0299496
0.427153
-0.0211944
0.0155941
0.504852
-0.0113442
0.00864473
0.602102
-0.00651219
0.00505914
0.720511
-0.00383983
0.00296824
0.863778
-0.0022005
0.00162503
1.03603
-0.00109512
0.000674949
1.24292
-0.000264023
-0.000131394
1.49159
0.000518403
-0.000932154
1.4916
0.00133717
-0.00184022
1.24319
0.00238559
-0.00311911
1.03637
0.0039644
-0.00516396
0.864106
0.00660619
-0.00873073
0.721182
0.0114227
-0.0156622
0.603454
0.0212515
-0.0299937
0.508182
0.0409658
-0.0569731
0.432175
0.0749689
-0.0935536
0.36536
0.0911122
0.197899
-0.12735
0.0881495
0.0392
-0.36474
0.353796
-0.0726224
0.0835664
-0.446567
0.454373
-0.0816976
0.0738919
-0.520973
0.529529
-0.0657807
0.0572245
-0.612852
0.621021
-0.0494707
0.0413015
-0.727003
0.733795
-0.0343713
0.0275794
-0.867517
0.872457
-0.0222338
0.0172936
-1.03855
1.04191
-0.013571
0.0102154
-1.24472
1.24713
-0.00765723
0.0052421
-1.49284
1.49486
-0.00327185
0.00125251
-1.49269
1.49451
0.000570031
-0.00239261
-1.2441
1.24602
0.0043713
-0.00628845
-1.0376
1.04008
0.00863006
-0.0111103
-0.866158
0.869801
0.0143747
-0.0180184
-0.724477
0.729767
0.0228849
-0.028175
-0.608885
0.615768
0.0349138
-0.0417977
-0.514987
0.522691
0.0499153
-0.0576195
-0.439772
0.447824
0.0661142
-0.0741661
-0.375151
0.376999
0.0818985
-0.0837464
-0.256912
0.223412
0.0727479
-0.0392481
-0.068661
0.0589342
0.00972682
-0.0520576
0.058748
-0.374551
0.367861
-0.0578564
0.0540253
-0.453836
0.457667
-0.0486628
0.044319
-0.527752
0.532095
-0.0400904
0.0363027
-0.621113
0.624901
-0.0320725
0.0279941
-0.734888
0.738966
-0.0235132
0.0195129
-0.87406
0.87806
-0.015368
0.0118446
-1.04341
1.04694
-0.00826955
0.00519891
-1.24867
1.25174
-0.00195787
-0.00104724
-1.49695
1.49996
0.00403023
-0.00720879
-1.49743
1.5006
0.0101879
-0.0136359
-1.25009
1.25354
0.0170266
-0.0210162
-1.04572
1.04971
0.02488
-0.0292275
-0.877306
0.881654
0.033199
-0.0373237
-0.7393
0.743425
0.0410224
-0.0451612
-0.626331
0.63047
0.0494288
-0.0547174
-0.534927
0.540215
0.0584667
-0.0592558
-0.45791
0.458699
0.0524349
-0.0320497
-0.33638
0.315995
0.00979001
-0.0684915
0.0587015
-0.0531786
0.0491331
0.00404553
-0.033141
0.0436221
-0.358398
0.347917
-0.0473289
0.0467343
-0.459529
0.460124
-0.04375
0.0404732
-0.536044
0.539321
-0.0367538
0.0334096
-0.628468
0.631812
-0.0298338
0.0266722
-0.742284
0.745446
-0.0233098
0.0201304
-0.881606
0.884786
-0.0165197
0.0131289
-1.05043
1.05382
-0.00938082
0.00593154
-1.25505
1.2585
-0.00209556
-0.00156023
-1.50334
1.507
0.00518353
-0.00892499
-1.50413
1.50787
0.0122449
-0.015813
-1.25714
1.26071
0.0190149
-0.0224042
-1.05347
1.05686
0.0253888
-0.0285599
-0.885256
0.888427
0.0315671
-0.03499
-0.746908
0.75033
0.0382047
-0.0417901
-0.634477
0.638062
0.0449513
-0.0478053
-0.544437
0.547291
0.0482636
-0.0443657
-0.456858
0.45296
0.0336556
-0.0162777
-0.29661
0.279232
0.00412258
-0.0528769
0.0487543
-0.0460157
0.0434954
0.00252027
-0.0228925
0.0332417
-0.337292
0.326943
-0.0390067
0.0399801
-0.459844
0.45887
-0.0387514
0.036442
-0.542
0.54431
-0.0337889
0.0312143
-0.634817
0.637392
-0.0281935
0.0253216
-0.748522
0.751394
-0.0220727
0.0190634
-0.8878
0.890809
-0.015731
0.0126075
-1.057
1.06012
-0.00904584
0.00562601
-1.26193
1.26535
-0.00168589
-0.00214172
-1.51077
1.51459
0.00592712
-0.00973836
-1.51168
1.51549
0.012985
-0.0163093
-1.26417
1.2675
0.0191856
-0.0222297
-1.06003
1.06307
0.0249828
-0.0279752
-0.891561
0.894553
0.0306362
-0.0334461
-0.753506
0.756316
0.0358426
-0.0383155
-0.641055
0.643528
0.0404711
-0.0414978
-0.549097
0.550124
0.0403132
-0.0342398
-0.447746
0.441673
0.0235533
-0.0103104
-0.264028
0.250785
0.00261516
-0.0455507
0.0429356
-0.0414024
0.0396219
0.00178048
-0.0168189
0.0260723
-0.317095
0.307842
-0.0326592
0.0347777
-0.4573
0.455182
-0.0343391
0.0326433
-0.546323
0.548019
-0.0304261
0.0283054
-0.639703
0.641823
-0.0258637
0.0234672
-0.754023
0.756419
-0.0206202
0.0178466
-0.893684
0.896458
-0.0146369
0.0115863
-1.06317
1.06622
-0.00810955
0.00478565
-1.26868
1.272
-0.000936969
-0.0028203
-1.51838
1.52214
0.0065223
-0.0102086
-1.51923
1.52292
0.0133132
-0.0164896
-1.27074
1.27392
0.0192263
-0.0220675
-1.06609
1.06893
0.0245103
-0.0270242
-0.897337
0.899851
0.0291473
-0.0313176
-0.758751
0.760921
0.0332113
-0.0351966
-0.645709
0.647694
0.0366689
-0.036832
-0.550666
0.55083
0.0343893
-0.0273512
-0.435028
0.42799
0.0176439
-0.00745812
-0.239216
0.22903
0.00189643
-0.0407373
0.0388409
-0.038089
0.0367523
0.00133672
-0.0128372
0.0207913
-0.299242
0.291288
-0.0275307
0.0304374
-0.452637
0.44973
-0.0306292
0.0294939
-0.549462
0.550597
-0.0274846
0.0255495
-0.64388
0.645815
-0.0233285
0.0211772
-0.758668
0.760819
-0.0186547
0.0161668
-0.899033
0.901521
-0.0132195
0.0103389
-1.06915
1.07203
-0.00698377
0.00374934
-1.27525
1.27849
-3.84002e-06
-0.00362984
-1.52581
1.52944
0.0071954
-0.0107363
-1.52652
1.53006
0.0136964
-0.0166764
-1.27702
1.28
0.0191633
-0.0216472
-1.07165
1.07414
0.0237213
-0.0258268
-0.90214
0.904246
0.0276332
-0.0295091
-0.762923
0.764799
0.0311569
-0.0328867
-0.649531
0.651261
0.0336961
-0.0331192
-0.550625
0.550049
0.0297489
-0.0223913
-0.420734
0.413377
0.0138536
-0.00578177
-0.220002
0.21193
0.00147791
-0.0371796
0.0357017
-0.0355853
0.0345574
0.00102793
-0.0100197
0.0167412
-0.283974
0.277252
-0.023216
0.0265744
-0.446576
0.443218
-0.0273379
0.0266273
-0.55151
0.552221
-0.0248484
0.0230498
-0.647719
0.649518
-0.0209674
0.0189415
-0.762905
0.764931
-0.016559
0.0142221
-0.903867
0.906204
-0.0114733
0.00877643
-1.07475
1.07745
-0.00560296
0.00250798
-1.28161
1.28471
0.00110061
-0.00460375
-1.53299
1.53649
0.0080219
-0.011378
-1.53349
1.53685
0.0141319
-0.0168409
-1.28285
1.28556
0.0190528
-0.0212311
-1.07652
1.0787
0.0230574
-0.0249233
-0.906233
0.908099
0.0265216
-0.0281757
-0.766555
0.768209
0.0296177
-0.0310109
-0.652845
0.654238
0.0313162
-0.0300059
-0.549119
0.547809
0.0260088
-0.0187202
-0.406027
0.398739
0.0112652
-0.00467139
-0.204666
0.198072
0.0011996
-0.0343788
0.0331792
-0.0336553
0.0328566
0.000798715
-0.00792811
0.0135712
-0.271098
0.265455
-0.0195583
0.0231113
-0.43975
0.436197
-0.0243492
0.0238828
-0.552839
0.553305
-0.0223709
0.0206797
-0.651309
0.653001
-0.018691
0.0167509
-0.76691
0.76885
-0.0144632
0.0122156
-0.908434
0.910682
-0.00956969
0.00698476
-1.08002
1.0826
-0.00395792
0.00100394
-1.28769
1.29064
0.00244152
-0.00578211
-1.53989
1.54323
0.00901939
-0.0121549
-1.54007
1.54321
0.0146893
-0.0171503
-1.28814
1.29061
0.019142
-0.0210874
-1.08084
1.08278
0.0227081
-0.0243615
-0.909866
0.91152
0.0257763
-0.0272379
-0.769759
0.771221
0.0284841
-0.0294955
-0.655426
0.656437
0.0294264
-0.027443
-0.546165
0.544181
0.0230364
-0.0160052
-0.391573
0.384542
0.00945074
-0.00390507
-0.192052
0.186507
0.00100739
-0.0320875
0.0310802
-0.0321556
0.0315345
0.0006211
-0.00631329
0.0110339
-0.2603
0.25558
-0.0164263
0.0199763
-0.432643
0.429093
-0.0215343
0.0212907
-0.553693
0.553936
-0.0200083
0.0183763
-0.654707
0.656339
-0.0164416
0.0145491
-0.77076
0.772653
-0.0123185
0.0101283
-0.912828
0.915018
-0.00755108
0.00503621
-1.08508
1.08759
-0.00209943
-0.000742645
-1.29348
1.29632
0.00404229
-0.00721588
-1.54645
1.54963
0.0102616
-0.0131803
-1.54621
1.54913
0.0155177
-0.0177652
-1.29296
1.29521
0.0195573
-0.0212803
-1.08471
1.08644
0.0227053
-0.0241614
-0.913078
0.914534
0.0254106
-0.0266967
-0.772587
0.773873
0.0277958
-0.0283839
-0.657237
0.657825
0.0279412
-0.0253878
-0.541926
0.539372
0.0207259
-0.0140164
-0.377681
0.370971
0.00817117
-0.00337225
-0.181372
0.176573
0.000874499
-0.0301489
0.0292744
-0.0309932
0.0305161
0.000477044
-0.00501202
0.00893607
-0.251283
0.247359
-0.0136884
0.017086
-0.425625
0.422227
-0.018823
0.0187666
-0.554125
0.554181
-0.0176766
0.0160776
-0.658017
0.659616
-0.0141636
0.0122841
-0.774529
0.776408
-0.0100695
0.0079005
-0.917114
0.919283
-0.00535768
0.00288787
-1.09
1.09247
-2.18698e-05
-0.00275186
-1.29907
1.30184
0.00593494
-0.00896115
-1.55269
1.55572
0.0118322
-0.0145514
-1.55192
1.55463
0.0167029
-0.0187424
-1.29735
1.29939
0.0203375
-0.0218423
-1.08817
1.08967
0.023082
-0.0243575
-0.915898
0.917173
0.025458
-0.0265841
-0.775071
0.776197
0.0274872
-0.0277006
-0.658223
0.658436
0.0268444
-0.0238072
-0.536588
0.533551
0.0189862
-0.012588
-0.364435
0.358036
0.0072797
-0.00300778
-0.172069
0.167797
0.000785169
-0.0284535
0.0276683
-0.030107
0.029752
0.000354996
-0.00392024
0.00714351
-0.243808
0.240584
-0.0112434
0.014378
-0.418973
0.415839
-0.0161674
0.0162603
-0.554208
0.554116
-0.0152497
0.0137203
-0.661254
0.662783
-0.011799
0.00989973
-0.778283
0.780182
-0.00766244
0.00547893
-0.921363
0.923546
-0.00293254
0.000474114
-1.09484
1.0973
0.00236983
-0.00508754
-1.30452
1.30724
0.00818112
-0.0110868
-1.55864
1.56155
0.0138049
-0.0163379
-1.55722
1.55976
0.018309
-0.0201441
-1.30132
1.30316
0.0215452
-0.0228355
-1.09122
1.09251
0.0238948
-0.0249969
-0.918355
0.919457
0.025954
-0.0269135
-0.777228
0.778188
0.027554
-0.0274764
-0.658518
0.65844
0.026172
-0.0226942
-0.530303
0.526825
0.017754
-0.0116094
-0.35179
0.345645
0.00668593
-0.00277176
-0.163733
0.159819
0.000729429
-0.0269197
0.0261903
-0.0294578
0.0292119
0.000245946
-0.00296165
0.00555146
-0.237699
0.235109
-0.00899876
0.011787
-0.412895
0.410107
-0.013514
0.0136834
-0.554036
0.553866
-0.0127111
0.0112216
-0.664374
0.665864
-0.00926966
0.00732101
-0.782085
0.784033
-0.00502509
0.00279281
-0.925644
0.927876
-0.000206724
-0.00228369
-1.09967
1.10216
0.00513463
-0.00783428
-1.30987
1.31257
0.0108714
-0.013682
-1.56436
1.56717
0.0162657
-0.0186247
-1.56216
1.56452
0.0204228
-0.0220587
-1.30488
1.30652
0.0232652
-0.0243354
-1.09387
1.09494
0.0252094
-0.026134
-0.920459
0.921384
0.0269457
-0.0277395
-0.77903
0.779824
0.0280906
-0.0277132
-0.658217
0.65784
0.0259483
-0.0220427
-0.523157
0.519251
0.016982
-0.0110052
-0.339617
0.333641
0.00633106
-0.0026379
-0.156043
0.152349
0.000700436
-0.0254842
0.0247838
-0.0290237
0.0288814
0.000142306
-0.00207265
0.00406711
-0.232836
0.230841
-0.00685688
0.00922855
-0.407549
0.405178
-0.0107845
0.0109509
-0.553761
0.553594
-0.00998236
0.00849362
-0.667452
0.66894
-0.00648322
0.00445458
-0.78599
0.788019
-0.0020629
-0.000250093
-0.930024
0.932337
0.00292717
-0.00547802
-1.10456
1.10712
0.00837549
-0.0110897
-1.3152
1.31792
0.0141017
-0.01684
-1.5699
1.57263
0.0193045
-0.0214985
-1.56675
1.56894
0.0231282
-0.0245655
-1.30803
1.30947
0.0255706
-0.0264081
-1.09612
1.09696
0.0270838
-0.0278144
-0.922194
0.922924
0.028471
-0.0291219
-0.780474
0.781125
0.0291551
-0.0283819
-0.657262
0.656489
0.0261566
-0.0218269
-0.515181
0.510851
0.0166181
-0.0107131
-0.327739
0.321834
0.00616965
-0.00258598
-0.148739
0.145155
0.000692852
-0.0240962
0.0234033
-0.0287971
0.0287594
3.77258e-05
-0.00120582
0.00261946
-0.229154
0.22774
-0.00473794
0.00662894
-0.403072
0.401181
-0.00790906
0.00798906
-0.553547
0.553467
-0.00697675
0.00545085
-0.670567
0.672092
-0.00334259
0.00119985
-0.790058
0.792201
0.00132884
-0.00376872
-0.934574
0.937014
0.00656925
-0.00922137
-1.10959
1.11224
0.0122076
-0.0149722
-1.32057
1.32333
0.0179925
-0.0206818
-1.57529
1.57798
0.0230414
-0.0250766
-1.57101
1.57304
0.0265379
-0.0277729
-1.31077
1.31201
0.0285718
-0.0291733
-1.09795
1.09855
0.0296457
-0.030171
-0.923537
0.924062
0.0306571
-0.0310883
-0.78155
0.781981
0.0308293
-0.0295813
-0.655518
0.65427
0.0268585
-0.0220695
-0.506358
0.501569
0.0166517
-0.0107058
-0.315956
0.31001
0.00617979
-0.00260616
-0.141605
0.138031
0.000704177
-0.0227146
0.0220104
-0.0287814
0.0288511
-6.97165e-05
-0.000323219
0.00114759
-0.226634
0.225809
-0.00256387
0.00390682
-0.399589
0.398246
-0.00480675
0.00471503
-0.553566
0.553658
-0.00360054
0.00198443
-0.673808
0.675424
0.000257752
-0.00255542
-0.79436
0.796658
0.00526792
-0.00787621
-0.939373
0.941981
0.0108531
-0.0136511
-1.11483
1.11762
0.0167714
-0.0196237
-1.32604
1.32889
0.0226866
-0.0253502
-1.5806
1.58326
0.0276178
-0.0294962
-1.57494
1.57682
0.0307852
-0.03181
-1.31309
1.31411
0.0323977
-0.0327564
-1.09933
1.09968
0.0330151
-0.0333218
-0.924459
0.924766
0.0336118
-0.0337405
-0.782089
0.782218
0.0331678
-0.0313677
-0.652836
0.651036
0.0280924
-0.0227835
-0.496609
0.4913
0.0170734
-0.0109647
-0.304036
0.297928
0.00634655
-0.00269131
-0.134447
0.130792
0.00073235
-0.0213023
0.02057
-0.0289917
0.0291812
-0.000189467
0.000603048
-0.000402491
-0.225298
0.225097
-0.000259292
0.000976818
-0.397225
0.396507
-0.00139049
0.00104519
-0.553999
0.554344
0.000224704
-0.00201022
-0.67729
0.679075
0.00445179
-0.0069575
-0.798981
0.801487
0.00990826
-0.0127334
-0.94451
0.947335
0.0159405
-0.0189328
-1.12036
1.12335
0.0222367
-0.0252164
-1.3317
1.33468
0.0283564
-0.0310148
-1.58585
1.58851
0.0331976
-0.0349151
-1.57855
1.58026
0.0360264
-0.0368295
-1.31495
1.31575
0.0371957
-0.0372967
-1.10022
1.10032
0.0373246
-0.0373969
-0.924924
0.924996
0.0374899
-0.0372279
-0.781985
0.781723
0.0362597
-0.0338297
-0.649066
0.646636
0.0299233
-0.023999
-0.485794
0.47987
0.0178868
-0.0114796
-0.29173
0.285323
0.00665949
-0.00283553
-0.127084
0.12326
0.000775401
-0.0198268
0.0190514
-0.0294554
0.0297948
-0.000339442
0.00165588
-0.00209532
-0.225239
0.225678
0.00228306
-0.00229738
-0.39612
0.396134
0.00250675
-0.00322119
-0.555069
0.555783
0.0047342
-0.00672429
-0.681159
0.683149
0.00941351
-0.0121779
-0.804011
0.806776
0.0154287
-0.0185294
-0.950085
0.953186
0.0220295
-0.0252699
-1.1263
1.12954
0.0288102
-0.0319571
-1.33762
1.34077
0.0352065
-0.0378759
-1.5911
1.59377
0.0399752
-0.0415185
-1.58182
1.58336
0.0424297
-0.0430015
-1.31632
1.31689
0.043137
-0.042957
-1.10058
1.1004
0.0427298
-0.0425513
-0.924878
0.924699
0.0424331
-0.0416835
-0.781065
0.780315
0.0402299
-0.0370588
-0.644052
0.640881
0.0324087
-0.0257376
-0.473709
0.467038
0.0190898
-0.0122384
-0.278762
0.27191
0.00710675
-0.00303201
-0.119345
0.11527
0.000831037
-0.0182593
0.0174283
-0.0302051
0.0307244
-0.000519334
0.00295626
-0.00416922
-0.226525
0.227738
0.00523208
-0.00605277
-0.396489
0.397309
0.00698876
-0.00817588
-0.557002
0.558189
0.0100237
-0.0123006
-0.685519
0.687796
0.0153279
-0.0184279
-0.809565
0.812665
0.0220583
-0.0255027
-0.956218
0.959663
0.0293658
-0.0329126
-1.13274
1.13628
0.0367438
-0.0400961
-1.34388
1.34723
0.0434809
-0.046168
-1.59637
1.59906
0.048174
-0.0495257
-1.58472
1.58608
0.0502079
-0.0505316
-1.31716
1.31749
0.0504141
-0.0499306
-1.10035
1.09987
0.0494304
-0.048985
-0.924267
0.923822
0.0485301
-0.0473139
-0.779212
0.777995
0.0452135
-0.0411547
-0.637556
0.633497
0.0356125
-0.0280239
-0.460075
0.452486
0.0206821
-0.0132282
-0.264835
0.257381
0.00767502
-0.00327265
-0.111067
0.106664
0.000896355
-0.016576
0.0156797
-0.0313144
0.0320581
-0.000743664
0.00447464
-0.00657951
-0.229364
0.231469
0.00872228
-0.0104592
-0.398542
0.400279
0.0122298
-0.0140085
-0.560055
0.561833
0.0163271
-0.0189937
-0.690538
0.693205
0.0224709
-0.0259923
-0.815796
0.819317
0.0300931
-0.0339606
-0.96305
0.966918
0.0382664
-0.0421815
-1.1398
1.14372
0.0463557
-0.0499436
-1.35055
1.35414
0.0534749
-0.0561686
-1.60166
1.60435
0.0580533
-0.0591735
-1.58722
1.58834
0.0595888
-0.0596252
-1.31742
1.31745
0.0592317
-0.0584212
-1.09949
1.09868
0.0576228
-0.0568817
-0.923043
0.922302
0.0560117
-0.0542545
-0.776465
0.774708
0.0513644
-0.046218
-0.629273
0.624127
0.0395848
-0.0308619
-0.444533
0.43581
0.0226422
-0.0144192
-0.249629
0.241406
0.00833899
-0.00354326
-0.102101
0.0973056
0.000966533
-0.0147597
0.0137931
-0.0328667
0.0339035
-0.00103679
0.00638262
-0.00955425
-0.233998
0.237169
0.0129703
-0.0157743
-0.402547
0.405351
0.0185213
-0.0210198
-0.564505
0.567004
0.0239563
-0.0271368
-0.696434
0.699615
0.0311966
-0.0352524
-0.822876
0.826932
0.039933
-0.044312
-0.970741
0.97512
0.0491426
-0.0534832
-1.14761
1.15195
0.058039
-0.0618722
-1.35769
1.36152
0.0655316
-0.0681904
-1.60693
1.60959
0.0698989
-0.0707261
-1.58922
1.59005
0.0708137
-0.0705059
-1.31695
1.31664
0.0698152
-0.0686377
-1.0979
1.09673
0.0675056
-0.0664738
-0.921165
0.920133
0.0650677
-0.0626718
-0.772654
0.770258
0.0588041
-0.0523078
-0.618796
0.6123
0.0443302
-0.0342114
-0.426638
0.416519
0.0249106
-0.0157529
-0.232811
0.223654
0.00905497
-0.00382123
-0.0923269
0.0870932
0.00103431
-0.0128039
0.0117696
-0.03499
0.0364309
-0.00144091
0.00887234
-0.0134073
-0.240753
0.245288
0.0183224
-0.0223667
-0.408873
0.412918
0.0262535
-0.0296239
-0.570685
0.574055
0.0333572
-0.0372141
-0.703477
0.707334
0.0420243
-0.0467471
-0.831027
0.83575
0.0521296
-0.0571106
-0.979471
0.984452
0.0625386
-0.0673404
-1.15627
1.16107
0.0722797
-0.0763265
-1.36528
1.36933
0.0800452
-0.0825799
-1.61208
1.61462
0.0840144
-0.084449
-1.59058
1.59101
0.0841487
-0.0834138
-1.31567
1.31494
0.082366
-0.0808059
-1.09552
1.09396
0.0793566
-0.0778929
-0.918594
0.91713
0.0759716
-0.0726905
-0.767526
0.764245
0.0676047
-0.0594241
-0.60558
0.597399
0.0497841
-0.0379622
-0.405858
0.394036
0.0273678
-0.0171289
-0.214063
0.203825
0.00975408
-0.00407346
-0.0816708
0.0759902
0.00108974
-0.010718
0.00962828
-0.0378847
0.0398996
-0.00201482
0.0123336
-0.0185998
-0.250151
0.256417
0.0253153
-0.0308065
-0.418016
0.423507
0.0360444
-0.0404839
-0.578985
0.583424
0.0452229
-0.04996
-0.712011
0.716748
0.0557326
-0.0612731
-0.840507
0.846048
0.0674779
-0.0731302
-0.989415
0.995067
0.0791833
-0.0844247
-1.16582
1.17106
0.0896744
-0.0938281
-1.37324
1.37739
0.0974537
-0.0997035
-1.6169
1.61915
0.100707
-0.100603
-1.59107
1.59096
0.099825
-0.0985497
-1.31345
1.31218
0.097097
-0.0951382
-1.09227
1.09031
0.0933307
-0.0913212
-0.915009
0.913
0.0888503
-0.0844267
-0.760546
0.756122
0.0777784
-0.0674684
-0.588916
0.578606
0.0557719
-0.0419025
-0.381585
0.367716
0.0298132
-0.0183945
-0.193119
0.181701
0.0103385
-0.0042559
-0.0701414
0.0640588
0.00112032
-0.00853245
0.00741213
-0.0418753
0.0447767
-0.00290137
0.017363
-0.0258934
-0.262931
0.271462
0.0348375
-0.0420733
-0.430645
0.437881
0.0489388
-0.0546609
-0.589897
0.595619
0.0607296
-0.0666386
-0.722463
0.728372
0.0735747
-0.0800432
-0.851597
0.858065
0.0871246
-0.0934314
-1.00068
1.00699
0.10002
-0.105561
-1.17617
1.18171
0.110914
-0.11495
-1.38128
1.38531
0.118209
-0.119914
-1.621
1.62271
0.120252
-0.119409
-1.59037
1.58953
0.117997
-0.116093
-1.31008
1.30817
0.114184
-0.111797
-1.08806
1.08568
0.109601
-0.106946
-0.910157
0.907502
0.103743
-0.0977895
-0.751131
0.745177
0.0891195
-0.076131
-0.567883
0.554894
0.0619265
-0.0456653
-0.353171
0.336909
0.0319354
-0.0193341
-0.169841
0.157239
0.0106802
-0.00431501
-0.0578668
0.0515016
0.00111179
-0.00630281
0.00519102
-0.0475428
0.0519448
-0.00440201
0.0251379
-0.0367482
-0.280257
0.291868
0.0485956
-0.0581592
-0.4478
0.457364
0.0670603
-0.0742894
-0.604021
0.61125
0.0819333
-0.0893754
-0.735209
0.742651
0.0975348
-0.104857
-0.864499
0.871821
0.112648
-0.119385
-1.01315
1.01989
0.126189
-0.131688
-1.18694
1.19244
0.13673
-0.140254
-1.38888
1.3924
0.142711
-0.143489
-1.62382
1.6246
0.142839
-0.141012
-1.58806
1.58624
0.1388
-0.136158
-1.30536
1.30272
0.133711
-0.130868
-1.08278
1.07994
0.128148
-0.124856
-0.903903
0.900611
0.120545
-0.112493
-0.738424
0.730372
0.10116
-0.0848336
-0.541315
0.524988
0.067656
-0.0487353
-0.320019
0.301099
0.0333387
-0.0197018
-0.144333
0.130696
0.0106445
-0.00419844
-0.045137
0.038691
0.00105034
-0.00411131
0.00306097
-0.0559747
0.0635132
-0.0075385
0.0387764
-0.054882
-0.304299
0.320405
0.0708007
-0.0835838
-0.471125
0.483908
0.094674
-0.10331
-0.621803
0.630439
0.112492
-0.121227
-0.750637
0.759372
0.130334
-0.138084
-0.878907
0.886658
0.145987
-0.15254
-1.02621
1.03276
0.158869
-0.163678
-1.19732
1.20212
0.167732
-0.170129
-1.39514
1.39754
0.171209
-0.170608
-1.62451
1.62391
0.168612
-0.165504
-1.58364
1.58053
0.16228
-0.158736
-1.29906
1.29551
0.155666
-0.152344
-1.0763
1.07298
0.149077
-0.144851
-0.89594
0.891714
0.138871
-0.12787
-0.721131
0.71013
0.113005
-0.0925818
-0.50776
0.487337
0.0721434
-0.0505474
-0.281773
0.260177
0.0336851
-0.0193555
-0.117088
0.102759
0.0101805
-0.00389809
-0.032425
0.0261425
0.000933636
-0.00206331
0.00112967
-0.0705232
0.0747015
-0.00417831
0.0296473
-0.0436487
-0.339067
0.353068
0.0578106
-0.069553
-0.502053
0.513795
0.0801
-0.0899761
-0.642876
0.652752
0.101056
-0.111238
-0.767596
0.777778
0.122567
-0.13268
-0.893496
0.90361
0.1435
-0.153169
-1.03838
1.04805
0.16333
-0.172104
-1.20586
1.21464
0.180916
-0.18806
-1.3988
1.40594
0.194601
-0.199116
-1.62215
1.62667
0.201591
-0.202633
-1.57644
1.57748
0.202503
-0.20183
-1.29084
1.29016
0.201355
-0.200376
-1.06834
1.06736
0.198808
-0.19447
-0.885406
0.881068
0.185864
-0.168857
-0.697341
0.680334
0.145775
-0.115478
-0.465779
0.435481
0.0869477
-0.0584647
-0.238597
0.210114
0.0375978
-0.0208471
-0.0891346
0.072384
0.0105987
-0.00390517
-0.0203557
0.0136622
0.000893958
-0.000262852
-0.000631106
-0.0821395
0.0801321
0.00200736
0.00763286
-0.0169233
-0.369857
0.379148
0.0277372
-0.0361093
-0.530254
0.538626
0.0445965
-0.0529311
-0.665239
0.673574
0.0631156
-0.0726311
-0.787553
0.797069
0.0828063
-0.0921155
-0.913159
0.922468
0.102042
-0.11057
-1.05744
1.06597
0.119722
-0.127261
-1.22323
1.23077
0.134791
-0.140627
-1.41281
1.41865
0.145462
-0.148486
-1.63045
1.63347
0.149528
-0.149169
-1.57793
1.57757
0.147626
-0.145441
-1.2886
1.28642
0.143547
-0.141485
-1.06374
1.06168
0.138862
-0.133238
-0.87223
0.866606
0.123831
-0.10809
-0.659241
0.6435
0.0894446
-0.0672811
-0.403455
0.381291
0.0484286
-0.0314454
-0.182333
0.165349
0.0198261
-0.0109234
-0.0567532
0.0478505
0.00557288
-0.00205284
-0.00727916
0.00375911
0.00040734
0.00161799
-0.00202532
-0.0835841
0.0805846
0.00299956
-0.00172412
-0.00366777
-0.390724
0.396116
0.0110492
-0.0171421
-0.551183
0.557276
0.0234309
-0.0307376
-0.684156
0.691463
0.03957
-0.0478359
-0.805646
0.813911
0.056889
-0.065007
-0.931008
0.939126
0.0734119
-0.0809968
-1.07431
1.0819
0.0889135
-0.0955114
-1.23785
1.24445
0.101626
-0.106141
-1.42379
1.4283
0.109825
-0.111571
-1.63579
1.63753
0.111379
-0.10983
-1.57663
1.57508
0.107362
-0.104359
-1.28382
1.28081
0.10124
-0.0979734
-1.057
1.05374
0.094361
-0.0885361
-0.856985
0.85116
0.0798781
-0.0666809
-0.624809
0.611611
0.0528167
-0.0379778
-0.357568
0.342729
0.0268063
-0.0175486
-0.148213
0.138956
0.0114012
-0.00664814
-0.0390877
0.0343347
0.00359484
-0.00132458
-0.000314145
-0.00195611
0.000300306
0.00266771
-0.00296802
-0.0822474
0.0793972
0.0028502
-0.00551524
0.00294132
-0.404663
0.407237
0.00182416
-0.00645416
-0.56666
0.57129
0.0117701
-0.0178934
-0.699762
0.705885
0.0254214
-0.0324812
-0.821496
0.828555
0.0401979
-0.0471402
-0.946687
0.953629
0.0547023
-0.0611025
-1.08902
1.09542
0.0679545
-0.073177
-1.25059
1.25581
0.0782854
-0.0818931
-1.43254
1.43615
0.0844085
-0.0848815
-1.63877
1.63924
0.083853
-0.0815005
-1.57292
1.57056
0.0783236
-0.0741723
-1.27732
1.27317
0.0702722
-0.0660068
-1.04842
1.04415
0.0614301
-0.0557469
-0.84106
0.835376
0.0481882
-0.0382428
-0.595881
0.585935
0.0288813
-0.0201443
-0.326889
0.318152
0.0142725
-0.00977608
-0.128988
0.124492
0.00679872
-0.00434985
-0.0290964
0.0266476
0.00249554
-0.00105181
0.00436844
-0.00581217
0.000275541
0.00351788
-0.00379342
-0.0806196
0.0780703
0.00254929
-0.00678227
0.00589326
-0.413888
0.414777
-0.0024244
-0.000852538
-0.579088
0.582365
0.00518066
-0.0107378
-0.712813
0.71837
0.0170384
-0.0231979
-0.834874
0.841034
0.0298395
-0.0358224
-0.960083
0.966066
0.0422486
-0.0478619
-1.10164
1.10726
0.0535727
-0.0582146
-1.26083
1.26548
0.0624135
-0.06521
-1.43931
1.4421
0.0668488
-0.0665159
-1.63944
1.6391
0.0647278
-0.0614218
-1.56739
1.56409
0.0575974
-0.0528795
-1.26873
1.26401
0.0482792
-0.0430208
-1.03832
1.03306
0.037956
-0.0322752
-0.825446
0.819765
0.0260724
-0.0187181
-0.573693
0.566339
0.0128925
-0.00841628
-0.308134
0.303658
0.00597733
-0.00448222
-0.118985
0.11749
0.00353841
-0.00261186
-0.0235782
0.0226517
0.00161815
-0.000774729
0.00758983
-0.00843325
0.000235167
0.00428559
-0.00452076
-0.0790563
0.0768451
0.00221127
-0.0067924
0.00647868
-0.420098
0.420412
-0.00444424
0.00181935
-0.588547
0.591172
0.00226682
-0.00699561
-0.723822
0.72855
0.0123712
-0.017682
-0.846365
0.851676
0.023536
-0.0288217
-0.971661
0.976946
0.0346089
-0.0394353
-1.11254
1.11737
0.0444374
-0.0484566
-1.26976
1.27378
0.0519379
-0.054095
-1.44454
1.4467
0.0550219
-0.0544173
-1.63855
1.63794
0.0519876
-0.0482316
-1.56018
1.55642
0.043869
-0.0385587
-1.25887
1.25356
0.0336432
-0.0276595
-1.02677
1.02079
0.0221466
-0.0165929
-0.810548
0.804994
0.0112709
-0.00577977
-0.557053
0.551562
0.00232174
-0.000527098
-0.2973
0.295505
0.000335106
-0.000591761
-0.114621
0.114877
0.000828756
-0.000988752
-0.0212124
0.0213724
0.000669891
-0.000415239
0.00949772
-0.00975237
0.000154733
0.00489354
-0.00504827
-0.0777893
0.0760327
0.00175653
-0.00602309
0.00610915
-0.424563
0.424477
-0.00452643
0.00260366
-0.5967
0.598623
0.00113328
-0.00539118
-0.733252
0.73751
0.0104364
-0.0149621
-0.856549
0.861075
0.0200444
-0.0246639
-0.982162
0.986781
0.0300534
-0.0343354
-1.12218
1.12646
0.038646
-0.0422804
-1.27754
1.28118
0.0456626
-0.0473827
-1.44878
1.4505
0.0479838
-0.0468931
-1.63681
1.63572
0.0443872
-0.040002
-1.55229
1.5479
0.0354798
-0.0299669
-1.24788
1.24237
0.0245672
-0.0184148
-1.0142
1.00805
0.0125989
-0.00672289
-0.796267
0.790391
0.00223981
0.00200364
-0.543888
0.539644
-0.0042981
0.00463301
-0.291281
0.290947
-0.00386607
0.00274097
-0.113981
0.115106
-0.00166824
0.000670725
-0.0211473
0.0221448
-0.000270843
-2.18092e-05
0.0101448
-0.00985214
5.72652e-05
0.00526517
-0.00532243
-0.0770004
0.075595
0.00140546
-0.00502658
0.00529214
-0.427941
0.427676
-0.00395712
0.00216381
-0.603684
0.605478
0.00137233
-0.00512693
-0.741639
0.745394
0.00939399
-0.0137
-0.865508
0.869814
0.0183251
-0.0230003
-0.991164
0.99584
0.0275462
-0.0315285
-1.13079
1.13478
0.0358205
-0.0390465
-1.28462
1.28785
0.041732
-0.0436337
-1.45203
1.45394
0.0440977
-0.0429337
-1.63457
1.6334
0.0401841
-0.0359175
-1.54358
1.53931
0.0312794
-0.0256051
-1.23637
1.23069
0.0201428
-0.0138197
-1.00132
0.995001
0.00792898
-0.0020976
-0.782458
0.776626
-0.00214981
0.00566094
-0.532889
0.529378
-0.00745448
0.00745183
-0.287969
0.287972
-0.006334
0.00474029
-0.115061
0.116655
-0.0033266
0.00189418
-0.0227127
0.0241452
-0.000982821
0.000308828
0.00962998
-0.00895599
-3.56963e-05
0.00536116
-0.00532546
-0.0767259
0.0755391
0.00118686
-0.00380033
0.00387245
-0.430844
0.430772
-0.00286383
0.00113332
-0.609987
0.611717
0.00222901
-0.00579895
-0.749324
0.752894
0.00983633
-0.0136782
-0.873865
0.877706
0.0183495
-0.0221524
-0.999889
1.00369
0.0265739
-0.030276
-1.13887
1.14257
0.0343261
-0.0376135
-1.29099
1.29428
0.0404113
-0.0418969
-1.45551
1.457
0.0424465
-0.0413973
-1.63206
1.63101
0.0389725
-0.034661
-1.53481
1.5305
0.0301403
-0.0245238
-1.22501
1.21939
0.0191471
-0.0128221
-0.988189
0.981864
0.00709459
-0.00111395
-0.76913
0.763149
-0.00309102
0.00635122
-0.523192
0.519932
-0.0081517
0.00819956
-0.28552
0.285473
-0.00724483
0.00569544
-0.116904
0.118454
-0.00423991
0.00263765
-0.0251272
0.0267294
-0.00147545
0.000562091
0.00833909
-0.00742573
-0.000121538
0.00523276
-0.00511122
-0.0767246
0.0758788
0.000845779
-0.00267161
0.00230487
-0.433749
0.434115
-0.001474
-0.000275675
-0.615479
0.617229
0.00334026
-0.00673469
-0.756416
0.75981
0.0105533
-0.0144772
-0.881369
0.885293
0.0184644
-0.0223697
-1.00766
1.01157
0.0266786
-0.0300916
-1.14666
1.15007
0.0341322
-0.0372645
-1.29731
1.30044
0.0399805
-0.0418496
-1.45883
1.4607
0.0426935
-0.0417122
-1.62992
1.62894
0.0392982
-0.0354665
-1.52628
1.52245
0.0312869
-0.0258342
-1.21359
1.20814
0.0205423
-0.0146208
-0.975318
0.969396
0.0086928
-0.0029969
-0.755901
0.750205
-0.00143779
0.00479339
-0.514071
0.510716
-0.00656184
0.00718921
-0.283022
0.282395
-0.00673214
0.00565158
-0.118682
0.119763
-0.00437945
0.00288711
-0.0277678
0.0292602
-0.00170666
0.00071828
0.00661216
-0.00562377
-0.000182242
0.00492631
-0.00474407
-0.0771386
0.0764719
0.000666702
-0.00170809
0.00141851
-0.436819
0.437108
-0.000163632
-0.00167619
-0.62087
0.62271
0.00481807
-0.00802735
-0.762931
0.76614
0.0116517
-0.0151308
-0.888843
0.892323
0.019198
-0.0227391
-1.01544
1.01899
0.0269394
-0.030733
-1.1539
1.1577
0.0343316
-0.0377152
-1.30357
1.30695
0.040752
-0.0425989
-1.4624
1.46425
0.043671
-0.0433198
-1.62812
1.62776
0.041188
-0.0378216
-1.51843
1.51507
0.0337344
-0.0286554
-1.20271
1.19763
0.0237393
-0.0179565
-0.962998
0.957215
0.0123968
-0.00671355
-0.743195
0.737512
0.00206151
0.00170757
-0.504749
0.50098
-0.00381731
0.00491374
-0.279783
0.278687
-0.00510167
0.00456759
-0.119591
0.120126
-0.00372326
0.00259456
-0.030085
0.0312137
-0.00160784
0.000725881
0.00480792
-0.00392596
-0.000202781
0.00452162
-0.00431883
-0.077847
0.0773671
0.000479848
-0.000656081
0.000257273
-0.440045
0.440444
0.00109764
-0.00318013
-0.626023
0.628106
0.00619192
-0.00921541
-0.769131
0.772154
0.0129007
-0.0161985
-0.895747
0.899045
0.0200711
-0.0237016
-1.02298
1.02661
0.0277624
-0.0314767
-1.16131
1.16502
0.0352446
-0.0385963
-1.31021
1.31356
0.0417446
-0.0442644
-1.46633
1.46885
0.0456726
-0.0454996
-1.62729
1.62711
0.0439413
-0.0407861
-1.51154
1.50839
0.037188
-0.0326252
-1.19249
1.18793
0.0277762
-0.0222606
-0.951131
0.945616
0.0169166
-0.0111857
-0.730808
0.725077
0.00650728
-0.00220979
-0.495297
0.491