/*--------------------------------*- C++ -*----------------------------------*\
| =========                 |                                                 |
| \\      /  F ield         | OpenFOAM: The Open Source CFD Toolbox           |
|  \\    /   O peration     | Version:  2306                                  |
|   \\  /    A nd           | Website:  www.openfoam.com                      |
|    \\/     M anipulation  |                                                 |
\*---------------------------------------------------------------------------*/
FoamFile
{
    version     2.0;
    format      ascii;
    arch        "LSB;label=32;scalar=64";
    class       volVectorField;
    location    "73";
    object      U;
}
// * * * * * * * * * * * * * * * * * * * * * * * * * * * * * * * * * * * * * //

dimensions      [0 1 -1 0 0 0 0];

internalField   nonuniform List<vector> 
8800
(
(0.984956 -0.0884513 0)
(1.00212 -0.0568238 0)
(0.999653 -0.0305562 0)
(1.00001 -0.0158624 0)
(1.0001 -0.00872135 0)
(1.00012 -0.00508519 0)
(1.00007 -0.00299558 0)
(1.00003 -0.00168443 0)
(0.999998 -0.000779435 0)
(1.00007 -7.64685e-05 0)
(0.999972 0.00063791 0)
(0.999984 0.00139995 0)
(1.00003 0.00242221 0)
(1.00006 0.00401196 0)
(1.00004 0.00671889 0)
(1.00002 0.0117427 0)
(0.999852 0.0220513 0)
(0.999174 0.0411646 0)
(1.00748 0.076894 0)
(0.773655 0.0450715 0)
(0.361017 -0.0151703 0)
(1.04558 -0.0741945 0)
(1.08711 -0.0678792 0)
(1.04776 -0.0522877 0)
(1.02461 -0.038382 0)
(1.01244 -0.0261005 0)
(1.00653 -0.016747 0)
(1.00364 -0.0102218 0)
(1.00219 -0.00556597 0)
(1.00151 -0.00194934 0)
(1.00137 0.00128485 0)
(1.00171 0.00461488 0)
(1.0027 0.00852177 0)
(1.00473 0.0138445 0)
(1.00881 0.0215615 0)
(1.01734 0.0323744 0)
(1.03445 0.0457081 0)
(1.06549 0.0598098 0)
(1.09407 0.072914 0)
(0.842189 0.0557173 0)
(0.21711 -0.00164568 0)
(1.07589 -0.0503414 0)
(1.09985 -0.0486965 0)
(1.06467 -0.040143 0)
(1.04002 -0.0329755 0)
(1.02384 -0.0256686 0)
(1.01404 -0.0182677 0)
(1.00854 -0.0115203 0)
(1.00567 -0.00569834 0)
(1.00447 -0.000365162 0)
(1.00477 0.00478147 0)
(1.00661 0.010113 0)
(1.01056 0.0161433 0)
(1.01786 0.0230295 0)
(1.03048 0.0302773 0)
(1.05063 0.0372678 0)
(1.08035 0.0445984 0)
(1.10617 0.0518026 0)
(0.942767 0.0413477 0)
(0.216418 0.00166915 0)
(0.175955 -0.000644468 0)
(1.01875 -0.035391 0)
(1.10562 -0.0413887 0)
(1.07816 -0.0362181 0)
(1.05293 -0.0301846 0)
(1.03566 -0.0244461 0)
(1.02362 -0.0186964 0)
(1.01568 -0.0126491 0)
(1.011 -0.00648713 0)
(1.00892 -0.000195839 0)
(1.00942 0.0060047 0)
(1.01252 0.0119658 0)
(1.01858 0.0177573 0)
(1.02831 0.0232964 0)
(1.04262 0.0287034 0)
(1.06334 0.0343482 0)
(1.09376 0.0403026 0)
(1.09408 0.0419165 0)
(0.828669 0.0228055 0)
(0.174782 0.00066946 0)
(0.154431 -0.000486244 0)
(0.957449 -0.0255297 0)
(1.10417 -0.0350482 0)
(1.08802 -0.0325956 0)
(1.06152 -0.0280342 0)
(1.04363 -0.0230226 0)
(1.03119 -0.0177353 0)
(1.02247 -0.0122012 0)
(1.01681 -0.00626717 0)
(1.01408 0.000223916 0)
(1.01469 0.00671175 0)
(1.01851 0.0125955 0)
(1.02542 0.0178667 0)
(1.03562 0.0227917 0)
(1.05026 0.027584 0)
(1.07194 0.0320454 0)
(1.10064 0.0359092 0)
(1.069 0.0340311 0)
(0.740971 0.0143907 0)
(0.152663 0.000514052 0)
(0.139932 -0.000357321 0)
(0.900576 -0.0191786 0)
(1.09658 -0.0300889 0)
(1.09616 -0.0291928 0)
(1.06919 -0.0254268 0)
(1.05049 -0.0213081 0)
(1.03752 -0.0165587 0)
(1.02846 -0.011282 0)
(1.02243 -0.00554136 0)
(1.01935 0.000832133 0)
(1.01992 0.00720955 0)
(1.02393 0.0128491 0)
(1.03103 0.0177838 0)
(1.04152 0.0222141 0)
(1.05677 0.026153 0)
(1.07936 0.029618 0)
(1.10286 0.0322704 0)
(1.03697 0.0281976 0)
(0.674184 0.0102825 0)
(0.137436 0.000389926 0)
(0.129315 -0.000272616 0)
(0.850938 -0.0147984 0)
(1.08427 -0.0259694 0)
(1.10188 -0.0262741 0)
(1.07606 -0.0229483 0)
(1.05684 -0.0192805 0)
(1.04342 -0.0150459 0)
(1.034 -0.010136 0)
(1.0277 -0.00460233 0)
(1.02441 0.0015838 0)
(1.02484 0.00773526 0)
(1.02882 0.0130928 0)
(1.03605 0.0176148 0)
(1.04681 0.021434 0)
(1.06244 0.0247411 0)
(1.08547 0.027715 0)
(1.10197 0.0294794 0)
(1.00204 0.0236973 0)
(0.622089 0.0079103 0)
(0.125931 0.00031191 0)
(0.121229 -0.000209728 0)
(0.808728 -0.0116207 0)
(1.06906 -0.0223551 0)
(1.10546 -0.0236221 0)
(1.08235 -0.0207274 0)
(1.06269 -0.0172743 0)
(1.04899 -0.0133261 0)
(1.0393 -0.00874131 0)
(1.03272 -0.00347446 0)
(1.02918 0.00248624 0)
(1.02942 0.00837256 0)
(1.03334 0.0133784 0)
(1.04062 0.0174335 0)
(1.05148 0.0207602 0)
(1.06734 0.0236666 0)
(1.09072 0.0263285 0)
(1.09819 0.0271834 0)
(0.966683 0.0201686 0)
(0.580174 0.00636966 0)
(0.116765 0.000257276 0)
(0.114974 -0.000161327 0)
(0.773206 -0.00923922 0)
(1.05234 -0.0191687 0)
(1.10787 -0.0211624 0)
(1.08826 -0.0186408 0)
(1.06819 -0.0153376 0)
(1.05425 -0.0115487 0)
(1.04436 -0.00716283 0)
(1.03754 -0.00213166 0)
(1.03371 0.00357506 0)
(1.03372 0.00915629 0)
(1.03751 0.0137816 0)
(1.04472 0.017423 0)
(1.05557 0.0203651 0)
(1.07164 0.0229426 0)
(1.09469 0.0252526 0)
(1.09155 0.0252911 0)
(0.932207 0.0174507 0)
(0.545427 0.00531863 0)
(0.109198 0.00021891 0)
(0.11011 -0.000122758 0)
(0.743445 -0.00738919 0)
(1.03521 -0.0163389 0)
(1.10935 -0.0188417 0)
(1.09388 -0.0166252 0)
(1.07353 -0.0134145 0)
(1.0593 -0.00971489 0)
(1.04922 -0.00544471 0)
(1.04217 -0.000577768 0)
(1.03804 0.00488595 0)
(1.03775 0.0101492 0)
(1.0413 0.0144126 0)
(1.04836 0.0176856 0)
(1.05917 0.0202786 0)
(1.07545 0.0225636 0)
(1.09737 0.0244921 0)
(1.08243 0.0237548 0)
(0.899182 0.015395 0)
(0.515784 0.00458963 0)
(0.102739 0.000192438 0)
(0.106348 -9.07533e-05 0)
(0.718626 -0.00589548 0)
(1.01848 -0.0137939 0)
(1.11002 -0.0165934 0)
(1.09941 -0.0146494 0)
(1.07879 -0.0114497 0)
(1.06426 -0.00777796 0)
(1.05395 -0.0035644 0)
(1.04663 0.00119864 0)
(1.04217 0.00646008 0)
(1.04149 0.0114269 0)
(1.04473 0.0153526 0)
(1.0516 0.0182729 0)
(1.06235 0.0205267 0)
(1.07881 0.0225463 0)
(1.09868 0.024062 0)
(1.07121 0.0225734 0)
(0.867717 0.0138876 0)
(0.489773 0.00409209 0)
(0.0970404 0.000175256 0)
(0.103501 -6.29883e-05 0)
(0.69811 -0.00464078 0)
(1.00279 -0.0114666 0)
(1.11002 -0.0143802 0)
(1.1048 -0.0126275 0)
(1.08406 -0.00939007 0)
(1.06921 -0.00568657 0)
(1.05862 -0.00146715 0)
(1.05099 0.0032433 0)
(1.04612 0.008355 0)
(1.04497 0.0130585 0)
(1.04782 0.016662 0)
(1.05446 0.0192354 0)
(1.06512 0.0211552 0)
(1.08171 0.0229144 0)
(1.09894 0.0240364 0)
(1.05816 0.0217607 0)
(0.83764 0.0128409 0)
(0.466292 0.00377001 0)
(0.0918402 0.000165441 0)
(0.101448 -3.73836e-05 0)
(0.681429 -0.00353716 0)
(0.988571 -0.00928682 0)
(1.10958 -0.0121162 0)
(1.11001 -0.0104727 0)
(1.08941 -0.00717364 0)
(1.07421 -0.00337797 0)
(1.0633 0.000912944 0)
(1.05528 0.00562786 0)
(1.0499 0.0106436 0)
(1.04819 0.0151151 0)
(1.05058 0.0184071 0)
(1.05694 0.0206318 0)
(1.06748 0.0222135 0)
(1.08412 0.0236982 0)
(1.09819 0.0243984 0)
(1.0434 0.021328 0)
(0.808604 0.0121832 0)
(0.444469 0.00358548 0)
(0.0869313 0.000161441 0)
(0.100128 -1.21163e-05 0)
(0.668278 -0.00251547 0)
(0.976207 -0.0071805 0)
(1.10902 -0.00974257 0)
(1.1152 -0.00812462 0)
(1.09494 -0.00472527 0)
(1.07935 -0.000772761 0)
(1.06805 0.00365264 0)
(1.05957 0.00843968 0)
(1.05357 0.0134118 0)
(1.05118 0.0176791 0)
(1.05302 0.0206667 0)
(1.05902 0.0225311 0)
(1.06942 0.0237607 0)
(1.08606 0.0249695 0)
(1.0962 0.0252043 0)
(1.02699 0.0212672 0)
(0.780165 0.0118618 0)
(0.423593 0.00351325 0)
(0.0821486 0.000162142 0)
(0.0995247 1.55707e-05 0)
(0.658505 -0.0015226 0)
(0.966012 -0.00507691 0)
(1.10865 -0.00719523 0)
(1.12049 -0.0055091 0)
(1.10073 -0.00195885 0)
(1.08472 0.00222058 0)
(1.07296 0.00685018 0)
(1.0639 0.0117808 0)
(1.05714 0.0167626 0)
(1.05394 0.0208506 0)
(1.05512 0.0235366 0)
(1.06071 0.0250269 0)
(1.07092 0.025894 0)
(1.08746 0.0267842 0)
(1.09292 0.0264672 0)
(1.00887 0.0216234 0)
(0.751826 0.0118508 0)
(0.403065 0.00353955 0)
(0.0773548 0.000167014 0)
(0.0996582 3.73249e-05 0)
(0.652085 -0.000514784 0)
(0.958291 -0.00290386 0)
(1.10884 -0.00440082 0)
(1.12605 -0.00253967 0)
(1.10687 0.00122559 0)
(1.0904 0.0057063 0)
(1.0781 0.0106237 0)
(1.06833 0.0157728 0)
(1.06067 0.0208199 0)
(1.05648 0.0247506 0)
(1.05686 0.027129 0)
(1.06197 0.0282419 0)
(1.07195 0.0287187 0)
(1.08808 0.0292349 0)
(1.08802 0.0282595 0)
(0.988842 0.0224202 0)
(0.723022 0.0121336 0)
(0.382336 0.00365446 0)
(0.0724256 0.000175523 0)
(0.100593 7.56436e-05 0)
(0.649129 0.000528698 0)
(0.953362 -0.00058128 0)
(1.10994 -0.00127758 0)
(1.13208 0.00087917 0)
(1.1135 0.00494296 0)
(1.09651 0.00981994 0)
(1.08355 0.0151151 0)
(1.07292 0.0205626 0)
(1.06416 0.0257316 0)
(1.0588 0.029522 0)
(1.05824 0.031576 0)
(1.06277 0.0322985 0)
(1.07245 0.0323594 0)
(1.08778 0.0324481 0)
(1.08127 0.0306712 0)
(0.966605 0.0237022 0)
(0.693133 0.0127029 0)
(0.360889 0.0038509 0)
(0.0672515 0.000187042 0)
(0.102498 0.000114072 0)
(0.649985 0.00171587 0)
(0.951576 0.00197087 0)
(1.1124 0.0022759 0)
(1.1388 0.00484097 0)
(1.12075 0.00934545 0)
(1.10316 0.0147244 0)
(1.08941 0.0204968 0)
(1.07775 0.0263292 0)
(1.06765 0.0316728 0)
(1.06088 0.0353299 0)
(1.05922 0.0370151 0)
(1.06305 0.0373369 0)
(1.07237 0.0369471 0)
(1.0863 0.0365427 0)
(1.07237 0.0337925 0)
(0.941716 0.0255026 0)
(0.66149 0.0135506 0)
(0.338239 0.00412026 0)
(0.0617371 0.000200866 0)
(0.105457 0.000165486 0)
(0.655113 0.00318324 0)
(0.953424 0.00491448 0)
(1.1167 0.00637451 0)
(1.14644 0.00951772 0)
(1.12878 0.0146177 0)
(1.11051 0.0206168 0)
(1.09579 0.026983 0)
(1.08286 0.0332907 0)
(1.07116 0.0388533 0)
(1.06271 0.0423584 0)
(1.05977 0.0436409 0)
(1.06275 0.0435264 0)
(1.07164 0.0426349 0)
(1.08349 0.0417114 0)
(1.06093 0.0377338 0)
(0.913586 0.0278629 0)
(0.627366 0.0146682 0)
(0.313929 0.00445281 0)
(0.0558051 0.00021601 0)
(0.10975 0.000232629 0)
(0.664907 0.00488343 0)
(0.95935 0.00838016 0)
(1.12333 0.011193 0)
(1.15526 0.0151101 0)
(1.13783 0.0209899 0)
(1.11872 0.0277581 0)
(1.10281 0.0348483 0)
(1.0883 0.0417175 0)
(1.07466 0.0475199 0)
(1.06425 0.0508276 0)
(1.05981 0.0516439 0)
(1.06181 0.0510521 0)
(1.07018 0.0495898 0)
(1.07944 0.048066 0)
(1.0464 0.0426071 0)
(0.881461 0.0308031 0)
(0.589983 0.0160286 0)
(0.287542 0.0048304 0)
(0.0494033 0.000230916 0)
(0.115722 0.000323167 0)
(0.680174 0.00700481 0)
(0.970011 0.0125744 0)
(1.13287 0.0169735 0)
(1.16567 0.021887 0)
(1.14814 0.0287838 0)
(1.12798 0.0364967 0)
(1.11056 0.0444465 0)
(1.09411 0.051942 0)
(1.07813 0.0579596 0)
(1.06543 0.0609787 0)
(1.05917 0.0612114 0)
(1.06016 0.0600998 0)
(1.06799 0.0580215 0)
(1.07384 0.0558003 0)
(1.02808 0.0484867 0)
(0.844426 0.0343093 0)
(0.54855 0.0175769 0)
(0.258758 0.00522359 0)
(0.0425218 0.000243418 0)
(0.123884 0.000453128 0)
(0.701863 0.00978041 0)
(0.986278 0.0178049 0)
(1.14598 0.0240608 0)
(1.17815 0.0302421 0)
(1.16005 0.0384573 0)
(1.13849 0.0473105 0)
(1.11914 0.0562407 0)
(1.10027 0.0643723 0)
(1.08148 0.0704992 0)
(1.06613 0.0730661 0)
(1.05784 0.0725755 0)
(1.0577 0.0708158 0)
(1.06494 0.0680484 0)
(1.06631 0.0648413 0)
(1.00503 0.0554214 0)
(0.801402 0.0383065 0)
(0.502327 0.0192109 0)
(0.227417 0.00558846 0)
(0.0352098 0.000250823 0)
(0.134974 0.000639275 0)
(0.731213 0.0135897 0)
(1.00931 0.0245415 0)
(1.16344 0.0330063 0)
(1.19331 0.040779 0)
(1.1739 0.0506901 0)
(1.15043 0.0608766 0)
(1.12855 0.0708419 0)
(1.10666 0.0794999 0)
(1.08455 0.0854949 0)
(1.06619 0.0873407 0)
(1.05573 0.0859507 0)
(1.05439 0.0834736 0)
(1.06067 0.0798248 0)
(1.05607 0.0754916 0)
(0.976053 0.0633706 0)
(0.751201 0.0426209 0)
(0.450757 0.0207685 0)
(0.193626 0.00586489 0)
(0.0275955 0.00025003 0)
(0.150247 0.000935084 0)
(0.770243 0.0190516 0)
(1.04077 0.0335772 0)
(1.18621 0.044756 0)
(1.21195 0.0547089 0)
(1.19003 0.0665312 0)
(1.16384 0.0781589 0)
(1.13863 0.089033 0)
(1.11302 0.0978892 0)
(1.08705 0.10331 0)
(1.0654 0.10403 0)
(1.05265 0.101477 0)
(1.05011 0.0981567 0)
(1.05491 0.0937422 0)
(1.04225 0.0877561 0)
(0.939585 0.0721123 0)
(0.692653 0.0469271 0)
(0.393681 0.0220108 0)
(0.157888 0.00597849 0)
(0.0199014 0.00023787 0)
(0.171927 0.001447 0)
(0.82224 0.0273209 0)
(1.08332 0.0464848 0)
(1.21542 0.0612006 0)
(1.23461 0.0739717 0)
(1.20853 0.0876053 0)
(1.17847 0.100477 0)
(1.14895 0.111751 0)
(1.11889 0.120133 0)
(1.0886 0.12427 0)
(1.06348 0.123298 0)
(1.04844 0.119243 0)
(1.04471 0.114891 0)
(1.04767 0.109572 0)
(1.02356 0.101493 0)
(0.893703 0.081187 0)
(0.624948 0.0507353 0)
(0.331736 0.0226512 0)
(0.121261 0.00585573 0)
(0.0124576 0.000211176 0)
(0.20345 0.00258388 0)
(0.892999 0.0411081 0)
(1.14049 0.0671338 0)
(1.25145 0.0859142 0)
(1.26105 0.10139 0)
(1.22875 0.116282 0)
(1.19348 0.129434 0)
(1.15869 0.13997 0)
(1.12357 0.146756 0)
(1.08869 0.148601 0)
(1.06009 0.145202 0)
(1.04291 0.139256 0)
(1.0381 0.133682 0)
(1.03832 0.127338 0)
(0.998182 0.116257 0)
(0.83617 0.0897891 0)
(0.548362 0.0534125 0)
(0.267096 0.0224895 0)
(0.0856592 0.0054817 0)
(0.00576982 0.000169504 0)
(0.24641 0.00891543 7.20719e-20)
(0.986539 0.068565 6.48031e-20)
(1.20995 0.101915 -2.29554e-20)
(1.29123 0.122528 0)
(1.28841 0.140598 -6.13328e-34)
(1.24854 0.154896 9.03215e-21)
(1.20729 0.166538 -1.65978e-20)
(1.16674 0.174902 0)
(1.12625 0.179001 3.48493e-34)
(1.08655 0.177754 -2.12165e-20)
(1.05433 0.171468 0)
(1.03497 0.163526 -2.55117e-20)
(1.02945 0.157049 -7.54541e-20)
(1.02549 0.150331 -3.5653e-20)
(0.961528 0.134438 -1.07583e-20)
(0.760264 0.0990609 -6.39818e-21)
(0.457726 0.0550875 0)
(0.198476 0.0218694 4.4577e-21)
(0.0511591 0.00510528 5.24092e-21)
(-0.000197462 0.000112417 9.31161e-20)
(0.276364 0.0244982 4.77352e-20)
(1.06392 0.111714 1.08425e-21)
(1.26723 0.151486 5.8628e-21)
(1.32695 0.172214 0)
(1.31246 0.190119 -3.02604e-20)
(1.26558 0.202243 -3.48878e-20)
(1.21844 0.211577 -1.65502e-20)
(1.17211 0.217477 -6.00114e-20)
(1.12609 0.218854 0)
(1.08125 0.214606 9.01881e-20)
(1.04508 0.205584 9.00328e-20)
(1.02338 0.195739 2.68407e-20)
(1.01557 0.187706 9.85693e-20)
(1.00176 0.17892 1.38888e-19)
(0.902831 0.155163 0)
(0.656217 0.108023 1.95945e-19)
(0.351118 0.055947 2.80292e-19)
(0.127464 0.0204375 3.10127e-19)
(0.0168511 0.00351883 -3.52829e-19)
(-0.0060969 -0.000507716 -6.54908e-21)
(0.277611 0.0408092 0)
(1.11302 0.167701 7.23259e-21)
(1.30601 0.212386 0)
(1.35481 0.232576 -3.57164e-20)
(1.33143 0.247359 0)
(1.27867 0.255561 -6.69079e-20)
(1.22602 0.261143 3.33939e-20)
(1.17422 0.263448 -1.19203e-19)
(1.12296 0.261197 -3.18485e-21)
(1.0733 0.253262 4.62844e-20)
(1.03345 0.241017 1.97954e-19)
(1.00961 0.228947 -3.7578e-22)
(0.999319 0.219108 -7.15688e-20)
(0.97558 0.207036 -1.3064e-19)
(0.848877 0.174667 1.54646e-19)
(0.579608 0.115528 -2.73422e-19)
(0.286589 0.0565428 -3.59664e-20)
(0.0888106 0.01875 0)
(-0.00166155 0.0011698 -3.17959e-23)
(-0.00948636 -0.00133618 0)
(0.271017 0.0547915 6.00127e-20)
(1.13959 0.226889 -3.47829e-20)
(1.33 0.277836 -3.37451e-20)
(1.37336 0.298139 1.59452e-20)
(1.34387 0.308893 -2.73029e-20)
(1.28671 0.312512 1.38904e-19)
(1.22953 0.313633 6.90368e-20)
(1.17303 0.311653 0)
(1.11713 0.305171 -2.28381e-19)
(1.06307 0.293005 0)
(1.01987 0.277101 -1.03275e-19)
(0.99402 0.262404 -1.28759e-19)
(0.981227 0.250314 -7.77698e-20)
(0.949002 0.234136 -9.48187e-20)
(0.80456 0.192965 0)
(0.528567 0.123729 0)
(0.250023 0.0586215 -2.33443e-19)
(0.0665552 0.0172278 4.59274e-20)
(-0.0139975 -0.00166951 -2.67813e-20)
(-0.0123043 -0.00238765 -3.08569e-20)
(0.263039 0.0670323 8.59258e-22)
(1.15115 0.285859 0)
(1.34319 0.344123 5.54851e-20)
(1.38356 0.365035 4.15534e-20)
(1.34985 0.371837 6.50721e-20)
(1.28949 0.370857 0)
(1.22879 0.367386 6.59355e-20)
(1.16843 0.360905 1.30347e-19)
(1.10854 0.349919 1.15859e-19)
(1.05058 0.333218 2.17571e-19)
(1.00429 0.313335 0)
(0.976514 0.295706 -2.76992e-19)
(0.961389 0.281008 -1.67486e-19)
(0.922228 0.260429 -9.91197e-20)
(0.769105 0.211095 6.06893e-19)
(0.496262 0.133167 7.19479e-20)
(0.230447 0.0620366 3.36841e-19)
(0.054352 0.0160565 -1.58698e-18)
(-0.0222985 -0.00475042 9.34411e-19)
(-0.0147481 -0.00361392 -1.10946e-18)
(0.255271 0.0780333 3.14541e-20)
(1.15306 0.342741 -1.10083e-21)
(1.34848 0.409338 -2.69778e-21)
(1.38704 0.431366 -3.15499e-20)
(1.3503 0.434456 -4.86829e-20)
(1.28757 0.429046 3.58375e-21)
(1.22409 0.421123 -7.15392e-20)
(1.16058 0.410194 1.33485e-19)
(1.09729 0.394694 -2.49059e-19)
(1.03587 0.373366 0)
(0.986723 0.349326 -1.24909e-19)
(0.957018 0.328539 -3.1345e-21)
(0.939627 0.311021 -1.83374e-19)
(0.895555 0.286122 0)
(0.740146 0.229567 -1.3121e-19)
(0.476049 0.144067 -3.0975e-19)
(0.221271 0.0669382 8.22136e-19)
(0.0497421 0.0157795 -8.09582e-19)
(-0.0264473 -0.0075053 1.14258e-18)
(-0.0164719 -0.00485698 -1.16975e-18)
(0.248583 0.088123 -8.38061e-22)
(1.14889 0.396832 9.99262e-21)
(1.34804 0.472469 9.64867e-21)
(1.38523 0.495938 7.67161e-21)
(1.34631 0.495712 -2.35052e-20)
(1.28178 0.486147 0)
(1.21607 0.474014 -6.39882e-20)
(1.14992 0.458823 -1.38989e-19)
(1.08369 0.438938 -1.28672e-19)
(1.01915 0.413039 0)
(0.967325 0.384816 -1.28838e-19)
(0.935683 0.360772 -1.61036e-19)
(0.916177 0.340331 1.98903e-19)
(0.868894 0.31118 -1.20944e-19)
(0.715447 0.248512 -5.72287e-19)
(0.462719 0.156521 3.37767e-19)
(0.219089 0.0733134 9.98054e-20)
(0.0505361 0.0166263 0)
(-0.0269462 -0.00939949 -1.1036e-18)
(-0.0173083 -0.00593822 -3.99182e-20)
(0.243106 0.0976298 1.08274e-20)
(1.14097 0.447939 -1.61959e-20)
(1.34339 0.533058 -7.86122e-21)
(1.37939 0.558032 3.45929e-20)
(1.33882 0.554948 -7.71889e-20)
(1.27293 0.541592 1.16348e-19)
(1.20541 0.525544 1.38009e-19)
(1.13702 0.506342 -2.21774e-19)
(1.06818 0.482284 8.12376e-20)
(1.00078 0.451962 -5.33776e-19)
(0.946405 0.419621 -1.46621e-19)
(0.912839 0.39232 0)
(0.89132 0.368965 2.16072e-19)
(0.84183 0.335773 2.59468e-19)
(0.692625 0.267884 3.08723e-19)
(0.452371 0.169997 -3.67661e-19)
(0.21933 0.0809398 -1.08256e-19)
(0.0543866 0.0189295 1.27413e-19)
(-0.0244467 -0.0101097 0)
(-0.01719 -0.00667346 -8.69025e-20)
(0.238776 0.10671 -1.59747e-19)
(1.13102 0.496169 9.20918e-20)
(1.33578 0.590889 1.17697e-20)
(1.37055 0.61732 1.40633e-20)
(1.32867 0.611777 -2.89262e-20)
(1.26174 0.594998 -8.19957e-21)
(1.19272 0.575381 -1.51848e-19)
(1.12239 0.552473 -8.05025e-20)
(1.05121 0.524498 -2.23945e-19)
(0.981144 0.48996 6.52411e-22)
(0.92432 0.453618 -4.58079e-19)
(0.888845 0.423127 3.90761e-19)
(0.865365 0.396895 -2.38234e-19)
(0.814336 0.359922 2.86782e-19)
(0.670494 0.286988 0)
(0.442426 0.184001 -2.00659e-19)
(0.220076 0.0893781 6.53181e-22)
(0.0595233 0.0224523 -5.57551e-19)
(-0.0201903 -0.0097442 -8.13323e-20)
(-0.016378 -0.00708351 0)
(0.235503 0.115509 0)
(1.12001 0.541753 1.05086e-19)
(1.32618 0.646408 4.80799e-20)
(1.35955 0.673676 -5.58255e-21)
(1.31654 0.665999 -4.42388e-20)
(1.24879 0.646153 0)
(1.17855 0.623314 -6.53631e-20)
(1.10653 0.597028 -2.07519e-21)
(1.0332 0.565437 4.80372e-19)
(0.96061 0.526927 -7.29445e-20)
(0.901391 0.486737 -3.31371e-19)
(0.864034 0.453128 2.0271e-19)
(0.83873 0.424103 -4.45112e-21)
(0.786466 0.383361 3.05615e-19)
(0.647899 0.305646 1.8714e-19)
(0.431292 0.198015 -4.3375e-19)
(0.219672 0.0980393 5.11905e-19)
(0.0643803 0.0267168 1.5164e-19)
(-0.0151495 -0.0084918 6.21197e-19)
(-0.0150625 -0.00717089 -1.63527e-18)
(0.233189 0.124224 -5.15541e-20)
(1.10869 0.584877 7.17809e-20)
(1.31516 0.698925 -4.99651e-20)
(1.34702 0.727095 -1.01339e-20)
(1.30301 0.717523 0)
(1.23463 0.694935 -4.54007e-20)
(1.16336 0.669221 2.23861e-19)
(1.08983 0.639894 1.75227e-19)
(1.01452 0.605006 0)
(0.939476 0.562797 -1.05706e-18)
(0.8779 0.518916 8.98958e-19)
(0.838705 0.482259 0)
(0.811634 0.450439 2.7964e-19)
(0.758241 0.405932 -4.38934e-21)
(0.624286 0.323414 -6.02702e-19)
(0.418349 0.211256 2.34413e-19)
(0.216971 0.106491 0)
(0.0678171 0.0312757 8.20279e-19)
(-0.0103679 -0.00671138 0)
(-0.0135392 -0.00701736 -7.76036e-19)
(0.231718 0.132883 6.13608e-20)
(1.09747 0.625809 9.21208e-20)
(1.30338 0.748501 -4.97241e-20)
(1.33341 0.777599 0)
(1.28855 0.766334 -2.63479e-20)
(1.21968 0.741309 0)
(1.14754 0.713041 -2.14835e-19)
(1.07266 0.681006 -7.86572e-20)
(0.995463 0.643158 8.37335e-20)
(0.918032 0.597542 -5.23349e-19)
(0.854076 0.550136 9.25271e-20)
(0.813056 0.510471 0)
(0.784302 0.475791 -5.98205e-19)
(0.729728 0.427346 4.17389e-21)
(0.599371 0.339902 0)
(0.403482 0.223112 1.72339e-21)
(0.21171 0.114026 7.535e-19)
(0.0690914 0.0354315 -7.10016e-19)
(-0.00666282 -0.00491845 2.0837e-19)
(-0.0120942 -0.00674324 0)
(0.230759 0.141416 0)
(1.08666 0.664658 1.10236e-19)
(1.29107 0.795301 7.13491e-20)
(1.31917 0.825245 -5.06763e-21)
(1.27354 0.812455 2.86142e-22)
(1.20429 0.785278 -1.02174e-19)
(1.13141 0.754761 8.23902e-20)
(1.0553 0.720342 -9.54099e-20)
(0.976328 0.679867 3.77206e-19)
(0.89651 0.631164 -8.38183e-19)
(0.830106 0.580409 -8.4865e-21)
(0.787229 0.53772 -2.60712e-19)
(0.756822 0.500031 9.72711e-19)
(0.701036 0.447378 -5.07867e-21)
(0.573522 0.354695 -4.70162e-19)
(0.386538 0.233257 -8.31582e-19)
(0.204144 0.120105 0)
(0.0681601 0.0386384 0)
(-0.00431546 -0.0035114 2.25244e-19)
(-0.0108785 -0.00647501 -1.30188e-19)
(0.230545 0.149948 8.51602e-20)
(1.0765 0.701323 -2.49561e-19)
(1.27843 0.83948 -7.63826e-20)
(1.30463 0.870091 0)
(1.2583 0.855946 -2.97582e-21)
(1.18875 0.826873 -8.2731e-20)
(1.11524 0.794394 1.91848e-19)
(1.03802 0.757901 3.68562e-19)
(0.95734 0.715137 4.88614e-19)
(0.875123 0.663681 -6.84203e-19)
(0.806157 0.609772 -7.76283e-19)
(0.761322 0.564018 6.9801e-19)
(0.729252 0.52305 0)
(0.672164 0.465714 -2.14637e-19)
(0.546922 0.367389 -5.08373e-19)
(0.367998 0.241183 -5.98968e-19)
(0.194424 0.124436 -7.04452e-19)
(0.0653909 0.0405367 2.07358e-19)
(-0.00320963 -0.0027033 -1.21345e-19)
(-0.00992981 -0.00627554 6.16688e-22)
(0.230461 0.158428 0)
(1.06708 0.736074 0)
(1.26575 0.881131 4.84506e-21)
(1.29002 0.912255 0)
(1.24305 0.8969 -2.80693e-20)
(1.17328 0.866157 4.70077e-20)
(1.09926 0.831973 0)
(1.02101 0.793699 4.24701e-20)
(0.9387 0.748976 8.13573e-19)
(0.854067 0.695124 -1.57548e-18)
(0.782375 0.638291 0)
(0.735391 0.589411 -4.50468e-19)
(0.701526 0.544777 -5.96039e-21)
(0.643035 0.482097 -4.39328e-21)
(0.519775 0.377631 5.45142e-19)
(0.34808 0.246516 4.33229e-23)
(0.183073 0.12665 -1.51912e-18)
(0.0611108 0.0411082 4.46379e-19)
(-0.00313513 -0.00250803 1.31399e-19)
(-0.00922444 -0.00614911 0)
(0.23055 0.16674 -3.37687e-19)
(1.05817 0.769187 -1.67199e-19)
(1.25313 0.920341 -2.21322e-19)
(1.27553 0.951866 2.22339e-19)
(1.22799 0.935394 -7.958e-20)
(1.15808 0.903196 0)
(1.08362 0.867545 1.11106e-19)
(1.00445 0.827764 -9.60482e-20)
(0.920576 0.781406 7.82363e-21)
(0.833517 0.725534 1.1679e-19)
(0.758893 0.666049 1.00734e-18)
(0.709456 0.613999 -1.57918e-19)
(0.673555 0.565211 -6.01442e-19)
(0.613552 0.496294 -2.50532e-19)
(0.492159 0.384999 2.95588e-19)
(0.327248 0.248939 3.42984e-22)
(0.170721 0.126587 4.09397e-19)
(0.0558384 0.040353 -9.61314e-19)
(-0.00369983 -0.00281706 1.13134e-18)
(-0.00868059 -0.00607471 1.62456e-19)
(0.230608 0.174827 1.27713e-19)
(1.04976 0.800729 -9.38591e-20)
(1.24073 0.957217 1.22794e-20)
(1.26129 0.989062 1.41257e-19)
(1.21325 0.971541 3.0269e-20)
(1.14326 0.938064 -7.35941e-20)
(1.06846 0.901164 2.88069e-20)
(0.988463 0.86012 -3.98241e-19)
(0.903109 0.812433 -8.93984e-19)
(0.813615 0.754926 -9.38667e-19)
(0.735853 0.693138 0)
(0.68355 0.637928 -6.96588e-19)
(0.645209 0.584432 8.6856e-19)
(0.583447 0.508107 0)
(0.464088 0.389048 -6.3367e-19)
(0.30636 0.248002 3.75394e-19)
(0.158381 0.12407 -4.40358e-19)
(0.0506109 0.0384853 -5.17269e-19)
(-0.00447815 -0.00339616 -9.10741e-19)
(-0.00827661 -0.00604333 -6.99921e-19)
(0.231001 0.182791 -1.43695e-19)
(1.0417 0.830699 1.00283e-19)
(1.22859 0.991834 2.3021e-19)
(1.24738 1.02393 2.05532e-19)
(1.19894 1.00544 -5.58891e-20)
(1.12894 0.970851 -2.82422e-20)
(1.05388 0.932881 9.90345e-20)
(0.973146 0.890812 -4.05521e-19)
(0.886393 0.842081 -5.29291e-19)
(0.794493 0.783325 9.82359e-19)
(0.713383 0.719642 2.21657e-18)
(0.657728 0.661376 0)
(0.616345 0.60261 0)
(0.552344 0.517472 -2.88362e-19)
(0.435294 0.389261 0)
(0.285832 0.242701 8.06213e-19)
(0.147801 0.118201 9.46142e-19)
(0.0475354 0.0352945 0)
(-0.00433186 -0.0040876 0)
(-0.00804886 -0.00608227 7.52134e-19)
(0.231113 0.190334 1.63008e-19)
(1.03402 0.859097 1.34266e-19)
(1.2168 1.02432 1.66773e-19)
(1.23388 1.0566 -1.9683e-19)
(1.18513 1.03719 -7.34706e-20)
(1.11517 1.00164 1.21425e-20)
(1.03995 0.96276 -1.33637e-19)
(0.958571 0.919868 -1.4981e-21)
(0.870519 0.870359 -1.01688e-20)
(0.776256 0.810734 -8.47684e-21)
(0.691631 0.745627 1.14213e-18)
(0.632089 0.68452 0)
(0.586868 0.620012 8.82491e-19)
(0.519775 0.524532 6.1654e-19)
(0.405 0.385299 1.4794e-18)
(0.265303 0.231437 4.34664e-19)
(0.140771 0.105833 -5.08765e-19)
(0.0516707 0.027039 -2.97609e-19)
(0.00358778 -0.00642384 0)
(-0.00581852 -0.00554538 8.07875e-19)
(0.231557 0.197899 -3.65113e-19)
(1.02667 0.886014 0)
(1.20534 1.05472 1.95362e-19)
(1.22083 1.08714 -1.66238e-19)
(1.17189 1.0669 9.97254e-20)
(1.10202 1.0305 1.69802e-20)
(1.02671 0.990858 2.445e-19)
(0.944784 0.947323 -3.37635e-20)
(0.855538 0.897277 0)
(0.75899 0.83713 -1.08157e-18)
(0.670745 0.771124 -2.4836e-18)
(0.606776 0.707537 1.02894e-19)
(0.556784 0.636973 1.22152e-18)
(0.485354 0.529736 0)
(0.371879 0.377471 9.99795e-19)
(0.242375 0.212662 0)
(0.13497 0.0799662 0)
(0.0687085 -0.0022494 -3.21832e-19)
(0.0427066 -0.0200925 0)
(0.0254525 0.00881645 2.16511e-19)
(0.231669 0.204886 -4.07156e-19)
(1.01961 0.911788 0)
(1.1942 1.08326 3.24012e-19)
(1.20819 1.11579 0)
(1.15917 1.09484 -6.0422e-20)
(1.08941 1.05774 0)
(1.01411 1.01748 9.37044e-21)
(0.931687 0.973513 5.52559e-20)
(0.841326 0.923192 6.63079e-20)
(0.742524 0.862893 -1.18281e-18)
(0.650528 0.796571 7.40446e-20)
(0.581524 0.731089 8.30555e-19)
(0.525597 0.654343 1.19174e-18)
(0.44808 0.533735 1.60894e-19)
(0.333786 0.367111 7.85138e-19)
(0.211398 0.187369 0)
(0.117783 0.0355554 1.07207e-18)
(0.065976 -0.042111 -6.20186e-19)
(0.0392351 0.0407796 7.16396e-19)
(-0.0596211 0.43797 -8.48806e-19)
(0.23178 0.211688 3.3682e-19)
(1.01258 0.936214 5.30275e-19)
(1.1833 1.11024 0)
(1.19582 1.14299 9.50939e-21)
(1.14677 1.12158 1.7846e-19)
(1.07708 1.08403 -1.04373e-19)
(1.00182 1.04343 7.57093e-20)
(0.918861 0.999367 0)
(0.82734 0.949184 4.32877e-19)
(0.726174 0.889315 -6.10394e-20)
(0.630047 0.823437 0)
(0.555024 0.756843 0)
(0.491206 0.673505 1.07181e-18)
(0.405372 0.53697 -4.98987e-19)
(0.287351 0.356031 -7.99025e-19)
(0.167183 0.158448 0)
(0.0694455 0.0498055 5.37518e-19)
(0.00468712 0.437757 -6.12912e-19)
(0.0304508 1.90095 -3.35146e-19)
(0.0610723 2.81396 -4.43129e-19)
(0.231699 0.217761 -2.50684e-19)
(1.00569 0.959445 -6.77645e-19)
(1.17265 1.13566 1.91145e-19)
(1.18372 1.16862 1.59793e-19)
(1.13473 1.1469 0)
(1.06511 1.1091 -9.35892e-20)
(0.990048 1.06839 8.95414e-20)
(0.906503 1.02446 -2.6049e-20)
(0.813859 0.97474 6.5071e-20)
(0.710332 0.915798 1.1261e-18)
(0.609913 0.851094 1.25707e-18)
(0.528216 0.784518 9.35871e-19)
(0.454371 0.694696 1.08208e-18)
(0.358567 0.538623 -1.17838e-18)
(0.237984 0.348301 -1.21126e-18)
(0.113356 0.206354 0)
(0.0412676 0.842171 0)
(0.095674 2.55885 2.93975e-19)
(0.0987508 3.20532 0)
(0.101612 3.38911 6.41856e-19)
(0.234637 0.22346 0)
(0.999545 0.981765 0)
(1.16199 1.15936 0)
(1.17168 1.19253 4.79895e-20)
(1.12268 1.17053 1.62132e-19)
(1.05329 1.13278 -9.30436e-20)
(0.978695 1.09225 5.23327e-20)
(0.894558 1.04867 -2.49818e-20)
(0.800834 0.999708 5.3319e-19)
(0.695013 0.942195 -1.70122e-20)
(0.590261 0.879424 2.48417e-18)
(0.501415 0.814013 -1.08565e-19)
(0.41518 0.719067 1.30934e-19)
(0.309927 0.536743 1.71274e-19)
(0.177004 0.36006 -8.74969e-21)
(0.0949601 0.966876 3.5963e-21)
(0.134938 2.73218 -1.57388e-18)
(0.141978 3.29441 -5.81618e-19)
(0.132008 3.42507 2.88647e-19)
(0.120444 3.44711 -3.13616e-19)
(0.154895 0.175999 1.42334e-19)
(0.988741 1.00605 0)
(1.15097 1.18151 -3.7014e-19)
(1.16014 1.21515 -4.27826e-19)
(1.11138 1.1932 3.80476e-19)
(1.04247 1.15573 1.07451e-19)
(0.967638 1.11508 -4.65336e-20)
(0.883109 1.0721 2.55063e-19)
(0.788408 1.02424 -4.30932e-19)
(0.680499 0.96867 0)
(0.571491 0.908631 1.21653e-18)
(0.475147 0.84513 -7.64769e-19)
(0.376115 0.749687 0)
(0.253194 0.532419 1.55564e-19)
(0.136673 0.721125 3.76397e-19)
(0.15051 2.51055 -4.34926e-19)
(0.204837 3.32212 4.79126e-19)
(0.186469 3.43628 2.5636e-19)
(0.155156 3.45794 2.80077e-19)
(0.134342 3.46834 4.4486e-19)
(0.274253 0.260995 -2.52371e-19)
(0.972061 1.01524 0)
(1.13249 1.20683 4.08188e-19)
(1.14486 1.2456 4.64892e-19)
(1.09385 1.2263 -4.15704e-19)
(1.02419 1.18921 -1.50968e-19)
(0.948355 1.15017 6.47885e-21)
(0.863298 1.10843 2.04413e-20)
(0.76722 1.06277 4.03415e-19)
(0.656421 1.01121 9.60725e-19)
(0.54179 0.957666 6.80525e-20)
(0.433679 0.89832 6.80554e-19)
(0.303448 0.783544 1.22655e-19)
(0.209389 0.900162 -1.57116e-19)
(0.224572 2.36146 -3.48352e-19)
(0.284483 3.32364 3.21535e-19)
(0.267967 3.46302 -3.58669e-19)
(0.232953 3.48545 -2.06657e-19)
(0.196906 3.51322 -1.61793e-19)
(0.146473 3.50761 -1.55722e-20)
(0.263263 0.258453 0)
(0.969591 1.03796 1.17444e-19)
(1.1239 1.23026 -8.44419e-20)
(1.13407 1.26927 -5.55446e-20)
(1.08283 1.24948 -2.87643e-19)
(1.01311 1.21259 1.56278e-19)
(0.936956 1.17371 1.12654e-20)
(0.851665 1.13279 1.77421e-20)
(0.754988 1.08862 -4.15978e-19)
(0.642738 1.03996 -2.65498e-20)
(0.524971 0.991352 -2.19692e-18)
(0.410931 0.935816 9.7579e-20)
(0.28338 0.848956 -1.1498e-19)
(0.251112 1.4793 -1.45374e-19)
(0.325456 3.10468 3.50607e-20)
(0.344246 3.46034 3.02513e-22)
(0.303871 3.51572 5.07262e-19)
(0.267242 3.54319 2.3951e-19)
(0.219088 3.56664 -4.49462e-20)
(0.161961 3.56302 -6.92182e-20)
(0.247657 0.256535 2.94938e-19)
(0.96564 1.06322 8.05617e-19)
(1.1149 1.25573 -2.42684e-19)
(1.12264 1.29431 -2.10216e-19)
(1.07119 1.27404 0)
(1.0016 1.23718 2.7797e-19)
(0.925414 1.19855 4.54071e-20)
(0.840165 1.15842 1.48081e-20)
(0.743213 1.11585 -4.69244e-20)
(0.630063 1.07039 -8.57795e-19)
(0.510066 1.02717 -1.00868e-18)
(0.391828 0.974921 -7.8939e-19)
(0.285269 0.980614 -8.7736e-19)
(0.321794 2.2144 8.97523e-19)
(0.412738 3.37233 7.2421e-19)
(0.388761 3.51692 0)
(0.343127 3.56212 0)
(0.30522 3.60262 -3.45935e-20)
(0.255692 3.6612 0)
(0.174843 3.63812 -1.93514e-20)
(0.237285 0.258396 -4.42892e-19)
(0.959612 1.08937 -6.86152e-19)
(1.10444 1.2824 0)
(1.10985 1.32005 1.1322e-20)
(1.05827 1.29919 -3.11197e-19)
(0.988961 1.26227 4.48882e-19)
(0.913085 1.22393 4.61228e-20)