0.490941 	1.18693 	0.00611307 	3.00277 	0
0.561075 	1.18693 	0.00611307 	3.00277 	0
0.63121 	1.18693 	0.00611307 	3.00277 	0
0.701344 	1.18693 	0.00611307 	3.00277 	0
0.771478 	1.18693 	0.00611307 	3.00277 	0
0.841613 	1.18693 	0.00611307 	3.00277 	0
0.911747 	1.18693 	0.00611307 	3.00277 	0
0.981881 	1.18693 	0.00611307 	3.00277 	0
1.05202 	1.18693 	0.00611307 	3.00277 	0
1.12215 	1.18693 	0.00611307 	3.00277 	0
1.19228 	1.18693 	0.00611307 	3.00277 	0
1.26242 	1.16079 	0.0114939 	3.00802 	0
1.33255 	1.16079 	0.0114939 	3.00802 	0
1.40269 	1.16079 	0.0114939 	3.00802 	0
1.47282 	1.16079 	0.0114939 	3.00802 	0
1.54296 	1.16079 	0.0114939 	3.00802 	0
1.61309 	1.16079 	0.0114939 	3.00802 	0
1.68323 	1.16079 	0.0114939 	3.00802 	0
1.75336 	1.16079 	0.0114939 	3.00802 	0
1.82349 	1.11107 	0.0148356 	3.02387 	4.25626e-19
1.89363 	1.11107 	0.0148356 	3.02387 	4.25626e-19
1.96376 	1.11107 	0.0148356 	3.02387 	4.25626e-19
2.0339 	1.11107 	0.0148356 	3.02387 	4.25626e-19
2.10403 	1.11107 	0.0148356 	3.02387 	4.25626e-19
2.17417 	1.11107 	0.0148356 	3.02387 	4.25626e-19
2.2443 	1.11107 	0.0148356 	3.02387 	4.25626e-19
2.31443 	1.11107 	0.0148356 	3.02387 	4.25626e-19
2.38457 	1.11107 	0.0148356 	3.02387 	4.25626e-19
2.4547 	1.11107 	0.0148356 	3.02387 	4.25626e-19
2.52484 	1.11107 	0.0148356 	3.02387 	4.25626e-19
2.59497 	1.07632 	0.0073409 	3.03675 	-6.75923e-19
2.66511 	1.07632 	0.0073409 	3.03675 	-6.75923e-19
2.73524 	1.07632 	0.0073409 	3.03675 	-6.75923e-19
2.80538 	1.07632 	0.0073409 	3.03675 	-6.75923e-19
2.87551 	1.07632 	0.0073409 	3.03675 	-6.75923e-19
2.94564 	1.07632 	0.0073409 	3.03675 	-6.75923e-19
3.01578 	1.07632 	0.0073409 	3.03675 	-6.75923e-19
3.08591 	1.07632 	0.0073409 	3.03675 	-6.75923e-19
3.15605 	1.07632 	0.0073409 	3.03675 	-6.75923e-19
3.22618 	1.07632 	0.0073409 	3.03675 	-6.75923e-19
3.29632 	1.04376 	0.0201765 	3.04343 	6.83819e-19
3.36645 	1.04376 	0.0201765 	3.04343 	6.83819e-19
3.43659 	1.04376 	0.0201765 	3.04343 	6.83819e-19
3.50672 	1.04376 	0.0201765 	3.04343 	6.83819e-19
3.57685 	1.04376 	0.0201765 	3.04343 	6.83819e-19
3.64699 	1.04376 	0.0201765 	3.04343 	6.83819e-19
3.71712 	1.04376 	0.0201765 	3.04343 	6.83819e-19
3.78726 	1.04376 	0.0201765 	3.04343 	6.83819e-19
3.85739 	1.04376 	0.0201765 	3.04343 	6.83819e-19
3.92753 	1.04376 	0.0201765 	3.04343 	6.83819e-19
3.99766 	1.04376 	0.0201765 	3.04343 	6.83819e-19
4.06779 	1.02547 	0.00366802 	3.05019 	-1.92304e-20
4.13793 	1.02547 	0.00366802 	3.05019 	-1.92304e-20
4.20806 	1.02547 	0.00366802 	3.05019 	-1.92304e-20
4.2782 	1.02547 	0.00366802 	3.05019 	-1.92304e-20
4.34833 	1.02547 	0.00366802 	3.05019 	-1.92304e-20
4.41847 	1.02547 	0.00366802 	3.05019 	-1.92304e-20
4.4886 	1.00049 	0.0166698 	3.05788 	0
4.55874 	1.00049 	0.0166698 	3.05788 	0
4.62887 	1.00049 	0.0166698 	3.05788 	0
4.699 	1.00049 	0.0166698 	3.05788 	0
4.76914 	1.00049 	0.0166698 	3.05788 	0
4.83927 	1.00049 	0.0166698 	3.05788 	0
4.90941 	1.00049 	0.0166698 	3.05788 	0
4.97954 	1.00049 	0.0166698 	3.05788 	0
5.04968 	1.00049 	0.0166698 	3.05788 	0
5.11981 	1.00049 	0.0166698 	3.05788 	0
5.18994 	0.978257 	0.00569231 	3.06477 	-9.11077e-21
5.26008 	0.978257 	0.00569231 	3.06477 	-9.11077e-21
5.33021 	0.978257 	0.00569231 	3.06477 	-9.11077e-21
5.40035 	0.978257 	0.00569231 	3.06477 	-9.11077e-21
5.47048 	0.978257 	0.00569231 	3.06477 	-9.11077e-21
5.54062 	0.978257 	0.00569231 	3.06477 	-9.11077e-21
5.61075 	0.978257 	0.00569231 	3.06477 	-9.11077e-21
5.68089 	0.949324 	0.0111281 	3.07432 	0
5.75102 	0.949324 	0.0111281 	3.07432 	0
5.82115 	0.949324 	0.0111281 	3.07432 	0
5.89129 	0.949324 	0.0111281 	3.07432 	0
5.96142 	0.949324 	0.0111281 	3.07432 	0
6.03156 	0.949324 	0.0111281 	3.07432 	0
6.10169 	0.949324 	0.0111281 	3.07432 	0
6.17183 	0.949324 	0.0111281 	3.07432 	0
6.24196 	0.949324 	0.0111281 	3.07432 	0
6.3121 	0.920193 	0.00732268 	3.08271 	0
6.38223 	0.920193 	0.00732268 	3.08271 	0
6.45236 	0.920193 	0.00732268 	3.08271 	0
6.5225 	0.920193 	0.00732268 	3.08271 	0
6.59263 	0.920193 	0.00732268 	3.08271 	0
6.66277 	0.920193 	0.00732268 	3.08271 	0
6.7329 	0.920193 	0.00732268 	3.08271 	0
6.80304 	0.920193 	0.00732268 	3.08271 	0
6.87317 	0.894827 	0.00623583 	3.091 	3.07219e-19
6.9433 	0.894827 	0.00623583 	3.091 	3.07219e-19
7.01344 	0.894827 	0.00623583 	3.091 	3.07219e-19
7.08357 	0.894827 	0.00623583 	3.091 	3.07219e-19
7.15371 	0.894827 	0.00623583 	3.091 	3.07219e-19
7.22384 	0.894827 	0.00623583 	3.091 	3.07219e-19
7.29398 	0.894827 	0.00623583 	3.091 	3.07219e-19
7.36411 	0.894827 	0.00623583 	3.091 	3.07219e-19
7.43425 	0.894827 	0.00623583 	3.091 	3.07219e-19
7.50438 	0.862682 	0.00868041 	3.09943 	-2.28921e-18
7.57451 	0.862682 	0.00868041 	3.09943 	-2.28921e-18
7.64465 	0.862682 	0.00868041 	3.09943 	-2.28921e-18
7.71478 	0.862682 	0.00868041 	3.09943 	-2.28921e-18
7.78492 	0.862682 	0.00868041 	3.09943 	-2.28921e-18
7.85505 	0.862682 	0.00868041 	3.09943 	-2.28921e-18
7.92519 	0.862682 	0.00868041 	3.09943 	-2.28921e-18
7.99532 	0.862682 	0.00868041 	3.09943 	-2.28921e-18
8.06545 	0.844044 	0.00229158 	3.10648 	2.2329e-18
8.13559 	0.844044 	0.00229158 	3.10648 	2.2329e-18
8.20572 	0.844044 	0.00229158 	3.10648 	2.2329e-18
8.27586 	0.844044 	0.00229158 	3.10648 	2.2329e-18
8.34599 	0.844044 	0.00229158 	3.10648 	2.2329e-18
8.41613 	0.844044 	0.00229158 	3.10648 	2.2329e-18
8.48626 	0.844044 	0.00229158 	3.10648 	2.2329e-18
8.5564 	0.844044 	0.00229158 	3.10648 	2.2329e-18
8.62653 	0.844044 	0.00229158 	3.10648 	2.2329e-18
8.69666 	0.813387 	0.016902 	3.11786 	2.06815e-18
8.7668 	0.813387 	0.016902 	3.11786 	2.06815e-18
8.83693 	0.813387 	0.016902 	3.11786 	2.06815e-18
8.90707 	0.813387 	0.016902 	3.11786 	2.06815e-18
8.9772 	0.813387 	0.016902 	3.11786 	2.06815e-18
9.04734 	0.813387 	0.016902 	3.11786 	2.06815e-18
9.11747 	0.813387 	0.016902 	3.11786 	2.06815e-18
9.18761 	0.813387 	0.016902 	3.11786 	2.06815e-18
9.25774 	0.783112 	0.00233299 	3.11848 	-1.93132e-18
9.32787 	0.783112 	0.00233299 	3.11848 	-1.93132e-18
9.39801 	0.783112 	0.00233299 	3.11848 	-1.93132e-18
9.46814 	0.783112 	0.00233299 	3.11848 	-1.93132e-18
9.53828 	0.783112 	0.00233299 	3.11848 	-1.93132e-18
9.60841 	0.783112 	0.00233299 	3.11848 	-1.93132e-18
9.67855 	0.783112 	0.00233299 	3.11848 	-1.93132e-18
9.74868 	0.783112 	0.00233299 	3.11848 	-1.93132e-18
9.81881 	0.765735 	0.016057 	3.12981 	-5.93263e-19
9.88895 	0.765735 	0.016057 	3.12981 	-5.93263e-19
9.95908 	0.765735 	0.016057 	3.12981 	-5.93263e-19
10.0292 	0.765735 	0.016057 	3.12981 	-5.93263e-19
10.0994 	0.765735 	0.016057 	3.12981 	-5.93263e-19
10.1695 	0.765735 	0.016057 	3.12981 	-5.93263e-19
10.2396 	0.765735 	0.016057 	3.12981 	-5.93263e-19
10.3098 	0.765735 	0.016057 	3.12981 	-5.93263e-19
10.3799 	0.765735 	0.016057 	3.12981 	-5.93263e-19
10.45 	0.765735 	0.016057 	3.12981 	-5.93263e-19
10.5202 	0.765735 	0.016057 	3.12981 	-5.93263e-19
10.5903 	0.765735 	0.016057 	3.12981 	-5.93263e-19
10.6604 	0.788829 	0.0143702 	3.12584 	8.73166e-19
10.7306 	0.735459 	0.0357742 	3.14011 	0
10.8007 	0.735459 	0.0357742 	3.14011 	0
10.8708 	0.735459 	0.0357742 	3.14011 	0
10.941 	0.735459 	0.0357742 	3.14011 	0
11.0111 	0.735459 	0.0357742 	3.14011 	0
11.0812 	0.735459 	0.0357742 	3.14011 	0
11.1514 	0.735459 	0.0357742 	3.14011 	0
11.2215 	0.735459 	0.0357742 	3.14011 	0
11.2916 	0.735459 	0.0357742 	3.14011 	0
11.3618 	0.735459 	0.0357742 	3.14011 	0
11.4319 	0.735459 	0.0357742 	3.14011 	0
11.502 	0.735459 	0.0357742 	3.14011 	0
11.5722 	0.735459 	0.0357742 	3.14011 	0
11.6423 	0.735459 	0.0357742 	3.14011 	0
11.7124 	0.743649 	0.0230619 	3.12965 	0
11.7826 	0.683021 	0.0771357 	3.16069 	9.96803e-19
11.8527 	0.683021 	0.0771357 	3.16069 	9.96803e-19
11.9228 	0.683021 	0.0771357 	3.16069 	9.96803e-19
11.993 	0.683021 	0.0771357 	3.16069 	9.96803e-19
12.0631 	0.683021 	0.0771357 	3.16069 	9.96803e-19
12.1332 	0.683021 	0.0771357 	3.16069 	9.96803e-19
12.2034 	0.585485 	0.0698512 	3.18671 	-4.95042e-19
12.2735 	0.585485 	0.0698512 	3.18671 	-4.95042e-19
12.3437 	0.585485 	0.0698512 	3.18671 	-4.95042e-19
12.4138 	0.585485 	0.0698512 	3.18671 	-4.95042e-19
12.4839 	0.585485 	0.0698512 	3.18671 	-4.95042e-19
12.5541 	0.585485 	0.0698512 	3.18671 	-4.95042e-19
12.6242 	0.585485 	0.0698512 	3.18671 	-4.95042e-19
12.6943 	0.585485 	0.0698512 	3.18671 	-4.95042e-19
12.7645 	0.585485 	0.0698512 	3.18671 	-4.95042e-19
12.8346 	0.470999 	0.0364428 	3.17911 	4.67703e-19
12.9047 	0.457322 	0.137445 	3.22239 	-2.3703e-19
12.9749 	0.457322 	0.137445 	3.22239 	-2.3703e-19
13.045 	0.457322 	0.137445 	3.22239 	-2.3703e-19
13.1151 	0.457322 	0.137445 	3.22239 	-2.3703e-19
13.1853 	0.457322 	0.137445 	3.22239 	-2.3703e-19
13.2554 	0.457322 	0.137445 	3.22239 	-2.3703e-19
13.3255 	0.457322 	0.137445 	3.22239 	-2.3703e-19
13.3957 	0.684516 	0.142513 	3.1934 	1.5327e-18
13.4658 	0.684516 	0.142513 	3.1934 	1.5327e-18
13.5359 	0.684516 	0.142513 	3.1934 	1.5327e-18
13.6061 	0.684516 	0.142513 	3.1934 	1.5327e-18
13.6762 	0.684516 	0.142513 	3.1934 	1.5327e-18
13.7463 	0.684516 	0.142513 	3.1934 	1.5327e-18
13.8165 	0.76583 	0.114182 	2.867 	-1.27558e-18
13.8866 	0.971635 	0.137008 	2.9613 	5.99042e-19
13.9567 	0.971635 	0.137008 	2.9613 	5.99042e-19
14.0269 	0.387255 	0.245958 	3.03461 	-1.94775e-18
14.097 	0.387255 	0.245958 	3.03461 	-1.94775e-18
14.1671 	0.387255 	0.245958 	3.03461 	-1.94775e-18
14.2373 	0.387255 	0.245958 	3.03461 	-1.94775e-18
14.3074 	0.387255 	0.245958 	3.03461 	-1.94775e-18
14.3776 	0.387255 	0.245958 	3.03461 	-1.94775e-18
14.4477 	0.387255 	0.245958 	3.03461 	-1.94775e-18
14.5178 	0.387255 	0.245958 	3.03461 	-1.94775e-18
14.588 	0.387255 	0.245958 	3.03461 	-1.94775e-18
14.6581 	0.387255 	0.245958 	3.03461 	-1.94775e-18
14.7282 	0.387255 	0.245958 	3.03461 	-1.94775e-18
14.7984 	0.387255 	0.245958 	3.03461 	-1.94775e-18
14.8685 	0.387255 	0.245958 	3.03461 	-1.94775e-18
14.9386 	0.209021 	0.340751 	3.19392 	0
15.0088 	0.209021 	0.340751 	3.19392 	0
15.0789 	0.209021 	0.340751 	3.19392 	0
15.149 	0.209021 	0.340751 	3.19392 	0
15.2192 	0.209021 	0.340751 	3.19392 	0
15.2893 	-0.299469 	0.340337 	3.42119 	-1.83385e-19
15.3594 	-0.299469 	0.340337 	3.42119 	-1.83385e-19
15.4296 	-0.299469 	0.340337 	3.42119 	-1.83385e-19
15.4997 	-0.299469 	0.340337 	3.42119 	-1.83385e-19
15.5698 	-0.299469 	0.340337 	3.42119 	-1.83385e-19
15.64 	-0.299469 	0.340337 	3.42119 	-1.83385e-19
15.7101 	-0.795222 	0.395599 	3.49221 	0
15.7802 	-0.795222 	0.395599 	3.49221 	0
15.8504 	-0.691258 	0.64802 	3.55018 	1.23207e-18
15.9205 	-0.691258 	0.64802 	3.55018 	1.23207e-18
15.9906 	-0.691258 	0.64802 	3.55018 	1.23207e-18
16.0608 	-0.691258 	0.64802 	3.55018 	1.23207e-18
16.1309 	-0.691258 	0.64802 	3.55018 	1.23207e-18
16.201 	-0.691258 	0.64802 	3.55018 	1.23207e-18
16.2712 	-0.691258 	0.64802 	3.55018 	1.23207e-18
16.3413 	-0.691258 	0.64802 	3.55018 	1.23207e-18
16.4114 	-0.691258 	0.64802 	3.55018 	1.23207e-18
16.4816 	-0.691258 	0.64802 	3.55018 	1.23207e-18
16.5517 	-0.691258 	0.64802 	3.55018 	1.23207e-18
16.6219 	-0.691258 	0.64802 	3.55018 	1.23207e-18
16.692 	-0.691258 	0.64802 	3.55018 	1.23207e-18
16.7621 	-0.691258 	0.64802 	3.55018 	1.23207e-18
16.8323 	-0.241492 	0.872936 	3.11747 	4.78824e-20
16.9024 	-0.241492 	0.872936 	3.11747 	4.78824e-20
16.9725 	-0.241492 	0.872936 	3.11747 	4.78824e-20
17.0427 	-0.241492 	0.872936 	3.11747 	4.78824e-20
17.1128 	-0.241492 	0.872936 	3.11747 	4.78824e-20
17.1829 	-0.241492 	0.872936 	3.11747 	4.78824e-20
17.2531 	-0.241492 	0.872936 	3.11747 	4.78824e-20
17.3232 	-0.241492 	0.872936 	3.11747 	4.78824e-20
17.3933 	-0.241492 	0.872936 	3.11747 	4.78824e-20
17.4635 	-0.241492 	0.872936 	3.11747 	4.78824e-20
17.5336 	-0.15104 	0.913635 	3.03437 	-1.49863e-20
17.6037 	-0.15104 	0.913635 	3.03437 	-1.49863e-20
17.6739 	-0.15104 	0.913635 	3.03437 	-1.49863e-20
17.744 	-0.242698 	1.04239 	3.16433 	1.12214e-19
17.8141 	-0.242698 	1.04239 	3.16433 	1.12214e-19
17.8843 	-0.242698 	1.04239 	3.16433 	1.12214e-19
17.9544 	-0.242698 	1.04239 	3.16433 	1.12214e-19
18.0245 	-0.242698 	1.04239 	3.16433 	1.12214e-19
18.0947 	-0.242698 	1.04239 	3.16433 	1.12214e-19
18.1648 	-0.242698 	1.04239 	3.16433 	1.12214e-19
18.2349 	-0.242698 	1.04239 	3.16433 	1.12214e-19
18.3051 	-0.242698 	1.04239 	3.16433 	1.12214e-19
18.3752 	0.0462705 	1.00435 	2.76786 	-8.53236e-20
18.4453 	0.0462705 	1.00435 	2.76786 	-8.53236e-20
18.5155 	0.0462705 	1.00435 	2.76786 	-8.53236e-20
18.5856 	0.0462705 	1.00435 	2.76786 	-8.53236e-20
18.6557 	0.0462705 	1.00435 	2.76786 	-8.53236e-20
18.7259 	0.0462705 	1.00435 	2.76786 	-8.53236e-20
18.796 	0.0462705 	1.00435 	2.76786 	-8.53236e-20
18.8662 	0.112993 	1.04117 	2.82487 	-2.00453e-19
18.9363 	0.112993 	1.04117 	2.82487 	-2.00453e-19
19.0064 	0.112993 	1.04117 	2.82487 	-2.00453e-19
19.0766 	0.112993 	1.04117 	2.82487 	-2.00453e-19
19.1467 	0.112993 	1.04117 	2.82487 	-2.00453e-19
19.2168 	0.112993 	1.04117 	2.82487 	-2.00453e-19
19.287 	0.112993 	1.04117 	2.82487 	-2.00453e-19
19.3571 	0.112993 	1.04117 	2.82487 	-2.00453e-19
19.4272 	0.112993 	1.04117 	2.82487 	-2.00453e-19
19.4974 	0.112993 	1.04117 	2.82487 	-2.00453e-19
19.5675 	0.112993 	1.04117 	2.82487 	-2.00453e-19
19.6376 	0.112993 	1.04117 	2.82487 	-2.00453e-19
19.7078 	0.112993 	1.04117 	2.82487 	-2.00453e-19
19.7779 	0.26027 	0.98984 	2.45104 	-1.18024e-19
19.848 	0.26027 	0.98984 	2.45104 	-1.18024e-19
19.9182 	0.26027 	0.98984 	2.45104 	-1.18024e-19
19.9883 	0.26027 	0.98984 	2.45104 	-1.18024e-19
20.0584 	0.26027 	0.98984 	2.45104 	-1.18024e-19
20.1286 	0.26027 	0.98984 	2.45104 	-1.18024e-19
20.1987 	0.26027 	0.98984 	2.45104 	-1.18024e-19
20.2688 	0.254868 	0.994524 	2.44563 	3.35488e-19
20.339 	0.254868 	0.994524 	2.44563 	3.35488e-19
20.4091 	0.254868 	0.994524 	2.44563 	3.35488e-19
20.4792 	0.254868 	0.994524 	2.44563 	3.35488e-19
20.5494 	0.254868 	0.994524 	2.44563 	3.35488e-19
20.6195 	0.254868 	0.994524 	2.44563 	3.35488e-19
20.6896 	0.254868 	0.994524 	2.44563 	3.35488e-19
20.7598 	0.254868 	0.994524 	2.44563 	3.35488e-19
20.8299 	0.254868 	0.994524 	2.44563 	3.35488e-19
20.9 	0.254868 	0.994524 	2.44563 	3.35488e-19
20.9702 	0.254868 	0.994524 	2.44563 	3.35488e-19
21.0403 	0.254868 	0.994524 	2.44563 	3.35488e-19
21.1105 	0.254868 	0.994524 	2.44563 	3.35488e-19
21.1806 	0.254868 	0.994524 	2.44563 	3.35488e-19
21.2507 	0.254868 	0.994524 	2.44563 	3.35488e-19
21.3209 	0.254868 	0.994524 	2.44563 	3.35488e-19
21.391 	0.254868 	0.994524 	2.44563 	3.35488e-19
21.4611 	0.267978 	0.699964 	1.90996 	-4.46719e-19
21.5313 	0.267978 	0.699964 	1.90996 	-4.46719e-19
21.6014 	0.267978 	0.699964 	1.90996 	-4.46719e-19
21.6715 	0.162078 	0.612483 	1.41374 	-6.2319e-20
21.7417 	0.162078 	0.612483 	1.41374 	-6.2319e-20
21.8118 	0.162078 	0.612483 	1.41374 	-6.2319e-20
21.8819 	0.162078 	0.612483 	1.41374 	-6.2319e-20
21.9521 	0.162078 	0.612483 	1.41374 	-6.2319e-20
22.0222 	0.0321677 	0.931398 	2.34762 	1.35187e-19
22.0923 	0.0321677 	0.931398 	2.34762 	1.35187e-19
22.1625 	0.0321677 	0.931398 	2.34762 	1.35187e-19
22.2326 	0.0321677 	0.931398 	2.34762 	1.35187e-19
22.3027 	0.0321677 	0.931398 	2.34762 	1.35187e-19
22.3729 	0.0321677 	0.931398 	2.34762 	1.35187e-19
22.443 	0.0321677 	0.931398 	2.34762 	1.35187e-19
22.5131 	0.0321677 	0.931398 	2.34762 	1.35187e-19
22.5833 	0.0321677 	0.931398 	2.34762 	1.35187e-19
22.6534 	0.0321677 	0.931398 	2.34762 	1.35187e-19
22.7235 	0.0321677 	0.931398 	2.34762 	1.35187e-19
22.7937 	0.0321677 	0.931398 	2.34762 	1.35187e-19
22.8638 	0.0321677 	0.931398 	2.34762 	1.35187e-19
22.9339 	0.0321677 	0.931398 	2.34762 	1.35187e-19
23.0041 	0.0321677 	0.931398 	2.34762 	1.35187e-19
23.0742 	0.0321677 	0.931398 	2.34762 	1.35187e-19
23.1443 	0.0321677 	0.931398 	2.34762 	1.35187e-19
23.2145 	0.0321677 	0.931398 	2.34762 	1.35187e-19
23.2846 	0.0321677 	0.931398 	2.34762 	1.35187e-19
23.3548 	0.0321677 	0.931398 	2.34762 	1.35187e-19
23.4249 	0.0321677 	0.931398 	2.34762 	1.35187e-19
23.495 	0.219951 	0.899241 	2.32531 	-9.45354e-20
23.5652 	0.219951 	0.899241 	2.32531 	-9.45354e-20
23.6353 	0.219951 	0.899241 	2.32531 	-9.45354e-20
23.7054 	0.219951 	0.899241 	2.32531 	-9.45354e-20
23.7756 	0.219951 	0.899241 	2.32531 	-9.45354e-20
23.8457 	0.219951 	0.899241 	2.32531 	-9.45354e-20
23.9158 	0.219951 	0.899241 	2.32531 	-9.45354e-20
23.986 	0.350048 	0.837486 	2.1901 	4.32001e-21
24.0561 	0.350048 	0.837486 	2.1901 	4.32001e-21
24.1262 	0.350048 	0.837486 	2.1901 	4.32001e-21
24.1964 	0.350048 	0.837486 	2.1901 	4.32001e-21
24.2665 	0.350048 	0.837486 	2.1901 	4.32001e-21
24.3366 	0.350048 	0.837486 	2.1901 	4.32001e-21
24.4068 	0.350048 	0.837486 	2.1901 	4.32001e-21
24.4769 	0.350048 	0.837486 	2.1901 	4.32001e-21
24.547 	0.350048 	0.837486 	2.1901 	4.32001e-21
24.6172 	0.350048 	0.837486 	2.1901 	4.32001e-21
24.6873 	0.350048 	0.837486 	2.1901 	4.32001e-21
24.7574 	0.350048 	0.837486 	2.1901 	4.32001e-21
24.8276 	0.350048 	0.837486 	2.1901 	4.32001e-21
24.8977 	0.350048 	0.837486 	2.1901 	4.32001e-21
24.9678 	0.350048 	0.837486 	2.1901 	4.32001e-21
25.038 	0.350048 	0.837486 	2.1901 	4.32001e-21
25.1081 	0.350048 	0.837486 	2.1901 	4.32001e-21
25.1782 	0.297213 	0.495437 	1.35485 	0
25.2484 	0.297213 	0.495437 	1.35485 	0
25.3185 	0.297213 	0.495437 	1.35485 	0
25.3886 	0.297213 	0.495437 	1.35485 	0
25.4588 	0.297213 	0.495437 	1.35485 	0
25.5289 	0.297213 	0.495437 	1.35485 	0
25.5991 	0.297213 	0.495437 	1.35485 	0
25.6692 	0.297213 	0.495437 	1.35485 	0
25.7393 	0.297213 	0.495437 	1.35485 	0
25.8095 	0.297213 	0.495437 	1.35485 	0
25.8796 	0.297213 	0.495437 	1.35485 	0
25.9497 	0.297213 	0.495437 	1.35485 	0
26.0199 	0.297213 	0.495437 	1.35485 	0
26.09 	0.297213 	0.495437 	1.35485 	0
26.1601 	0.297213 	0.495437 	1.35485 	0
26.2303 	0.203971 	0.494762 	1.37259 	-3.4522e-19
26.3004 	0.203971 	0.494762 	1.37259 	-3.4522e-19
26.3705 	0.203971 	0.494762 	1.37259 	-3.4522e-19
26.4407 	0.203971 	0.494762 	1.37259 	-3.4522e-19
26.5108 	0.203971 	0.494762 	1.37259 	-3.4522e-19
26.5809 	0.203971 	0.494762 	1.37259 	-3.4522e-19
26.6511 	0.203971 	0.494762 	1.37259 	-3.4522e-19
26.7212 	0.203971 	0.494762 	1.37259 	-3.4522e-19
26.7913 	0.203971 	0.494762 	1.37259 	-3.4522e-19
26.8615 	0.203971 	0.494762 	1.37259 	-3.4522e-19
26.9316 	0.203971 	0.494762 	1.37259 	-3.4522e-19
27.0017 	0.203971 	0.494762 	1.37259 	-3.4522e-19
27.0719 	0.203971 	0.494762 	1.37259 	-3.4522e-19
27.142 	0.203971 	0.494762 	1.37259 	-3.4522e-19
27.2121 	0.203971 	0.494762 	1.37259 	-3.4522e-19
27.2823 	0.203971 	0.494762 	1.37259 	-3.4522e-19
27.3524 	0.146165 	0.489057 	1.37578 	3.77653e-19
27.4225 	0.146165 	0.489057 	1.37578 	3.77653e-19
27.4927 	0.146165 	0.489057 	1.37578 	3.77653e-19
27.5628 	0.146165 	0.489057 	1.37578 	3.77653e-19
27.6329 	0.146165 	0.489057 	1.37578 	3.77653e-19
27.7031 	0.146165 	0.489057 	1.37578 	3.77653e-19
27.7732 	0.146165 	0.489057 	1.37578 	3.77653e-19
27.8434 	0.146165 	0.489057 	1.37578 	3.77653e-19
27.9135 	0.146165 	0.489057 	1.37578 	3.77653e-19
27.9836 	0.146165 	0.489057 	1.37578 	3.77653e-19
28.0538 	0.146165 	0.489057 	1.37578 	3.77653e-19
28.1239 	0.146165 	0.489057 	1.37578 	3.77653e-19
28.194 	0.146165 	0.489057 	1.37578 	3.77653e-19
28.2642 	0.146165 	0.489057 	1.37578 	3.77653e-19
28.3343 	0.146165 	0.489057 	1.37578 	3.77653e-19
28.4044 	0.146165 	0.489057 	1.37578 	3.77653e-19
28.4746 	0.146165 	0.489057 	1.37578 	3.77653e-19
28.5447 	0.146165 	0.489057 	1.37578 	3.77653e-19
28.6148 	0.146165 	0.489057 	1.37578 	3.77653e-19
28.685 	0.146165 	0.489057 	1.37578 	3.77653e-19
28.7551 	0.146165 	0.489057 	1.37578 	3.77653e-19
28.8252 	0.146165 	0.489057 	1.37578 	3.77653e-19
28.8954 	0.146165 	0.489057 	1.37578 	3.77653e-19
28.9655 	0.100236 	0.433403 	1.29299 	1.17343e-20
29.0356 	0.100236 	0.433403 	1.29299 	1.17343e-20
29.1058 	0.100236 	0.433403 	1.29299 	1.17343e-20
29.1759 	0.100236 	0.433403 	1.29299 	1.17343e-20
29.246 	0.100236 	0.433403 	1.29299 	1.17343e-20
29.3162 	0.100236 	0.433403 	1.29299 	1.17343e-20
29.3863 	0.100236 	0.433403 	1.29299 	1.17343e-20
29.4564 	0.100236 	0.433403 	1.29299 	1.17343e-20
29.5266 	0.100236 	0.433403 	1.29299 	1.17343e-20
29.5967 	0.100236 	0.433403 	1.29299 	1.17343e-20
29.6668 	0.100236 	0.433403 	1.29299 	1.17343e-20
29.737 	0.100236 	0.433403 	1.29299 	1.17343e-20
29.8071 	0.100236 	0.433403 	1.29299 	1.17343e-20
29.8773 	0.100236 	0.433403 	1.29299 	1.17343e-20
29.9474 	0.100236 	0.433403 	1.29299 	1.17343e-20
30.0175 	0.100236 	0.433403 	1.29299 	1.17343e-20
30.0877 	0.100236 	0.433403 	1.29299 	1.17343e-20
30.1578 	0.100236 	0.433403 	1.29299 	1.17343e-20
30.2279 	0.100236 	0.433403 	1.29299 	1.17343e-20
30.2981 	0.100236 	0.433403 	1.29299 	1.17343e-20
30.3682 	0.100236 	0.433403 	1.29299 	1.17343e-20
30.4383 	0.100236 	0.433403 	1.29299 	1.17343e-20
30.5085 	0.100236 	0.433403 	1.29299 	1.17343e-20
30.5786 	0.100236 	0.433403 	1.29299 	1.17343e-20
30.6487 	0.100236 	0.433403 	1.29299 	1.17343e-20
30.7189 	0.100236 	0.433403 	1.29299 	1.17343e-20
30.789 	0.0933531 	0.367832 	1.2974 	-1.57655e-19
30.8591 	0.0933531 	0.367832 	1.2974 	-1.57655e-19
30.9293 	0.0933531 	0.367832 	1.2974 	-1.57655e-19
30.9994 	0.0933531 	0.367832 	1.2974 	-1.57655e-19
31.0695 	0.0933531 	0.367832 	1.2974 	-1.57655e-19
31.1397 	0.0933531 	0.367832 	1.2974 	-1.57655e-19
31.2098 	0.0933531 	0.367832 	1.2974 	-1.57655e-19
31.2799 	0.0933531 	0.367832 	1.2974 	-1.57655e-19
31.3501 	0.0933531 	0.367832 	1.2974 	-1.57655e-19
31.4202 	0.0933531 	0.367832 	1.2974 	-1.57655e-19
31.4903 	0.0933531 	0.367832 	1.2974 	-1.57655e-19
31.5605 	0.0933531 	0.367832 	1.2974 	-1.57655e-19
31.6306 	0.0933531 	0.367832 	1.2974 	-1.57655e-19
31.7007 	0.0933531 	0.367832 	1.2974 	-1.57655e-19
31.7709 	0.0933531 	0.367832 	1.2974 	-1.57655e-19
31.841 	0.0933531 	0.367832 	1.2974 	-1.57655e-19
31.9111 	0.0933531 	0.367832 	1.2974 	-1.57655e-19
31.9813 	0.0933531 	0.367832 	1.2974 	-1.57655e-19
32.0514 	0.0933531 	0.367832 	1.2974 	-1.57655e-19
32.1216 	0.0933531 	0.367832 	1.2974 	-1.57655e-19
32.1917 	0.0933531 	0.367832 	1.2974 	-1.57655e-19
32.2618 	0.0933531 	0.367832 	1.2974 	-1.57655e-19
32.332 	0.0933531 	0.367832 	1.2974 	-1.57655e-19
32.4021 	0.0933531 	0.367832 	1.2974 	-1.57655e-19
32.4722 	0.0933531 	0.367832 	1.2974 	-1.57655e-19
32.5424 	0.0933531 	0.367832 	1.2974 	-1.57655e-19
32.6125 	0.0933531 	0.367832 	1.2974 	-1.57655e-19
32.6826 	0.0933531 	0.367832 	1.2974 	-1.57655e-19
32.7528 	0.0933531 	0.367832 	1.2974 	-1.57655e-19
32.8229 	0.0933531 	0.367832 	1.2974 	-1.57655e-19
32.893 	0.0933531 	0.367832 	1.2974 	-1.57655e-19
32.9632 	0.0933531 	0.367832 	1.2974 	-1.57655e-19
33.0333 	0.0933531 	0.367832 	1.2974 	-1.57655e-19
33.1034 	0.0933531 	0.367832 	1.2974 	-1.57655e-19
33.1736 	0.0933531 	0.367832 	1.2974 	-1.57655e-19
33.2437 	0.0933531 	0.367832 	1.2974 	-1.57655e-19
33.3138 	0.0933531 	0.367832 	1.2974 	-1.57655e-19
33.384 	0.0933531 	0.367832 	1.2974 	-1.57655e-19
33.4541 	0.0933531 	0.367832 	1.2974 	-1.57655e-19
33.5242 	0.0933531 	0.367832 	1.2974 	-1.57655e-19
33.5944 	0.0933531 	0.367832 	1.2974 	-1.57655e-19
33.6645 	0.0933531 	0.367832 	1.2974 	-1.57655e-19
33.7346 	0.0529181 	0.365878 	1.36808 	8.68849e-20
33.8048 	0.0529181 	0.365878 	1.36808 	8.68849e-20
33.8749 	0.0529181 	0.365878 	1.36808 	8.68849e-20
33.945 	0.0529181 	0.365878 	1.36808 	8.68849e-20
34.0152 	0.0529181 	0.365878 	1.36808 	8.68849e-20
34.0853 	0.0529181 	0.365878 	1.36808 	8.68849e-20
34.1554 	0.0484163 	0.273736 	1.32164 	-1.53389e-19
34.2256 	0.0484163 	0.273736 	1.32164 	-1.53389e-19
34.2957 	0.0484163 	0.273736 	1.32164 	-1.53389e-19
34.3659 	0.0484163 	0.273736 	1.32164 	-1.53389e-19
34.436 	0.0484163 	0.273736 	1.32164 	-1.53389e-19
34.5061 	0.0484163 	0.273736 	1.32164 	-1.53389e-19
34.5763 	0.0484163 	0.273736 	1.32164 	-1.53389e-19
34.6464 	0.0484163 	0.273736 	1.32164 	-1.53389e-19
34.7165 	0.252128 	0.262219 	1.6158 	1.51686e-19
34.7867 	0.252128 	0.262219 	1.6158 	1.51686e-19
34.8568 	0.252128 	0.262219 	1.6158 	1.51686e-19
34.9269 	0.252128 	0.262219 	1.6158 	1.51686e-19
34.9971 	0.252128 	0.262219 	1.6158 	1.51686e-19
35.0672 	0.252128 	0.262219 	1.6158 	1.51686e-19
35.1373 	0.252128 	0.262219 	1.6158 	1.51686e-19
35.2075 	0.252128 	0.262219 	1.6158 	1.51686e-19
35.2776 	0.252128 	0.262219 	1.6158 	1.51686e-19
35.3477 	0.252128 	0.262219 	1.6158 	1.51686e-19
35.4179 	0.252128 	0.262219 	1.6158 	1.51686e-19
35.488 	0.252128 	0.262219 	1.6158 	1.51686e-19
35.5581 	0.252128 	0.262219 	1.6158 	1.51686e-19
35.6283 	0.252128 	0.262219 	1.6158 	1.51686e-19
35.6984 	0.252128 	0.262219 	1.6158 	1.51686e-19
35.7685 	0.252128 	0.262219 	1.6158 	1.51686e-19
35.8387 	0.252128 	0.262219 	1.6158 	1.51686e-19
35.9088 	0.252128 	0.262219 	1.6158 	1.51686e-19
35.9789 	0.252128 	0.262219 	1.6158 	1.51686e-19
36.0491 	0.227125 	0.241507 	1.57537 	0
36.1192 	0.227125 	0.241507 	1.57537 	0
36.1893 	0.227125 	0.241507 	1.57537 	0
36.2595 	0.227125 	0.241507 	1.57537 	0
36.3296 	0.227125 	0.241507 	1.57537 	0
36.3997 	0.227125 	0.241507 	1.57537 	0
36.4699 	0.227125 	0.241507 	1.57537 	0
36.54 	0.227125 	0.241507 	1.57537 	0
36.6102 	0.227125 	0.241507 	1.57537 	0
36.6803 	0.227125 	0.241507 	1.57537 	0
36.7504 	0.227125 	0.241507 	1.57537 	0
36.8206 	0.227125 	0.241507 	1.57537 	0
36.8907 	0.100743 	0.188248 	1.44668 	1.08284e-19
36.9608 	0.100743 	0.188248 	1.44668 	1.08284e-19
37.031 	0.100743 	0.188248 	1.44668 	1.08284e-19
37.1011 	0.100743 	0.188248 	1.44668 	1.08284e-19
37.1712 	0.100743 	0.188248 	1.44668 	1.08284e-19
37.2414 	0.100743 	0.188248 	1.44668 	1.08284e-19
37.3115 	0.100743 	0.188248 	1.44668 	1.08284e-19
37.3816 	0.100743 	0.188248 	1.44668 	1.08284e-19
37.4518 	0.100743 	0.188248 	1.44668 	1.08284e-19
37.5219 	0.100743 	0.188248 	1.44668 	1.08284e-19
37.592 	0.100743 	0.188248 	1.44668 	1.08284e-19
37.6622 	0.100743 	0.188248 	1.44668 	1.08284e-19
37.7323 	0.100743 	0.188248 	1.44668 	1.08284e-19
37.8024 	0.100743 	0.188248 	1.44668 	1.08284e-19
37.8726 	0.100743 	0.188248 	1.44668 	1.08284e-19
37.9427 	0.100743 	0.188248 	1.44668 	1.08284e-19
38.0128 	0.100743 	0.188248 	1.44668 	1.08284e-19
38.083 	0.100743 	0.188248 	1.44668 	1.08284e-19
38.1531 	0.100743 	0.188248 	1.44668 	1.08284e-19
38.2232 	0.123679 	0.131945 	1.59143 	-1.24201e-19
38.2934 	0.123679 	0.131945 	1.59143 	-1.24201e-19
38.3635 	0.123679 	0.131945 	1.59143 	-1.24201e-19
38.4336 	0.123679 	0.131945 	1.59143 	-1.24201e-19
38.5038 	0.123679 	0.131945 	1.59143 	-1.24201e-19
38.5739 	0.123679 	0.131945 	1.59143 	-1.24201e-19
38.644 	0.123679 	0.131945 	1.59143 	-1.24201e-19
38.7142 	0.123679 	0.131945 	1.59143 	-1.24201e-19
38.7843 	0.123679 	0.131945 	1.59143 	-1.24201e-19
38.8545 	0.123679 	0.131945 	1.59143 	-1.24201e-19
38.9246 	0.123679 	0.131945 	1.59143 	-1.24201e-19
38.9947 	0.123679 	0.131945 	1.59143 	-1.24201e-19
39.0649 	0.123679 	0.131945 	1.59143 	-1.24201e-19
39.135 	0.123679 	0.131945 	1.59143 	-1.24201e-19
39.2051 	0.0854745 	0.115567 	1.56265 	0
39.2753 	0.0854745 	0.115567 	1.56265 	0
39.3454 	0.0854745 	0.115567 	1.56265 	0
39.4155 	0.0854745 	0.115567 	1.56265 	0
39.4857 	0.0854745 	0.115567 	1.56265 	0
39.5558 	0.0854745 	0.115567 	1.56265 	0
39.6259 	0.0854745 	0.115567 	1.56265 	0
39.6961 	0.0854745 	0.115567 	1.56265 	0
39.7662 	0.0854745 	0.115567 	1.56265 	0
39.8363 	0.0854745 	0.115567 	1.56265 	0
39.9065 	0.0854745 	0.115567 	1.56265 	0
39.9766 	0.0854745 	0.115567 	1.56265 	0
40.0467 	0.0854745 	0.115567 	1.56265 	0
40.1169 	0.0854745 	0.115567 	1.56265 	0
40.187 	0.0854745 	0.115567 	1.56265 	0
40.2571 	0.0854745 	0.115567 	1.56265 	0
40.3273 	0.0854745 	0.115567 	1.56265 	0
40.3974 	0.0854745 	0.115567 	1.56265 	0
40.4675 	0.0854745 	0.115567 	1.56265 	0
40.5377 	0.0854745 	0.115567 	1.56265 	0
40.6078 	0.0854745 	0.115567 	1.56265 	0
40.6779 	0.0718999 	0.109928 	1.5003 	-4.16574e-20
40.7481 	0.0718999 	0.109928 	1.5003 	-4.16574e-20
40.8182 	0.0718999 	0.109928 	1.5003 	-4.16574e-20
40.8883 	0.0718999 	0.109928 	1.5003 	-4.16574e-20
40.9585 	0.0718999 	0.109928 	1.5003 	-4.16574e-20
41.0286 	0.0718999 	0.109928 	1.5003 	-4.16574e-20
41.0988 	0.0718999 	0.109928 	1.5003 	-4.16574e-20
41.1689 	0.0718999 	0.109928 	1.5003 	-4.16574e-20
41.239 	0.0715957 	0.0875605 	1.5202 	7.81717e-20
41.3092 	0.0715957 	0.0875605 	1.5202 	7.81717e-20
41.3793 	0.0715957 	0.0875605 	1.5202 	7.81717e-20
41.4494 	0.0715957 	0.0875605 	1.5202 	7.81717e-20
41.5196 	0.0715957 	0.0875605 	1.5202 	7.81717e-20
41.5897 	0.0715957 	0.0875605 	1.5202 	7.81717e-20
41.6598 	0.0715957 	0.0875605 	1.5202 	7.81717e-20
41.73 	0.0715957 	0.0875605 	1.5202 	7.81717e-20
41.8001 	0.0715957 	0.0875605 	1.5202 	7.81717e-20
41.8702 	0.0715957 	0.0875605 	1.5202 	7.81717e-20
41.9404 	0.0715957 	0.0875605 	1.5202 	7.81717e-20
42.0105 	0.0715957 	0.0875605 	1.5202 	7.81717e-20
42.0806 	0.0715957 	0.0875605 	1.5202 	7.81717e-20
42.1508 	0.0715957 	0.0875605 	1.5202 	7.81717e-20
42.2209 	0.0715957 	0.0875605 	1.5202 	7.81717e-20
42.291 	0.0715957 	0.0875605 	1.5202 	7.81717e-20
42.3612 	0.0715957 	0.0875605 	1.5202 	7.81717e-20
42.4313 	0.0715957 	0.0875605 	1.5202 	7.81717e-20
42.5014 	0.0715957 	0.0875605 	1.5202 	7.81717e-20
42.5716 	0.0715957 	0.0875605 	1.5202 	7.81717e-20
42.6417 	0.0715957 	0.0875605 	1.5202 	7.81717e-20
42.7118 	0.0605549 	0.0880769 	1.50096 	0
42.782 	0.0605549 	0.0880769 	1.50096 	0
42.8521 	0.0605549 	0.0880769 	1.50096 	0
42.9222 	0.0605549 	0.0880769 	1.50096 	0
42.9924 	0.0789468 	0.0462662 	1.56842 	0
43.0625 	0.0789468 	0.0462662 	1.56842 	0
43.1327 	0.0789468 	0.0462662 	1.56842 	0
43.2028 	0.0789468 	0.0462662 	1.56842 	0
43.2729 	0.0789468 	0.0462662 	1.56842 	0
43.3431 	0.0789468 	0.0462662 	1.56842 	0
43.4132 	0.0789468 	0.0462662 	1.56842 	0
43.4833 	0.0789468 	0.0462662 	1.56842 	0
43.5535 	0.0789468 	0.0462662 	1.56842 	0
43.6236 	0.0789468 	0.0462662 	1.56842 	0
43.6937 	0.0789468 	0.0462662 	1.56842 	0
43.7639 	0.0789468 	0.0462662 	1.56842 	0
43.834 	0.0789468 	0.0462662 	1.56842 	0
43.9041 	0.0789468 	0.0462662 	1.56842 	0