/*--------------------------------*- C++ -*----------------------------------*\
| =========                 |                                                 |
| \\      /  F ield         | OpenFOAM: The Open Source CFD Toolbox           |
|  \\    /   O peration     | Version:  2306                                  |
|   \\  /    A nd           | Website:  www.openfoam.com                      |
|    \\/     M anipulation  |                                                 |
\*---------------------------------------------------------------------------*/
FoamFile
{
    version     2.0;
    format      ascii;
    arch        "LSB;label=32;scalar=64";
    class       volScalarField;
    location    "69";
    object      p;
}
// * * * * * * * * * * * * * * * * * * * * * * * * * * * * * * * * * * * * * //

dimensions      [0 2 -2 0 0 0 0];

internalField   nonuniform List<scalar> 
8800
(
0.870267
0.822218
0.783843
0.755204
0.734585
0.719838
0.709245
0.701756
0.69694
0.694909
0.696228
0.700476
0.707178
0.716541
0.729315
0.746917
0.77137
0.804989
0.84744
0.904567
0.702792
0.709999
0.718439
0.721858
0.719946
0.714428
0.707723
0.701573
0.696835
0.694007
0.693769
0.696331
0.700885
0.706914
0.713847
0.720483
0.724627
0.72412
0.718065
0.709094
0.679486
0.685664
0.689865
0.69323
0.695736
0.69654
0.695442
0.693312
0.6913
0.690427
0.691442
0.693885
0.696756
0.699003
0.699557
0.698043
0.695208
0.69158
0.68705
0.683266
0.674329
0.67703
0.679754
0.682069
0.683721
0.685056
0.685977
0.686199
0.685962
0.685966
0.686772
0.687979
0.688809
0.68878
0.688009
0.686832
0.685098
0.682608
0.680189
0.678659
0.669105
0.670528
0.672332
0.674392
0.676152
0.677467
0.678508
0.679403
0.680112
0.680756
0.681462
0.681973
0.682048
0.681733
0.681065
0.679883
0.678203
0.676336
0.67502
0.674196
0.664058
0.664972
0.666212
0.6678
0.669462
0.670999
0.672288
0.673391
0.674426
0.675403
0.676159
0.676525
0.676515
0.676122
0.675284
0.674094
0.672762
0.67151
0.670695
0.67015
0.659139
0.659805
0.660767
0.662075
0.6635
0.664989
0.666457
0.667811
0.669061
0.670247
0.671153
0.671594
0.671573
0.67111
0.670327
0.669393
0.668402
0.667494
0.666916
0.666514
0.654324
0.654837
0.655622
0.656758
0.658047
0.659444
0.660926
0.662444
0.663932
0.665354
0.666462
0.667024
0.667068
0.66673
0.666161
0.665467
0.66472
0.664053
0.663627
0.663313
0.649545
0.649953
0.650611
0.651626
0.652845
0.654194
0.655674
0.657283
0.658979
0.660679
0.662043
0.662804
0.663047
0.662939
0.662605
0.662127
0.661588
0.661115
0.6608
0.660545
0.644718
0.645051
0.645621
0.646558
0.647731
0.649069
0.650587
0.652299
0.654191
0.656194
0.657889
0.658957
0.659489
0.659645
0.659549
0.659301
0.65896
0.65865
0.658419
0.658204
0.639755
0.640031
0.640541
0.641433
0.642591
0.643957
0.645554
0.647412
0.649542
0.651893
0.654007
0.655471
0.65635
0.656807
0.656972
0.656956
0.656814
0.656647
0.656485
0.656298
0.634566
0.634797
0.635269
0.636146
0.637329
0.638767
0.640486
0.642545
0.64498
0.647764
0.650389
0.652329
0.653613
0.654416
0.654873
0.655098
0.65516
0.655126
0.655019
0.654852
0.629055
0.629252
0.629705
0.630598
0.631847
0.633401
0.635297
0.637627
0.640449
0.643774
0.647019
0.649524
0.651283
0.652482
0.65327
0.653756
0.654035
0.654127
0.654067
0.653914
0.623122
0.62329
0.623741
0.624678
0.626035
0.627756
0.629897
0.632577
0.63589
0.639883
0.643879
0.647059
0.649378
0.651034
0.6522
0.652998
0.653497
0.65371
0.653692
0.653546
0.616642
0.616787
0.617251
0.618263
0.619773
0.621723
0.624185
0.62731
0.631239
0.636051
0.640955
0.644942
0.647926
0.650121
0.651719
0.652864
0.65361
0.65395
0.653968
0.653826
0.609476
0.609596
0.610088
0.611205
0.612921
0.615168
0.618041
0.621733
0.626425
0.632238
0.638237
0.643187
0.646957
0.649787
0.651895
0.653433
0.654463
0.654935
0.654987
0.654844
0.601433
0.60154
0.602074
0.603328
0.605311
0.607931
0.611329
0.61573
0.621366
0.6284
0.635717
0.641814
0.64651
0.650088
0.652807
0.654812
0.656155
0.656764
0.656848
0.6567
0.592289
0.592389
0.592981
0.594399
0.596709
0.59982
0.603883
0.609173
0.615975
0.624496
0.633393
0.64085
0.646641
0.651098
0.654539
0.657087
0.658785
0.659541
0.659652
0.659496
0.581721
0.581803
0.582483
0.584127
0.586874
0.59061
0.595508
0.60191
0.610159
0.620489
0.631273
0.64033
0.647407
0.6529
0.657167
0.66036
0.662456
0.663362
0.663497
0.663329
0.569347
0.569414
0.570196
0.572152
0.575459
0.579993
0.585961
0.593772
0.603818
0.616348
0.629375
0.640303
0.648866
0.655563
0.660794
0.664727
0.667254
0.668309
0.668461
0.668277
0.554603
0.554659
0.555585
0.557959
0.562005
0.56759
0.574949
0.584564
0.596856
0.612057
0.627726
0.640817
0.651079
0.659152
0.665497
0.670255
0.673237
0.674429
0.674587
0.674384
0.53671
0.536756
0.537895
0.540855
0.545914
0.552921
0.562133
0.574092
0.589208
0.607633
0.626383
0.641934
0.654113
0.663732
0.6713
0.676977
0.68041
0.68171
0.681858
0.681635
0.514492
0.514536
0.516023
0.519867
0.526384
0.535391
0.547144
0.562198
0.580868
0.603158
0.62544
0.643729
0.658017
0.669338
0.678236
0.684867
0.688702
0.690058
0.690176
0.689932
0.486163
0.486229
0.488315
0.493589
0.502376
0.514327
0.529666
0.548834
0.571945
0.598792
0.625037
0.646296
0.662832
0.675957
0.686274
0.693815
0.697942
0.699273
0.699339
0.699078
0.448657
0.44883
0.452144
0.460053
0.47267
0.489137
0.509592
0.534166
0.562705
0.59479
0.625358
0.649736
0.668599
0.683564
0.695307
0.703609
0.707838
0.709042
0.709035
0.708763
0.39608
0.397099
0.403703
0.417048
0.43633
0.459782
0.487297
0.518694
0.553615
0.5915
0.626609
0.654149
0.675329
0.692078
0.705119
0.713917
0.717984
0.718957
0.718871
0.718596
0.319588
0.327047
0.342268
0.365706
0.394911
0.427706
0.46383
0.50306
0.545041
0.58919
0.629133
0.660025
0.683677
0.702331
0.716548
0.725583
0.72932
0.730046
0.72991
0.729672
0.237734
0.254847
0.279479
0.313739
0.353325
0.395592
0.440363
0.487587
0.536976
0.587997
0.63358
0.668507
0.695073
0.715864
0.731315
0.740116
0.743146
0.743588
0.743482
0.743321
0.168815
0.189135
0.221636
0.265139
0.313897
0.365088
0.418263
0.473335
0.529984
0.587651
0.638558
0.6772
0.706338
0.728866
0.744778
0.752956
0.75544
0.755812
0.755765
0.755645
0.112341
0.134538
0.172562
0.222592
0.278565
0.337267
0.397886
0.460173
0.523654
0.587656
0.643608
0.685711
0.717158
0.741031
0.75735
0.765296
0.767566
0.767908
0.767897
0.767808
0.065491
0.0889171
0.130739
0.18594
0.247691
0.312589
0.379585
0.448283
0.518033
0.587986
0.648749
0.694149
0.727811
0.753106
0.770004
0.777846
0.780083
0.780426
0.780444
0.780379
0.0258212
0.0499342
0.0946533
0.153917
0.220545
0.290721
0.363255
0.437655
0.513122
0.588648
0.654021
0.702646
0.738519
0.765233
0.782775
0.790931
0.793212
0.793536
0.793567
0.793518
-0.00871505
0.0158314
0.0628296
0.125464
0.196217
0.270995
0.348452
0.428008
0.508758
0.589542
0.659345
0.711117
0.749173
0.777326
0.795747
0.80427
0.806672
0.807009
0.807042
0.807014
-0.0396313
-0.0147179
0.0341386
0.0996455
0.173962
0.252786
0.334679
0.418965
0.504647
0.590427
0.664513
0.719372
0.759617
0.789201
0.808466
0.817462
0.820061
0.820409
0.820438
0.820421
-0.0679256
-0.0426936
0.00775347
0.0757474
0.153194
0.235619
0.321516
0.410153
0.500471
0.591049
0.669319
0.727212
0.769571
0.800603
0.820655
0.830095
0.832904
0.833314
0.833325
0.833313
-0.0944123
-0.0688253
-0.0169518
0.0532106
0.133466
0.21911
0.308634
0.401292
0.495989
0.591205
0.673591
0.734473
0.7789
0.811292
0.832096
0.841953
0.844927
0.845367
0.845355
0.845332
-0.119491
-0.0935431
-0.0403233
0.0316559
0.114448
0.202984
0.295806
0.392185
0.491018
0.590731
0.677204
0.741068
0.787518
0.821188
0.842638
0.852768
0.855866
0.856313
0.856269
0.856232
-0.143619
-0.117247
-0.0630345
0.010866
0.0959095
0.187044
0.282871
0.382681
0.485411
0.589496
0.680074
0.746971
0.795424
0.830263
0.852197
0.862507
0.865639
0.866071
0.865993
0.86594
-0.166935
-0.140065
-0.084938
-0.00933752
0.0776989
0.171169
0.269718
0.372687
0.479081
0.587416
0.682141
0.752173
0.802666
0.838574
0.860851
0.871175
0.874264
0.874679
0.874566
0.874497
-0.1896
-0.162316
-0.106144
-0.0290838
0.0597382
0.155296
0.256295
0.362151
0.47197
0.584409
0.683337
0.756688
0.809349
0.846305
0.868757
0.878911
0.881881
0.882234
0.882098
0.882014
-0.211755
-0.183957
-0.126797
-0.0484283
0.0419825
0.139404
0.242596
0.351066
0.464046
0.580418
0.683601
0.760519
0.815591
0.853626
0.87608
0.885874
0.888596
0.888854
0.888697
0.888601
-0.233441
-0.205038
-0.14698
-0.0673851
0.0244446
0.123499
0.228641
0.339448
0.455314
0.575398
0.682867
0.763643
0.821487
0.860765
0.883063
0.892216
0.894513
0.894635
0.894456
0.894354
-0.254531
-0.225552
-0.166626
-0.0859431
0.00713778
0.107629
0.214472
0.327353
0.445812
0.569349
0.681051
0.766
0.827085
0.867959
0.890056
0.898204
0.899769
0.899662
0.899472
0.899378
-0.275003
-0.245475
-0.185733
-0.104066
-0.00989651
0.0918394
0.200166
0.314843
0.435599
0.562277
0.678088
0.76747
0.83235
0.875408
0.897551
0.9044
0.904692
0.904061
0.90386
0.903829
-0.29493
-0.264776
-0.204293
-0.121735
-0.0266052
0.0762027
0.1858
0.302009
0.424753
0.554229
0.673908
0.7679
0.837135
0.883142
0.906061
0.911772
0.91014
0.908241
0.907808
0.908093
-0.314153
-0.283451
-0.222252
-0.1389
-0.0429387
0.0607954
0.17146
0.288951
0.413376
0.545283
0.668473
0.767098
0.841177
0.890895
0.915766
0.921507
0.918198
0.913897
0.91186
0.91186
-0.332764
-0.301501
-0.23963
-0.155597
-0.0589332
0.0455759
0.157093
0.275616
0.401405
0.535372
0.661645
0.764788
0.844201
0.898226
0.926232
0.934118
0.931214
0.923993
0.915883
0.907601
-0.350696
-0.31891
-0.256553
-0.172023
-0.0748705
0.0302235
0.142298
0.261539
0.388327
0.523893
0.652821
0.760245
0.845764
0.90461
0.936062
0.947903
0.94593
0.933243
0.912265
0.90756
-0.367781
-0.335706
-0.272849
-0.188002
-0.0904315
0.0150558
0.127284
0.247035
0.37443
0.511073
0.642023
0.752858
0.84495
0.90883
0.941188
0.953358
0.952984
0.926202
0.860868
0.832442
-0.38356
-0.353192
-0.288157
-0.203063
-0.104775
0.000586889
0.112367
0.232356
0.359959
0.497053
0.629202
0.7422
0.840303
0.909927
0.936716
0.943535
0.927831
0.871297
0.80231
0.760876
-0.432481
-0.369589
-0.301988
-0.218155
-0.11927
-0.0144952
0.0975701
0.217271
0.344583
0.481382
0.613741
0.727618
0.827684
0.904198
0.911707
0.903537
0.849014
0.776332
0.698935
0.656194
-0.399711
-0.38293
-0.322722
-0.237759
-0.141203
-0.0365314
0.0746278
0.193692
0.320077
0.455563
0.586347
0.699059
0.791361
0.875012
0.857498
0.738267
0.631564
0.556553
0.482697
0.512535
-0.430302
-0.400453
-0.339038
-0.255028
-0.158372
-0.0537886
0.0575976
0.176033
0.301397
0.435176
0.563322
0.672188
0.754427
0.799445
0.747319
0.59363
0.465119
0.373102
0.275192
0.323744
-0.453482
-0.421267
-0.358242
-0.27416
-0.177427
-0.0729087
0.0383785
0.155994
0.279978
0.411383
0.535785
0.638371
0.711042
0.71956
0.609207
0.436006
0.284647
0.166415
0.0382511
0.0725622
-0.476136
-0.442614
-0.378343
-0.293421
-0.19665
-0.0923005
0.0184573
0.135102
0.257484
0.386085
0.505709
0.600096
0.656949
0.63339
0.470989
0.275492
0.0900273
-0.0741196
-0.258129
-0.268602
-0.498291
-0.464353
-0.399225
-0.313589
-0.216703
-0.112602
-0.00251497
0.113016
0.233514
0.358876
0.472931
0.559091
0.595672
0.534653
0.339201
0.128204
-0.0826822
-0.261115
-0.506654
-0.766012
-0.520775
-0.486827
-0.421214
-0.335131
-0.23809
-0.134184
-0.024706
0.0896652
0.208149
0.329985
0.438065
0.515546
0.529693
0.417191
0.223553
0.0105408
-0.193808
-0.358283
-0.436326
-0.542528
-0.544539
-0.510499
-0.444638
-0.358353
-0.261301
-0.157688
-0.0489208
0.0641068
0.180235
0.297985
0.399638
0.46562
0.454129
0.307076
0.11963
-0.0768022
-0.245411
-0.337718
-0.361139
-0.377256
-0.569845
-0.535675
-0.469658
-0.383331
-0.286462
-0.183325
-0.0755169
0.0358521
0.149182
0.26215
0.35692
0.407918
0.377709
0.204083
0.0249314
-0.146681
-0.27608
-0.315184
-0.327139
-0.328341
-0.596901
-0.562521
-0.496335
-0.410066
-0.313523
-0.211098
-0.104514
0.00484994
0.114924
0.222482
0.309444
0.345103
0.292985
0.10924
-0.0609434
-0.213194
-0.290916
-0.308145
-0.309142
-0.30893
-0.62576
-0.591093
-0.524692
-0.438559
-0.342505
-0.240999
-0.135919
-0.0289149
0.0774766
0.179066
0.257222
0.280359
0.192073
0.0227409
-0.139212
-0.263038
-0.300824
-0.298843
-0.298309
-0.297744
-0.656133
-0.621231
-0.554631
-0.468726
-0.373323
-0.272975
-0.169702
-0.0654164
0.0368828
0.132025
0.201203
0.20715
0.100392
-0.0573385
-0.200975
-0.278147
-0.288553
-0.291045
-0.291494
-0.291221
-0.68748
-0.652448
-0.58591
-0.500342
-0.405793
-0.306872
-0.205712
-0.104526
-0.00665563
0.0817205
0.142022
0.132786
0.0176262
-0.125201
-0.24399
-0.282838
-0.287475
-0.287479
-0.287065
-0.286738
-0.719328
-0.68418
-0.618075
-0.533013
-0.439573
-0.34237
-0.243669
-0.14596
-0.0528421
0.0289124
0.0786114
0.0613053
-0.0579678
-0.179901
-0.271879
-0.285878
-0.28287
-0.283666
-0.28396
-0.283742
-0.750798
-0.715748
-0.650235
-0.566144
-0.474125
-0.379
-0.283121
-0.189233
-0.101232
-0.0256549
0.0137714
-0.00465588
-0.124661
-0.219991
-0.274278
-0.28479
-0.283704
-0.282899
-0.282571
-0.282449
-0.780345
-0.746049
-0.681422
-0.598807
-0.508685
-0.416064
-0.323414
-0.233644
-0.15106
-0.0813799
-0.0460306
-0.076137
-0.179899
-0.26062
-0.266885
-0.281054
-0.283432
-0.281925
-0.281453
-0.281241
-0.806344
-0.773125
-0.710573
-0.62983
-0.542215
-0.452632
-0.363691
-0.278322
-0.201163
-0.137464
-0.102515
-0.14244
-0.227231
-0.292446
-0.307917
-0.297309
-0.288797
-0.284788
-0.283623
-0.283074
-0.826692
-0.795165
-0.735493
-0.657831
-0.573439
-0.487572
-0.402868
-0.322247
-0.250318
-0.192666
-0.15971
-0.195074
-0.26032
-0.330875
-0.359044
-0.32275
-0.304103
-0.297865
-0.295115
-0.29365
-0.839169
-0.810319
-0.754404
-0.680863
-0.600861
-0.519573
-0.439758
-0.364243
-0.297427
-0.245283
-0.213609
-0.235326
-0.264647
-0.314379
-0.305888
-0.308396
-0.311921
-0.311845
-0.309264
-0.308799
-0.841118
-0.816252
-0.76532
-0.697163
-0.622793
-0.547233
-0.473044
-0.403097
-0.341401
-0.294067
-0.257385
-0.266722
-0.243779
-0.240163
-0.256832
-0.280318
-0.290905
-0.295124
-0.297592
-0.2986
-0.8304
-0.810337
-0.766083
-0.705143
-0.637782
-0.569069
-0.501414
-0.437525
-0.381229
-0.338211
-0.294518
-0.295016
-0.254745
-0.202994
-0.244625
-0.279823
-0.295534
-0.302068
-0.304872
-0.30569
-0.804828
-0.789817
-0.754877
-0.703557
-0.644835
-0.584095
-0.523699
-0.466196
-0.415641
-0.377041
-0.332438
-0.336814
-0.348232
-0.33584
-0.344138
-0.344824
-0.341137
-0.338716
-0.337589
-0.337628
-0.767117
-0.757444
-0.73252
-0.692546
-0.643916
-0.592028
-0.539195
-0.488058
-0.442811
-0.409187
-0.382942
-0.391901
-0.45559
-0.570315
-0.557362
-0.44945
-0.385169
-0.36019
-0.352431
-0.350316
-0.724016
-0.71851
-0.7038
-0.674911
-0.636908
-0.593615
-0.547928
-0.50244
-0.460965
-0.43056
-0.405407
-0.395845
-0.383301
-0.411211
-0.387265
-0.331295
-0.294798
-0.279931
-0.273525
-0.270079
-0.68516
-0.681853
-0.674809
-0.655976
-0.626743
-0.590675
-0.550992
-0.509241
-0.469137
-0.434941
-0.409821
-0.347311
-0.207432
-0.0407659
0.0951623
0.0524933
-0.0596564
-0.149546
-0.180192
-0.185946
-0.657049
-0.655006
-0.651372
-0.639951
-0.617243
-0.586322
-0.550206
-0.510361
-0.468065
-0.428468
-0.399799
-0.337681
-0.280567
-0.250579
-0.363722
-0.576229
-0.717238
-0.707788
-0.618229
-0.597824
-0.635815
-0.635037
-0.633827
-0.628173
-0.611114
-0.58331
-0.54811
-0.50744
-0.462205
-0.416137
-0.378989
-0.366788
-0.432969
-0.669388
-0.943465
-1.07806
-1.14862
-1.1131
-1.01756
-0.964141
-0.623615
-0.623361
-0.622808
-0.620245
-0.60811
-0.581724
-0.545648
-0.502315
-0.453278
-0.395729
-0.351991
-0.316674
-0.379719
-0.513459
-0.727341
-0.874232
-0.832998
-0.666316
-0.502641
-0.424725
-0.614977
-0.614916
-0.614649
-0.613928
-0.60619
-0.581558
-0.54388
-0.497419
-0.441461
-0.373734
-0.306331
-0.223523
-0.11564
0.0067547
0.173111
0.318964
0.526258
0.716316
0.828993
0.873239
-0.608442
-0.608385
-0.608106
-0.607997
-0.603127
-0.582711
-0.544247
-0.493164
-0.430186
-0.354009
-0.256619
-0.153534
0.0478896
0.376157
0.765376
1.15994
1.47752
1.67511
1.76038
1.78392
-0.604362
-0.604109
-0.603291
-0.601626
-0.600089
-0.586381
-0.547529
-0.49097
-0.423007
-0.335511
-0.22859
-0.117885
0.0998751
0.471759
0.906086
1.30185
1.6123
1.79008
1.85938
1.87519
-0.603977
-0.604489
-0.605767
-0.607232
-0.608465
-0.597057
-0.553342
-0.493673
-0.421748
-0.329867
-0.222591
-0.112105
0.0490415
0.398849
0.765017
1.08924
1.33344
1.46749
1.51774
1.52846
-0.602325
-0.604059
-0.609045
-0.619122
-0.627294
-0.607942
-0.559346
-0.502068
-0.428723
-0.335549
-0.232412
-0.130642
-0.010225
0.261211
0.542523
0.779784
0.95227
1.042
1.07425
1.07976
-0.613998
-0.614968
-0.611739
-0.597624
-0.580853
-0.57052
-0.556393
-0.516622
-0.443794
-0.350264
-0.251948
-0.158495
-0.0655349
0.126325
0.322936
0.478754
0.587419
0.640175
0.658177
0.661459
-0.656577
-0.654923
-0.637259
-0.586874
-0.533357
-0.535218
-0.568848
-0.541696
-0.46416
-0.366661
-0.274415
-0.193526
-0.119331
0.012778
0.137615
0.227261
0.283609
0.30885
0.320553
0.323477
-0.729779
-0.728827
-0.738395
-0.749341
-0.744599
-0.722791
-0.694389
-0.598131
-0.490152
-0.383477
-0.296275
-0.225857
-0.166982
-0.0747163
0.00624445
0.0569369
0.0824497
0.0940159
0.10293
0.106705
-0.878297
-0.899931
-0.954789
-1.0115
-1.0244
-0.981674
-0.853501
-0.672663
-0.518396
-0.396265
-0.310984
-0.254624
-0.212554
-0.137843
-0.0742427
-0.0343578
-0.0121158
0.000865315
0.00836122
0.0109971
-0.987643
-1.01352
-1.06111
-1.10171
-1.11111
-1.06319
-0.910712
-0.697643
-0.522078
-0.394121
-0.313731
-0.267898
-0.240842
-0.172913
-0.113848
-0.0708353
-0.0400962
-0.0238774
-0.0169089
-0.0158382
-0.915662
-0.937041
-0.973361
-1.00745
-1.01614
-0.966656
-0.811303
-0.630074
-0.477838
-0.365
-0.296405
-0.26292
-0.237461
-0.181149
-0.126609
-0.0849511
-0.0522319
-0.0342445
-0.0279823
-0.0282035
-0.65135
-0.670965
-0.706945
-0.746505
-0.764195
-0.7245
-0.612848
-0.492744
-0.389429
-0.311125
-0.260008
-0.233452
-0.210599
-0.163957
-0.1208
-0.0856143
-0.0590479
-0.0437011
-0.0382404
-0.0385989
-0.292093
-0.305247
-0.332373
-0.366083
-0.393464
-0.395747
-0.369169
-0.326934
-0.283479
-0.242359
-0.209565
-0.186107
-0.166114
-0.136331
-0.106639
-0.0821372
-0.0634405
-0.0527579
-0.0497384
-0.0507473
0.00278831
-0.00362956
-0.0209218
-0.051758
-0.0926147
-0.13078
-0.159698
-0.177105
-0.18058
-0.170391
-0.154474
-0.13617
-0.119209
-0.104692
-0.0893765
-0.0756998
-0.0646165
-0.058466
-0.0571991
-0.0585328
0.157351
0.153638
0.141397
0.114843
0.0718198
0.0178452
-0.0333355
-0.0732304
-0.0983454
-0.108192
-0.103449
-0.0908289
-0.0810197
-0.0780043
-0.0749106
-0.071234
-0.067538
-0.0660654
-0.0664425
-0.0678041
0.20222
0.19988
0.190917
0.169851
0.133747
0.0867244
0.0364942
-0.00866395
-0.0421726
-0.060344
-0.0624213
-0.0559555
-0.0523387
-0.0579954
-0.0646403
-0.0698722
-0.0741574
-0.0782506
-0.0804177
-0.0813349
0.19269
0.191166
0.184947
0.169919
0.143507
0.107582
0.0665907
0.0272596
-0.00539011
-0.0265511
-0.0324134
-0.0298337
-0.0307242
-0.0428283
-0.056452
-0.0686548
-0.078885
-0.0865734
-0.0894917
-0.0899227
0.163499
0.1626
0.158537
0.148453
0.130299
0.104694
0.0735662
0.0418078
0.0136235
-0.00601217
-0.0127207
-0.0108162
-0.0129093
-0.0291073
-0.0474617
-0.0627718
-0.075115
-0.0832446
-0.0858435
-0.0860586
0.13013
0.129691
0.127168
0.120652
0.108557
0.0908673
0.0683518
0.0441344
0.0209499
0.00321985
-0.00410035
-0.00258446
-0.00463431
-0.0223415
-0.040032
-0.0538189
-0.0641631
-0.069893
-0.0715737
-0.0718464
0.0984201
0.0981636
0.0966766
0.09259
0.0847406
0.0728188
0.0569817
0.0390504
0.0204638
0.00378551
-0.00668249
-0.0105675
-0.0152179
-0.0288568
-0.0398583
-0.0473218
-0.0525344
-0.0547932
-0.0554881
-0.0558558
0.0701411
0.0700321
0.069198
0.0667907
0.0617351
0.0539177
0.0430767
0.030072
0.0153805
-0.000723048
-0.0174897
-0.0345047
-0.0445239
-0.04608
-0.0448666
-0.0439465
-0.0442001
-0.0440404
-0.0440698
-0.0444342
0.0452524
0.0452408
0.0448401
0.0435332
0.0407104
0.0359438
0.029063
0.0202122
0.0091723
-0.00554908
-0.027763
-0.057506
-0.0711884
-0.0599359
-0.0475145
-0.0415023
-0.0386144
-0.0375746
-0.037206
-0.0373722
0.0235131
0.0235606
0.0234296
0.0229204
0.0215766
0.0192423
0.0156538
0.0108499
0.00466019
-0.00613289
-0.025559
-0.0568841
-0.0690266
-0.0513586
-0.0371637
-0.0307021
-0.02897
-0.0284365
-0.0279092
-0.0277964
0.00417453
0.00423541
0.004203
0.00430889
0.00449902
0.00436705
0.0038432
0.00302915
0.00185112
0.000199349
-0.00323821
-0.0116211
-0.0200665
-0.0155159
-0.0139541
-0.0121987
-0.0108259
-0.00951601
-0.0083046
-0.00767227
-0.0743908
0.112127
0.31095
0.477605
0.609871
0.713284
0.798823
0.870815
0.900565
0.884503
0.246686
0.368886
0.496505
0.606373
0.698495
0.774541
0.835703
0.87864
0.900973
0.913963
0.463333
0.54596
0.632599
0.709515
0.775324
0.830253
0.873789
0.905908
0.929609
0.947579
0.621176
0.679841
0.740471
0.796705
0.845381
0.886635
0.920582
0.948073
0.970492
0.988812
0.744902
0.786928
0.833497
0.876137
0.914252
0.947567
0.976155
1.00029
1.02002
1.038
0.8478
0.880539
0.918644
0.953736
0.985932
1.01493
1.04036
1.06196
1.07895
1.09656
0.939765
0.968454
1.00225
1.03424
1.06398
1.09102
1.11476
1.13454
1.14911
1.16656
1.02798
1.05728
1.0911
1.12312
1.15262
1.17914
1.20199
1.22038
1.233
1.25046
1.12308
1.15658
1.1929
1.22653
1.2565
1.28258
1.30444
1.32149
1.3329
1.3507
1.23783
1.27634
1.3145
1.34865
1.37785
1.40247
1.42272
1.43839
1.4497
1.46803
1.38245
1.42189
1.4574
1.48776
1.51329
1.53531
1.55429
1.5698
1.58243
1.60055
1.55711
1.58914
1.6149
1.63721
1.65724
1.67596
1.69357
1.7101
1.72583
1.74403
1.74467
1.76222
1.77773
1.7943
1.81044
1.82498
1.83799
1.85196
1.86903
1.88871
1.92624
1.9372
1.94934
1.96012
1.96937
1.97892
1.98979
2.00138
2.01132
2.02649
2.13724
2.13925
2.12409
2.10886
2.10248
2.10813
2.12673
2.15714
2.18928
2.22002
2.44315
2.30611
2.2298
2.18769
2.17024
2.17428
2.20163
2.25778
2.36123
2.57651
0.766555
0.763181
0.757256
0.747453
0.734516
0.722102
0.711803
0.703877
0.698249
0.695005
0.694682
0.697468
0.702625
0.709905
0.719364
0.731067
0.744208
0.756206
0.763666
0.768388
0.684556
0.690442
0.697349
0.702592
0.705445
0.705125
0.702233
0.69833
0.694792
0.692541
0.692428
0.694675
0.698401
0.702786
0.706754
0.70877
0.707668
0.703585
0.697697
0.690653
0.676878
0.679225
0.682578
0.685489
0.687712
0.689522
0.690496
0.69026
0.689257
0.6884
0.688614
0.690086
0.691941
0.693249
0.693316
0.692161
0.690364
0.68803
0.684881
0.68192
0.671703
0.672789
0.674657
0.677044
0.679011
0.680413
0.681524
0.682404
0.682903
0.683192
0.683734
0.68457
0.685155
0.685155
0.684656
0.683802
0.682411
0.680363
0.678259
0.676847
0.666565
0.667219
0.66833
0.670056
0.671869
0.673497
0.674779
0.67583
0.676786
0.677655
0.678446
0.679025
0.679217
0.67905
0.678517
0.677509
0.676087
0.674526
0.67321
0.672429
0.661586
0.66204
0.662826
0.664127
0.66563
0.667176
0.668661
0.669974
0.671146
0.672263
0.673245
0.673863
0.674049
0.673819
0.673156
0.672176
0.671053
0.66993
0.669027
0.668509
0.656724
0.657064
0.657676
0.658749
0.660048
0.661441
0.66291
0.664389
0.6658
0.667135
0.668318
0.669083
0.669322
0.669092
0.668518
0.66776
0.666929
0.66608
0.66542
0.66504
0.651937
0.652202
0.652695
0.65361
0.654788
0.6561
0.65752
0.659048
0.660639
0.662226
0.66366
0.664615
0.664986
0.664915
0.66456
0.664033
0.663412
0.662793
0.662314
0.662024
0.647146
0.647356
0.647767
0.648572
0.649673
0.650939
0.652351
0.653927
0.655658
0.657495
0.659229
0.660458
0.661077
0.661259
0.661146
0.660847
0.660437
0.660013
0.659674
0.659448
0.642263
0.642431
0.642784
0.643517
0.644573
0.645822
0.647266
0.648931
0.650825
0.652928
0.65502
0.656621
0.657578
0.65806
0.658209
0.658148
0.657956
0.657709
0.657487
0.657307
0.637198
0.637334
0.637646
0.638335
0.639377
0.640653
0.642168
0.643966
0.646079
0.648505
0.651035
0.653099
0.654461
0.655291
0.655738
0.655932
0.655956
0.655883
0.655762
0.655617
0.63186
0.63197
0.632254
0.632925
0.633987
0.635336
0.636967
0.638952
0.641353
0.644189
0.647256
0.649878
0.651717
0.652949
0.653736
0.654208
0.654464
0.654563
0.654529
0.654411
0.626152
0.626238
0.626507
0.627184
0.628303
0.629766
0.631569
0.63381
0.636578
0.63993
0.643657
0.646947
0.649352
0.651052
0.652222
0.653022
0.653533
0.653798
0.653843
0.653746
0.619962
0.620027
0.62029
0.620996
0.622209
0.623835
0.625873
0.628449
0.631684
0.635678
0.64021
0.644303
0.647382
0.649632
0.651245
0.652411
0.653207
0.653652
0.653771
0.653691
0.613158
0.613203
0.613467
0.614224
0.615573
0.617417
0.619763
0.622767
0.626593
0.631379
0.636887
0.641945
0.645825
0.648726
0.650861
0.652442
0.653563
0.654205
0.654397
0.65433
0.605585
0.60561
0.605875
0.606707
0.608233
0.610363
0.613102
0.616651
0.621213
0.626973
0.633665
0.639879
0.644708
0.648375
0.65113
0.653204
0.654696
0.65555
0.655816
0.655758
0.597019
0.597032
0.597313
0.598244
0.600006
0.602479
0.605726
0.609962
0.615441
0.622396
0.63052
0.638114
0.644067
0.648636
0.652121
0.654791
0.656706
0.65779
0.658129
0.658078
0.58718
0.587165
0.587497
0.588572
0.590619
0.593553
0.597443
0.602541
0.60916
0.617581
0.627436
0.636669
0.643948
0.649581
0.653922
0.657282
0.659688
0.661026
0.661438
0.661388
0.575752
0.575712
0.576093
0.57736
0.579777
0.583304
0.588008
0.594196
0.602241
0.612467
0.624403
0.635573
0.644398
0.651276
0.656622
0.660776
0.663746
0.665352
0.665832
0.66578
0.562241
0.562176
0.562636
0.564158
0.567062
0.571356
0.577117
0.584702
0.594545
0.606991
0.621422
0.634864
0.645476
0.653779
0.660298
0.665367
0.668956
0.670838
0.671376
0.671316
0.545985
0.545892
0.546479
0.548355
0.551911
0.557235
0.564393
0.573802
0.585932
0.601116
0.618517
0.634589
0.647239
0.657162
0.665002
0.671102
0.675364
0.67751
0.678087
0.678011
0.526029
0.52591
0.526703
0.529094
0.533568
0.540321
0.54939
0.561227
0.576298
0.594852
0.615753
0.634822
0.649754
0.661478
0.670762
0.678006
0.682955
0.685325
0.685911
0.685813
0.500925
0.500795
0.501927
0.505119
0.510982
0.519828
0.531608
0.546751
0.565621
0.588294
0.613256
0.635667
0.65308
0.666757
0.677608
0.68605
0.691632
0.694147
0.6947
0.694571
0.468325
0.468222
0.46997
0.47455
0.482733
0.49485
0.510613
0.530297
0.554029
0.581644
0.611216
0.637252
0.65729
0.67301
0.685486
0.695117
0.701191
0.70372
0.70419
0.704026
0.42402
0.424092
0.427192
0.434667
0.447169
0.464628
0.486297
0.512105
0.541884
0.57525
0.609888
0.639725
0.662449
0.680226
0.694312
0.705001
0.711296
0.713659
0.713997
0.7138
0.360126
0.361365
0.36893
0.382943
0.403357
0.429318
0.459297
0.492892
0.52981
0.569572
0.609547
0.643225
0.668578
0.688329
0.703839
0.715255
0.721452
0.723414
0.723583
0.723371
0.284184
0.286317
0.300899
0.325
0.356372
0.392351
0.43136
0.473215
0.51774
0.564486
0.610554
0.648859
0.677495
0.699657
0.71677
0.728781
0.734624
0.736245
0.73636
0.736229
0.206129
0.212651
0.234326
0.268721
0.310603
0.356342
0.404352
0.454517
0.50672
0.560529
0.612794
0.655799
0.687666
0.71218
0.730991
0.743063
0.74808
0.749188
0.749247
0.749189
0.142368
0.151075
0.177304
0.218834
0.268957
0.322994
0.379131
0.437086
0.496622
0.557224
0.615404
0.662792
0.697625
0.724117
0.743788
0.755703
0.760314
0.761317
0.761424
0.761425
0.0904109
0.0997351
0.129535
0.176334
0.232641
0.293348
0.356349
0.42118
0.487417
0.554394
0.61819
0.66973
0.707313
0.735603
0.756218
0.768268
0.77266
0.773585
0.773744
0.773791
0.0469968
0.0565897
0.0888425
0.139666
0.201048
0.267294
0.336106
0.406941
0.479207
0.552077
0.621192
0.67673
0.716994
0.747116
0.768774
0.781002
0.785336
0.786426
0.786614
0.7867
0.00971136
0.0194005
0.0534768
0.10752
0.173118
0.2441
0.317985
0.394142
0.471872
0.550211
0.624382
0.683794
0.726708
0.758632
0.781337
0.794109
0.798725
0.799852
0.800038
0.800138
-0.0231411
-0.0134304
0.0220392
0.0788053
0.147937
0.22301
0.301396
0.382364
0.46513
0.548599
0.627599
0.690768
0.736289
0.77003
0.793939
0.807344
0.812216
0.813447
0.813628
0.813708
-0.0528565
-0.0431189
-0.00651096
0.0526066
0.124763
0.203427
0.285835
0.37119
0.458623
0.546946
0.6306
0.69745
0.745534
0.781091
0.806074
0.820158
0.825404
0.826691
0.826852
0.826914
-0.0803395
-0.0705735
-0.0329829
0.0282049
0.103035
0.184891
0.270903
0.360258
0.452043
0.544997
0.633186
0.703649
0.754243
0.791523
0.817604
0.832282
0.837903
0.839254
0.839383
0.839416
-0.10618
-0.09635
-0.0578618
0.00507562
0.08232
0.167039
0.256301
0.34932
0.445173
0.542556
0.635185
0.709234
0.762298
0.801242
0.828316
0.843515
0.849409
0.850798
0.85089
0.850888
-0.130857
-0.120911
-0.0815197
-0.0171328
0.0623368
0.149613
0.241819
0.338196
0.437846
0.53946
0.636465
0.714128
0.769661
0.810207
0.838191
0.853733
0.859768
0.861179
0.861248
0.861216
-0.154675
-0.144526
-0.104418
-0.0385581
0.0428884
0.132441
0.227309
0.326759
0.429939
0.535603
0.636945
0.718288
0.776338
0.818425
0.847149
0.862914
0.868983
0.870348
0.870408
0.870346
-0.177749
-0.167416
-0.126643
-0.0593358
0.0238348
0.115431
0.212689
0.314933
0.421384
0.5309
0.636537
0.721683
0.782369
0.82602
0.855357
0.871177
0.87713
0.878442
0.878451
0.878375
-0.20028
-0.189687
-0.148171
-0.079596
0.00510696
0.0985265
0.197922
0.302691
0.412149
0.525299
0.635169
0.724282
0.787825
0.833143
0.862983
0.87866
0.884374
0.885553
0.885517
0.885418
-0.222226
-0.211385
-0.169171
-0.0994053
-0.0133154
0.0817219
0.183018
0.290043
0.402229
0.518765
0.632781
0.726034
0.792757
0.839951
0.870246
0.88555
0.890831
0.891804
0.89171
0.891592
-0.243665
-0.232535
-0.189597
-0.118762
-0.0314275
0.0650309
0.168
0.277029
0.391658
0.511302
0.629315
0.726871
0.797171
0.84661
0.877426
0.892089
0.896621
0.897259
0.897097
0.896976
-0.264448
-0.253103
-0.20944
-0.137631
-0.0491981
0.0485093
0.15292
0.263705
0.380493
0.502948
0.624731
0.726702
0.801014
0.853229
0.884873
0.898719
0.902063
0.90206
0.901778
0.901683
-0.284708
-0.273045
-0.228698
-0.156007
-0.0666064
0.0321858
0.13786
0.25014
0.368807
0.493765
0.619017
0.725411
0.804152
0.859799
0.892916
0.906127
0.907847
0.906541
0.905887
0.905875
-0.304299
-0.29234
-0.247357
-0.173853
-0.0835823
0.0161379
0.122893
0.236446
0.356699
0.483807
0.612193
0.722873
0.806388
0.86614
0.901648
0.915109
0.915327
0.911929
0.909872
0.909371
-0.323277
-0.311041
-0.265367
-0.191126
-0.100098
0.000428416
0.108099
0.222697
0.344271
0.473198
0.604311
0.718959
0.807471
0.871879
0.910665
0.925939
0.926228
0.92098
0.914904
0.906729
-0.341571
-0.329114
-0.282809
-0.207982
-0.116365
-0.0152084
0.0931549
0.208509
0.331102
0.461468
0.594888
0.713162
0.807002
0.876806
0.919493
0.938232
0.941197
0.935174
0.924067
0.921016
-0.359132
-0.346549
-0.299682
-0.22439
-0.132384