/*--------------------------------*- C++ -*----------------------------------*\
| =========                 |                                                 |
| \\      /  F ield         | OpenFOAM: The Open Source CFD Toolbox           |
|  \\    /   O peration     | Version:  2306                                  |
|   \\  /    A nd           | Website:  www.openfoam.com                      |
|    \\/     M anipulation  |                                                 |
\*---------------------------------------------------------------------------*/
FoamFile
{
    version     2.0;
    format      ascii;
    arch        "LSB;label=32;scalar=64";
    class       volScalarField;
    location    "9";
    object      p;
}
// * * * * * * * * * * * * * * * * * * * * * * * * * * * * * * * * * * * * * //

dimensions      [0 2 -2 0 0 0 0];

internalField   nonuniform List<scalar> 
8800
(
0.417762
0.369802
0.331585
0.303155
0.282793
0.268305
0.257995
0.250777
0.246134
0.244097
0.245052
0.248784
0.254932
0.263765
0.276098
0.293323
0.317461
0.350845
0.393126
0.450196
0.249976
0.257255
0.265853
0.2695
0.267855
0.262696
0.256423
0.250665
0.246186
0.243408
0.242959
0.245096
0.249082
0.254488
0.260795
0.266875
0.270615
0.269795
0.263486
0.254349
0.226093
0.232498
0.2372
0.241078
0.244097
0.245408
0.244723
0.242845
0.240905
0.239847
0.240571
0.242578
0.24491
0.24655
0.246419
0.244245
0.240786
0.236565
0.231557
0.227728
0.220631
0.22351
0.226895
0.229863
0.23193
0.233453
0.234567
0.235121
0.235193
0.235275
0.235593
0.236029
0.236104
0.235501
0.23435
0.232708
0.230293
0.226991
0.224
0.222496
0.216183
0.217594
0.220506
0.223687
0.226358
0.228352
0.229702
0.230556
0.231086
0.231433
0.231762
0.231891
0.231602
0.230789
0.229314
0.227115
0.224255
0.221075
0.218954
0.218382
0.215213
0.215787
0.217239
0.218979
0.220765
0.222592
0.224246
0.225561
0.226485
0.227109
0.227415
0.227297
0.22667
0.225535
0.224007
0.222327
0.220668
0.219056
0.218081
0.217874
0.214097
0.214382
0.215162
0.216192
0.21732
0.218394
0.21955
0.220657
0.22164
0.222403
0.222781
0.222689
0.222227
0.221501
0.220677
0.219778
0.218839
0.217961
0.21747
0.217371
0.212057
0.212192
0.212632
0.213306
0.214064
0.21508
0.216124
0.217169
0.218175
0.219047
0.219546
0.219589
0.219277
0.218711
0.218079
0.217465
0.216908
0.216415
0.216176
0.21613
0.2093
0.209367
0.209629
0.210078
0.210614
0.211264
0.212034
0.212927
0.213889
0.214826
0.215497
0.215781
0.215777
0.215613
0.215353
0.215057
0.214748
0.214484
0.214371
0.21435
0.20614
0.206184
0.206363
0.206693
0.207136
0.207707
0.208421
0.209285
0.210284
0.211358
0.212252
0.212783
0.213014
0.213051
0.21297
0.212836
0.212675
0.212542
0.21249
0.212477
0.20259
0.202621
0.202753
0.203003
0.203368
0.203874
0.204553
0.205437
0.206527
0.207789
0.208948
0.209749
0.210234
0.210498
0.210618
0.210652
0.210636
0.21061
0.210602
0.210594
0.198677
0.198705
0.198822
0.199044
0.19939
0.199895
0.200607
0.201574
0.202825
0.204355
0.205851
0.206976
0.207714
0.20819
0.208477
0.208639
0.208724
0.208765
0.208784
0.208777
0.194374
0.194397
0.194519
0.194749
0.195114
0.195666
0.196468
0.197588
0.199086
0.200972
0.202878
0.204347
0.205401
0.206098
0.20655
0.206831
0.206999
0.207093
0.207132
0.207126
0.189644
0.189668
0.189803
0.190062
0.190483
0.191127
0.192079
0.193431
0.195266
0.19762
0.200044
0.201975
0.203346
0.204287
0.20491
0.205309
0.205554
0.205694
0.205751
0.205744
0.184401
0.18443
0.184591
0.184903
0.185412
0.186197
0.187366
0.189037
0.191324
0.194282
0.197355
0.199819
0.20159
0.202814
0.203631
0.204159
0.204488
0.204675
0.204752
0.204745
0.178527
0.178562
0.178764
0.179153
0.179788
0.180771
0.182234
0.184332
0.187211
0.190942
0.194829
0.197953
0.200208
0.20177
0.202816
0.203494
0.203917
0.204158
0.204257
0.204248
0.171861
0.171905
0.172164
0.172658
0.173465
0.174713
0.17657
0.17923
0.182874
0.187591
0.1925
0.196441
0.199287
0.20126
0.202582
0.203441
0.203976
0.204282
0.204407
0.204396
0.164185
0.164243
0.164576
0.165212
0.16625
0.167853
0.17023
0.173623
0.178256
0.184227
0.190414
0.195369
0.198942
0.201418
0.203078
0.204155
0.204828
0.205212
0.205368
0.205354
0.155202
0.15528
0.155713
0.156542
0.157893
0.159969
0.163035
0.167388
0.173295
0.180855
0.18864
0.194847
0.199313
0.202406
0.204479
0.205825
0.206664
0.207143
0.207337
0.207319
0.144507
0.144612
0.145184
0.146278
0.14806
0.15078
0.154764
0.160378
0.167927
0.177496
0.187263
0.195009
0.20057
0.204419
0.207001
0.208676
0.209718
0.210311
0.21055
0.210529
0.131527
0.13167
0.132439
0.133914
0.136308
0.139924
0.145138
0.152422
0.162093
0.174187
0.186394
0.196013
0.202906
0.207681
0.210889
0.212973
0.214266
0.214998
0.215292
0.215265
0.115446
0.115644
0.116699
0.118741
0.12201
0.126864
0.13381
0.14333
0.155745
0.170992
0.186163
0.198038
0.206541
0.212447
0.216433
0.219033
0.220647
0.221554
0.221914
0.221878
0.0950664
0.0953541
0.0968531
0.0997775
0.104355
0.111025
0.120385
0.132931
0.148879
0.168009
0.186721
0.201263
0.211691
0.21898
0.223941
0.227211
0.22926
0.230409
0.230857
0.230803
0.0685023
0.0689446
0.0712224
0.0756278
0.0822819
0.0917254
0.104574
0.121194
0.141613
0.165411
0.188242
0.205866
0.218554
0.227519
0.233717
0.237881
0.240545
0.242059
0.242643
0.242563
0.0324258
0.0332256
0.037159
0.0443665
0.0546089
0.0684564
0.0863211
0.108313
0.13423
0.163463
0.190922
0.211985
0.227249
0.238216
0.245989
0.251376
0.254956
0.257053
0.257876
0.257769
-0.0196295
-0.0173014
-0.00909092
0.00387509
0.0205026
0.0411579
0.0659426
0.0947325
0.127136
0.162437
0.194889
0.219636
0.237719
0.250991
0.260721
0.267796
0.272798
0.275978
0.277328
0.277188
-0.0980209
-0.0865907
-0.0678817
-0.0446797
-0.0185038
0.0111474
0.0443705
0.0809859
0.120597
0.162538
0.200455
0.229335
0.250733
0.266881
0.279259
0.288895
0.296409
0.301887
0.304861
0.305331
-0.181002
-0.156893
-0.126987
-0.0934325
-0.0575058
-0.0188039
0.02281
0.0673164
0.114466
0.163745
0.208126
0.242174
0.267844
0.287738
0.303559
0.316445
0.327099
0.336422
0.342478
0.343207
-0.245237
-0.218455
-0.180291
-0.138486
-0.0940723
-0.0470997
0.00244915
0.0545029
0.108836
0.165
0.215274
0.25375
0.282759
0.305275
0.323166
0.337651
0.349473
0.359093
0.364668
0.365493
-0.296086
-0.2672
-0.22456
-0.177081
-0.126386
-0.0728059
-0.0165152
0.0422386
0.10311
0.165535
0.22092
0.262919
0.294252
0.318231
0.336959
0.351859
0.363879
0.373483
0.379167
0.380072
-0.3368
-0.307324
-0.261522
-0.209844
-0.154447
-0.0956769
-0.0338561
0.0306279
0.0972628
0.165314
0.225307
0.270347
0.303508
0.32853
0.347795
0.362889
0.374883
0.384198
0.38985
0.390789
-0.371023
-0.341345
-0.293332
-0.238418
-0.179249
-0.116232
-0.0497531
0.0197363
0.0915997
0.16487
0.229106
0.276865
0.311614
0.337484
0.357121
0.372291
0.3842
0.393359
0.398927
0.399889
-0.400838
-0.371142
-0.321541
-0.2641
-0.201831
-0.135215
-0.0646785
0.00925608
0.085849
0.163954
0.23225
0.282671
0.318984
0.3457
0.365736
0.381034
0.392905
0.401954
0.407408
0.40837
-0.42771
-0.397954
-0.347112
-0.287645
-0.222852
-0.153222
-0.0791897
-0.00128959
0.0797077
0.162527
0.234915
0.288102
0.32608
0.353728
0.374232
0.389711
0.401589
0.41056
0.415908
0.416858
-0.452507
-0.422655
-0.370831
-0.309708
-0.242813
-0.170618
-0.0935066
-0.011998
0.0731493
0.160577
0.237157
0.293307
0.333141
0.361876
0.382958
0.398698
0.410644
0.419507
0.424765
0.425741
-0.475959
-0.445914
-0.393251
-0.330718
-0.26204
-0.187623
-0.107807
-0.0230402
0.0659967
0.157978
0.238937
0.298334
0.340302
0.37034
0.39215
0.408243
0.420308
0.429169
0.434247
0.435281
-0.498343
-0.468056
-0.414659
-0.35102
-0.280822
-0.204489
-0.122297
-0.0345693
0.0581455
0.154633
0.240172
0.303157
0.347603
0.37922
0.401956
0.418532
0.430789
0.439672
0.444614
0.445634
-0.519991
-0.489368
-0.435318
-0.370763
-0.299262
-0.221298
-0.137032
-0.0466497
0.0495073
0.150428
0.240731
0.307677
0.354998
0.38854
0.412457
0.429685
0.442242
0.451187
0.456018
0.456984
-0.540928
-0.509992
-0.455439
-0.390015
-0.317415
-0.238083
-0.152037
-0.0593042
0.0400303
0.145274
0.240475
0.311726
0.362362
0.39823
0.423651
0.441756
0.454759
0.463829
0.468579
0.469415
-0.561207
-0.529992
-0.474975
-0.408808
-0.335289
-0.254831
-0.167302
-0.0725289
0.0296983
0.139092
0.239249
0.315098
0.36948
0.408151
0.435476
0.454749
0.468387
0.477709
0.482398
0.483033
-0.58086
-0.549313
-0.493929
-0.427105
-0.352873
-0.271495
-0.182766
-0.0862747
0.0185316
0.131836
0.236914
0.317547
0.376081
0.418085
0.447804
0.468608
0.483082
0.492737
0.497422
0.497839
-0.599906
-0.567903
-0.512237
-0.444863
-0.370089
-0.288015
-0.198355
-0.100474
0.00657329
0.123486
0.233338
0.318813
0.381818
0.427706
0.460402
0.483208
0.498823
0.50895
0.513588
0.513774
-0.618165
-0.585932
-0.529835
-0.462053
-0.38687
-0.304304
-0.213986
-0.11503
-0.00610006
0.114088
0.228438
0.318677
0.386288
0.436476
0.472872
0.498338
0.515483
0.526143
0.530619
0.530533
-0.635654
-0.603218
-0.546701
-0.478609
-0.403138
-0.320287
-0.229554
-0.129848
-0.0193893
0.10369
0.222213
0.316955
0.389031
0.443752
0.484617
0.5138
0.533129
0.544243
0.548236
0.547788
-0.652362
-0.619588
-0.562802
-0.494483
-0.418831
-0.33587
-0.244963
-0.144811
-0.0331873
0.0923937
0.214678
0.313493
0.389665
0.448806
0.494796
0.529148
0.552163
0.563783
0.566005
0.564863
-0.668164
-0.635162
-0.578081
-0.5096
-0.4339
-0.350978
-0.260116
-0.159804
-0.0473578
0.0803379
0.205912
0.308244
0.387927
0.450954
0.502177
0.543125
0.572672
0.587125
0.585418
0.581298
-0.68316
-0.649885
-0.592552
-0.523984
-0.448373
-0.365656
-0.275073
-0.174895
-0.0619821
0.0674536
0.19586
0.30101
0.383607
0.449453
0.504906
0.553006
0.592465
0.61761
0.616781
0.597284
-0.697321
-0.663787
-0.606317
-0.5378
-0.462496
-0.380203
-0.290223
-0.190571
-0.0776414
0.053062
0.183902
0.291117
0.375868
0.443128
0.4998
0.552859
0.599691
0.628624
0.620338
0.59631
-0.710551
-0.676904
-0.619228
-0.550857
-0.476027
-0.394319
-0.305331
-0.206511
-0.0940344
0.0374712
0.170316
0.27873
0.364361
0.431724
0.483107
0.533113
0.571816
0.581466
0.517647
0.472002
-0.72243
-0.689574
-0.63089
-0.562573
-0.488422
-0.407609
-0.320145
-0.222546
-0.111048
0.0207533
0.155194
0.263965
0.348893
0.416494
0.45623
0.484829
0.505683
0.46522
0.386035
0.335016
-0.768938
-0.699058
-0.641536
-0.574047
-0.500786
-0.421113
-0.334744
-0.238938
-0.129044
0.00243412
0.138119
0.246606
0.327244
0.397357
0.416046
0.411453
0.381688
0.312008
0.218691
0.168499
-0.725131
-0.710763
-0.655439
-0.59043
-0.518173
-0.440057
-0.356468
-0.263521
-0.155949
-0.024612
0.112081
0.216635
0.285735
0.338217
0.343141
0.207161
0.078365
-0.0107097
-0.102086
-0.0451287
-0.751498
-0.723349
-0.66797
-0.603123
-0.531612
-0.454788
-0.372432
-0.282024
-0.177264
-0.0474672
0.090462
0.192593
0.251135
0.272554
0.204775
0.0156946
-0.156074
-0.279285
-0.41345
-0.315839
-0.769496
-0.737749
-0.681997
-0.616968
-0.546004
-0.470417
-0.389886
-0.302301
-0.201108
-0.0736977
0.0647528
0.164939
0.209358
0.197955
0.0522803
-0.202963
-0.417414
-0.584689
-0.779015
-0.67648
-0.785917
-0.752459
-0.695932
-0.630449
-0.560006
-0.485701
-0.407447
-0.323291
-0.226168
-0.100611
0.0397107
0.137698
0.164405
0.107359
-0.127806
-0.434131
-0.713474
-0.960269
-1.24516
-1.19185
-0.800474
-0.766803
-0.709721
-0.643975
-0.57412
-0.501218
-0.425526
-0.345227
-0.252837
-0.130009
0.0137027
0.112271
0.117192
0.00432506
-0.30407
-0.659888
-1.00895
-1.32162
-1.72699
-2.03944
-0.814164
-0.780703
-0.723448
-0.657738
-0.5885
-0.517095
-0.444188
-0.368401
-0.281742
-0.162865
-0.0159746
0.0864689
0.0709106
-0.097803
-0.46584
-0.85238
-1.23563
-1.54946
-1.73456
-2.06438
-0.827517
-0.794224
-0.737198
-0.671688
-0.603194
-0.533494
-0.463799
-0.393412
-0.31418
-0.200625
-0.0483096
0.0605007
0.0275749
-0.217217
-0.612623
-1.01154
-1.35587
-1.56622
-1.62011
-1.66432
-0.84076
-0.807611
-0.750761
-0.685574
-0.617991
-0.550233
-0.484314
-0.420454
-0.350671
-0.245318
-0.0879377
0.0350305
-0.0214869
-0.343578
-0.7436
-1.15056
-1.46222
-1.54084
-1.56301
-1.58591
-0.853926
-0.820747
-0.763895
-0.699088
-0.632514
-0.566957
-0.505383
-0.44935
-0.393023
-0.301537
-0.140023
0.00199603
-0.08129
-0.472929
-0.868305
-1.27901
-1.6579
-1.6688
-1.6319
-1.62712
-0.866709
-0.833322
-0.776267
-0.711853
-0.64633
-0.583145
-0.526415
-0.479781
-0.440358
-0.373354
-0.218166
-0.0597719
-0.170061
-0.614052
-0.992732
-1.35977
-1.81458
-1.84315
-1.66785
-1.62614
-0.878587
-0.844848
-0.787488
-0.723378
-0.658849
-0.598081
-0.546624
-0.511112
-0.494708
-0.469592
-0.346327
-0.18329
-0.323127
-0.773678
-1.09502
-1.24349
-1.3668
-1.46529
-1.4988
-1.49062
-0.888897
-0.854556
-0.797086
-0.733073
-0.66935
-0.610879
-0.564942
-0.542326
-0.557451
-0.606447
-0.5646
-0.419145
-0.554563
-0.980718
-1.20809
-1.08951
-0.990867
-1.23669
-1.43593
-1.49618
-0.897175
-0.862093
-0.804324
-0.740206
-0.676966
-0.620396
-0.579874
-0.571084
-0.625956
-0.794048
-0.924253
-0.78816
-0.895228
-1.28914
-1.66859
-1.78949
-1.84221
-1.87288
-1.89064
-1.91487
-0.902739
-0.866839
-0.808495
-0.743968
-0.680715
-0.625299
-0.589336
-0.592949
-0.693553
-1.02205
-1.41982
-1.27845
-1.314
-1.71669
-2.41663
-3.06019
-3.24968
-3.08841
-2.83398
-2.71845
-0.904897
-0.868111
-0.808941
-0.743593
-0.679615
-0.624095
-0.590355
-0.60669
-0.744695
-1.24062
-1.97219
-1.75666
-1.59219
-1.92476
-2.74827
-3.76097
-3.93907
-3.56853
-3.14275
-2.98211
-0.903103
-0.865333
-0.805069
-0.738441
-0.672856
-0.615556
-0.580608
-0.600597
-0.761567
-1.34793
-2.30744
-1.9306
-1.46791
-1.46766
-1.83937
-2.37785
-2.44829
-2.09088
-1.7414
-1.59731
-0.897177
-0.858169
-0.796575
-0.728174
-0.660014
-0.598953
-0.558463
-0.56996
-0.725134
-1.30149
-2.15318
-1.59047
-0.800647
-0.259281
-0.0115315
0.0577893
0.115757
0.276954
0.373783
0.405439
-0.887144
-0.846846
-0.783503
-0.71286
-0.641274
-0.574685
-0.524311
-0.515391
-0.617155
-1.02178
-1.51524
-0.852568
-0.0430961
0.578151
0.97536
1.23744
1.38926
1.45605
1.47826
1.48132
-0.872914
-0.831562
-0.766135
-0.693034
-0.617524
-0.544167
-0.480947
-0.443699
-0.468946
-0.625577
-0.692245
-0.115205
0.509962
0.979558
1.28548
1.49194
1.61319
1.67531
1.70093
1.70509
-0.853697
-0.811841
-0.744958
-0.669308
-0.589946
-0.509813
-0.433369
-0.367534
-0.322135
-0.286377
-0.111685
0.315053
0.743926
1.068
1.28396
1.42962
1.52353
1.5809
1.61065
1.61689
-0.829069
-0.787277
-0.719673
-0.642167
-0.559618
-0.473915
-0.386546
-0.298316
-0.20494
-0.0737014
0.169552
0.48939
0.782614
1.01028
1.16983
1.2812
1.35881
1.41217
1.44155
1.44818
-0.796451
-0.755871
-0.689026
-0.610643
-0.526574
-0.437555
-0.343297
-0.241472
-0.122978
0.0419265
0.276494
0.526389
0.740721
0.908336
1.03235
1.12337
1.1904
1.23859
1.264
1.27078
-0.750532
-0.712808
-0.65044
-0.572927
-0.489518
-0.400086
-0.303656
-0.196525
-0.069696
0.0976791
0.303828
0.502246
0.667069
0.796746
0.896316
0.97241
1.03056
1.07319
1.09718
1.10461
-0.689558
-0.656986
-0.597985
-0.52544
-0.445837
-0.359823
-0.265669
-0.16013
-0.0364688
0.118937
0.293476
0.451428
0.57996
0.68156
0.761192
0.823736
0.872378
0.908227
0.931302
0.93864
-0.604069
-0.582191
-0.529312
-0.464072
-0.39203
-0.313429
-0.226483
-0.128611
-0.015761
0.120996
0.264844
0.388929
0.486911
0.563751
0.623648
0.670822
0.70847
0.737145
0.754538
0.759121
-0.481239
-0.470458
-0.433728
-0.382954
-0.324788
-0.259466
-0.185285
-0.100415
-0.00170343
0.115185
0.235944
0.337276
0.416155
0.476545
0.522315
0.556719
0.582302
0.601687
0.614573
0.617782
-0.3488
-0.344507
-0.322595
-0.289223
-0.248327
-0.199288
-0.140883
-0.0715971
0.0108684
0.10884
0.20887
0.291794
0.355053
0.402377
0.436931
0.46153
0.478677
0.490061
0.496097
0.497483
-0.227291
-0.225111
-0.214531
-0.195941
-0.170638
-0.137378
-0.0949809
-0.0415586
0.0244218
0.104261
0.185718
0.252672
0.302906
0.339359
0.365032
0.382608
0.393992
0.400693
0.403888
0.40435
-0.127941
-0.127913
-0.124236
-0.115747
-0.101955
-0.0813354
-0.0521724
-0.0128458
0.0382437
0.101879
0.167368
0.220719
0.260129
0.288224
0.307441
0.319813
0.327294
0.331391
0.333183
0.333211
-0.0569647
-0.0578089
-0.0582442
-0.0560418
-0.0494238
-0.0370605
-0.0172737
0.0114613
0.0502001
0.0999183
0.151714
0.193816
0.224577
0.245917
0.260011
0.268984
0.274149
0.276688
0.277574
0.277515
-0.0115911
-0.012455
-0.0140445
-0.0143078
-0.011636
-0.00452477
0.00860378
0.0295798
0.0589643
0.0975121
0.13803
0.170817
0.194527
0.210911
0.221722
0.228167
0.231651
0.233221
0.233701
0.233618
0.015847
0.0152463
0.0139628
0.0134421
0.0149124
0.0193977
0.0281945
0.0428195
0.0650542
0.0947611
0.126317
0.151873
0.17027
0.182775
0.190651
0.195293
0.197759
0.198785
0.199029
0.198953
0.0327635
0.0324023
0.0316077
0.0312614
0.0322694
0.0355003
0.0419301
0.0526663
0.0689611
0.091838
0.116239
0.135937
0.150044
0.159451
0.165359
0.168811
0.170569
0.171241
0.171386
0.171324
0.0436219
0.0434065
0.042924
0.0427511
0.0435062
0.0458202
0.0505169
0.0585464
0.0707855
0.0881866
0.107046
0.12226
0.133082
0.140193
0.144634
0.147186
0.148466
0.148936
0.149029
0.148979
0.0503695
0.0502421
0.0499513
0.0499017
0.0505423
0.0523332
0.0558639
0.061879
0.071141
0.0842219
0.0987165
0.11042
0.118611
0.12403
0.127394
0.129313
0.130256
0.130588
0.130648
0.130607
0.0541083
0.0540304
0.0538507
0.0538572
0.0543794
0.0557648
0.0584676
0.0630509
0.0701105
0.0800622
0.0910155
0.099918
0.106192
0.110337
0.112894
0.114336
0.115033
0.115268
0.115305
0.115271
0.0555961
0.0555477
0.0554442
0.0554897
0.0559258
0.0570095
0.0590837
0.062576
0.0679556
0.0755332
0.0838482
0.0906208
0.0954086
0.0985624
0.100499
0.101584
0.1021
0.102268
0.102291
0.102263
0.0554218
0.0553903
0.0553335
0.0553979
0.05576
0.056612
0.0582123
0.0608899
0.0649894
0.0707594
0.0770697
0.0822305
0.0858655
0.0882594
0.0897257
0.0905415
0.0909249
0.0910434
0.0910554
0.0910321
0.0540054
0.0539833
0.0539517
0.0540185
0.0543134
0.054981
0.0562163
0.0582665
0.0613985
0.0657943
0.0706052
0.0745113
0.077274
0.0790884
0.0801951
0.0808068
0.0810899
0.0811732
0.0811783
0.081159
0.0516485
0.0516323
0.0516135
0.0516735
0.0519091
0.0524291
0.0533815
0.054952
0.057342
0.0606881
0.0643437
0.0673113
0.0694079
0.0707815
0.0716163
0.0720744
0.0722828
0.0723398
0.0723398
0.0723237
0.0485698
0.0485574
0.0485446
0.0485942
0.0487788
0.0491813
0.0499125
0.0511134
0.0529347
0.0554822
0.0582596
0.0605118
0.0620989
0.0631354
0.0637619
0.064103
0.0642559
0.0642953
0.0642929
0.0642797
0.0449348
0.0449249
0.0449152
0.0449537
0.0450958
0.0454038
0.0459628
0.0468792
0.0482666
0.0502017
0.0523082
0.0540135
0.0552116
0.0559932
0.0564638
0.0567182
0.0568293
0.0568547
0.0568504
0.0568397
0.0408712
0.0408631
0.0408551
0.0408842
0.0409919
0.0412264
0.0416514
0.0423463
0.043398
0.0448639
0.0464585
0.0477472
0.0486513
0.0492382
0.0495899
0.0497777
0.0498574
0.0498732
0.0498684
0.04986
0.0364798
0.0364731
0.0364658
0.0364863
0.0365665
0.0367426
0.0370628
0.0375873
0.0383821
0.0394892
0.0406916
0.0416618
0.0423404
0.0427791
0.0430393
0.0431761
0.043232
0.0432399
0.0432343
0.0432277
0.0318377
0.0318323
0.0318253
0.0318386
0.0318968
0.0320272
0.0322658
0.0326588
0.0332542
0.0340839
0.0349825
0.0357066
0.0362115
0.0365365
0.0367288
0.036829
0.0368683
0.0368722
0.0368666
0.0368612
0.0270051
0.0270004
0.0269935
0.0270013
0.0270427
0.0271378
0.0273135
0.0276043
0.0280448
0.0286583
0.0293229
0.0298574
0.030228
0.0304656
0.0306046
0.0306755
0.0307021
0.0307035
0.0306984
0.0306938
0.0220292
0.0220253
0.022019
0.0220232
0.0220515
0.0221185
0.0222442
0.0224535
0.0227718
0.0232163
0.0236984
0.024085
0.0243536
0.0245238
0.0246213
0.0246691
0.024685
0.024683
0.0246777
0.0246742
0.016948
0.0169447
0.0169383
0.0169385
0.0169555
0.0170004
0.017087
0.0172316
0.0174532
0.0177629
0.0180998
0.0183691
0.0185546
0.0186709
0.0187364
0.0187672
0.0187753
0.0187708
0.0187656
0.0187631
0.0117885
0.0117857
0.0117797
0.0117778
0.0117873
0.011815
0.0118696
0.0119631
0.0121065
0.0123065
0.0125222
0.0126938
0.0128105
0.0128839
0.0129251
0.0129429
0.0129456
0.0129402
0.0129351
0.0129331
0.00657367
0.00657151
0.00656649
0.00656368
0.00656761
0.0065813
0.00660955
0.00665805
0.00673376
0.00683873
0.00695235
0.00704376
0.00710694
0.00714584
0.00716609
0.00717322
0.00717187
0.00716606
0.00716193
0.00716053
0.00132011
0.00131959
0.0013179
0.00131595
0.00131416
0.0013154
0.00131928
0.00132646
0.00133852
0.00135601
0.00137883
0.00140016
0.00141557
0.00142534
0.00143062
0.00143289
0.00143251
0.00142913
0.00142636
0.00142596
-0.913855
-0.617995
-0.315444
-0.0783331
0.114031
0.270661
0.405365
0.519435
0.571291
0.553894
-0.410226
-0.226303
-0.0419933
0.11536
0.248951
0.361872
0.454386
0.520757
0.556083
0.56641
-0.0875037
0.0308573
0.151616
0.259373
0.35263
0.431076
0.493356
0.538857
0.570009
0.585856
0.130072
0.209833
0.293849
0.369942
0.436159
0.49204
0.537353
0.572784
0.59957
0.616476
0.290134
0.346843
0.406402
0.462311
0.511521
0.553897
0.589506
0.618539
0.640951
0.657984
0.415562
0.456848
0.503857
0.547072
0.586305
0.620943
0.650733
0.675354
0.694059
0.711133
0.521303
0.554887
0.594734
0.631733
0.665801
0.696394
0.722825
0.744512
0.76021
0.777414
0.617966
0.650352
0.687845
0.723001
0.755116
0.783839
0.808409
0.827992
0.841403
0.858798
0.718371
0.753752
0.792191
0.82773
0.859347
0.886771
0.909725
0.92756
0.93951
0.957322
0.836347
0.875855
0.915305
0.950632
0.980856
1.00633
1.02725
1.04343
1.05511
1.07349
0.982883
1.02314
1.05924
1.09027
1.11638
1.13892
1.15833
1.17415
1.18703
1.20523
1.15862
1.19121
1.21737
1.24001
1.26034
1.27937
1.29727
1.31403
1.32994
1.3482
1.34688
1.36467
1.38045
1.39726
1.41361
1.42831
1.44146
1.45558
1.47277
1.49251
1.529
1.53996
1.55222
1.56316
1.57255
1.58225
1.59324
1.6049
1.61488
1.63005
1.74009
1.74213
1.72704
1.71198
1.70577
1.71146
1.73013
1.76059
1.79272
1.82346
2.04616
1.90921
1.83302
1.79088
1.77333
1.77752
1.80484
1.86098
1.96456
2.17988
0.313928
0.310619
0.304846
0.295247
0.282558
0.270448
0.260496
0.252876
0.247473
0.244298
0.243791
0.24612
0.250742
0.257461
0.266388
0.277612
0.290382
0.302086
0.309327
0.313913
0.23139
0.237338
0.244528
0.250159
0.253419
0.253538
0.251071
0.247551
0.244252
0.241997
0.241638
0.243513
0.246692
0.250456
0.253791
0.255222
0.253577
0.249012
0.242715
0.235452
0.223369
0.225733
0.22952
0.232983
0.235682
0.237889
0.239254
0.239394
0.238663
0.237902
0.237898
0.238835
0.240046
0.240685
0.240118
0.238392
0.236018
0.233055
0.229318
0.226073
0.217977
0.218943
0.221523
0.224973
0.227792
0.2297
0.231008
0.231969
0.232577
0.232919
0.233215
0.233461
0.233436
0.23296
0.232052
0.230624
0.228392
0.225217
0.22202
0.220311
0.215466
0.21579
0.217349
0.21986
0.22234
0.224697
0.226679
0.228065
0.228941
0.229475
0.22986
0.230099
0.229914
0.229156
0.227707
0.225689
0.223376
0.220933
0.218779
0.217969
0.214798
0.214941
0.215619
0.216787
0.218045
0.219396
0.220688
0.221979
0.223122
0.224008
0.224556
0.224614
0.224221
0.223459
0.222525
0.221379
0.220186
0.21906
0.218119
0.217781
0.213182
0.213247
0.213648
0.214436
0.215389
0.216393
0.217497
0.218619
0.219655
0.220568
0.221207
0.221423
0.221208
0.220661
0.219867
0.219163
0.218364
0.217591
0.217036
0.216861
0.210743
0.210768
0.210962
0.211402
0.211961
0.212661
0.213503
0.21444
0.215435
0.216397
0.217166
0.217519
0.21749
0.217236
0.216886
0.216348
0.215998
0.215609
0.215354
0.215284
0.207768
0.207779
0.207905
0.208217
0.208663
0.209211
0.209881
0.21068
0.211599
0.212593
0.213511
0.214117
0.214369
0.214384
0.214265
0.214067
0.213838
0.213601
0.213458
0.213422
0.204413
0.204419
0.204505
0.204724
0.205063
0.205522
0.20613
0.206909
0.207867
0.208981
0.210109
0.21096
0.211452
0.21169
0.211769
0.211753
0.211686
0.211602
0.211552
0.211539
0.200683
0.200689
0.200752
0.200932
0.20122
0.20164
0.202229
0.203027
0.204063
0.205343
0.206742
0.207905
0.20868
0.209157
0.209436
0.209583
0.209648
0.209668
0.209676
0.209677
0.196576
0.196576
0.19665
0.196816
0.197099
0.197529
0.198158
0.199044
0.200239
0.201775
0.203524
0.205052
0.206123
0.206854
0.20732
0.207608
0.207778
0.207872
0.207921
0.207931
0.192066
0.192064
0.192139
0.192322
0.192631
0.193114
0.193835
0.194872
0.196305
0.198188
0.200386
0.202356
0.203796
0.204787
0.205451
0.205879
0.206146
0.206303
0.206384
0.206403
0.187094
0.18709
0.187178
0.187389
0.187753
0.188327
0.189194
0.190456
0.192219
0.194562
0.197334
0.199856
0.201716
0.203017
0.203899
0.204476
0.204842
0.205061
0.205174
0.2052
0.181553
0.181547
0.181656
0.181916
0.182363
0.183072
0.184146
0.185716
0.187919
0.190863
0.194362
0.197564
0.199935
0.201607
0.202744
0.203492
0.203969
0.204256
0.204403
0.204438
0.175308
0.1753
0.175438
0.175766
0.176331
0.177224
0.178579
0.18056
0.183342
0.187059
0.191481
0.195527
0.198527
0.200646
0.20209
0.203043
0.20365
0.204017
0.204204
0.204248
0.16817
0.16816
0.168338
0.16876
0.169484
0.170626
0.172354
0.174876
0.17841
0.183119
0.188705
0.193805
0.197581
0.200248
0.202065
0.203264
0.204029
0.204492
0.204728
0.204784
0.159882
0.15987
0.160102
0.160652
0.161591
0.163064
0.165288
0.168522
0.173033
0.179013
0.186065
0.192476
0.197208
0.200547
0.202821
0.204323
0.205282
0.205863
0.206159
0.206227
0.150093
0.150078
0.150388
0.151114
0.152344
0.154261
0.157145
0.161322
0.167106
0.174711
0.183605
0.191639
0.197548
0.201711
0.204547
0.20642
0.207619
0.208347
0.208718
0.208802
0.138322
0.138304
0.138727
0.139702
0.141329
0.14385
0.147626
0.153062
0.16051
0.170191
0.181385
0.191414
0.198763
0.203936
0.207459
0.209791
0.211289
0.212205
0.212671
0.212774
0.123894
0.12388
0.124474
0.125805
0.127986
0.131355
0.136391
0.143511
0.153137
0.165457
0.179496
0.191951
0.201043
0.207444
0.211814
0.214714
0.216587
0.217744
0.218337
0.218465
0.105815
0.105812
0.106684
0.108552
0.111558
0.116177
0.122967
0.132418
0.144914
0.160564
0.178067
0.193422
0.204599
0.212489
0.217901
0.221511
0.223855
0.225318
0.226079
0.226246
0.0825374
0.0825719
0.0839236
0.0866542
0.09098
0.0975341
0.106911
0.119575
0.135832
0.155625
0.177264
0.19601
0.209634
0.219307
0.226011
0.230529
0.233488
0.235349
0.236332
0.236557
0.0515387
0.0516932
0.0539294
0.0581936
0.0648069
0.0744826
0.0877202
0.104852
0.12598
0.15082
0.177266
0.199869
0.216292
0.228071
0.236378
0.242099
0.245924
0.248368
0.249673
0.249973
0.00829349
0.008798
0.0130401
0.0205498
0.0314243
0.0462734
0.0652622
0.0884522
0.115672
0.146432
0.178265
0.205097
0.224615
0.238806
0.249067
0.256391
0.261499
0.264937
0.266824
0.26722
-0.0555479
-0.0533088
-0.0434014
-0.0288323
-0.00990578
0.0131998
0.0402576
0.0711319
0.105521
0.142871
0.180455
0.21171
0.234484
0.251296
0.263803
0.273133
0.280044
0.285025
0.288033
0.288461
-0.132525
-0.128182
-0.109653
-0.083563
-0.0540638
-0.0214461
0.0143646
0.0533844
0.0954307
0.140059
0.184368
0.2212
0.248412
0.269035
0.284986
0.297517
0.307536
0.315377
0.319168
0.320883
-0.21078
-0.199696
-0.171977
-0.135858
-0.0968166
-0.0550979
-0.0107215
0.0363571
0.0860112
0.137898
0.188945
0.231333
0.262831
0.286987
0.306015
0.321313
0.333758
0.343764
0.350163
0.352999
-0.268687
-0.256612
-0.224012
-0.181379
-0.135028
-0.0858341
-0.0340159
0.020317
0.0769801
0.135611
0.19282
0.23998
0.27479
0.301289
0.321932
0.338261
0.35129
0.361581
0.368273
0.371204
-0.314773
-0.302384
-0.266465
-0.219355
-0.16788
-0.113089
-0.0552692
0.00526499
0.0681382
0.132814
0.195459
0.246656
0.284038
0.312106
0.333651
0.350461
0.363701
0.374054
0.380851
0.383665
-0.352334
-0.340116
-0.302235
-0.251746
-0.196285
-0.13704
-0.0743715
-0.00865451
0.0596263
0.12979
0.197488
0.252359
0.291949
0.321281
0.343482
0.360561
0.373833
0.384092
0.390847
0.393559
-0.38456
-0.372534
-0.33329
-0.280271
-0.221653
-0.158741
-0.0919308
-0.021656
0.0514982
0.126683
0.199042
0.257317
0.298956
0.329437
0.352213
0.369525
0.382843
0.39306
0.399841
0.402492
-0.413058
-0.40119
-0.360994
-0.305993
-0.244832
-0.178863
-0.108512
-0.034268
0.0432561
0.123117
0.200014
0.261719
0.305457
0.337141
0.360548
0.378143
0.391546
0.401737
0.408542
0.411128
-0.439033
-0.427239
-0.386297
-0.329693
-0.266473
-0.197986
-0.124615
-0.0468297
0.0347345
0.119091
0.200511
0.265764
0.311752
0.344774
0.368914
0.386864
0.400407
0.410598
0.417437
0.419954
-0.463266
-0.451503
-0.409921
-0.351993
-0.287033
-0.21639
-0.140395
-0.0594596
0.0258301
0.114491
0.200471
0.269485
0.317979
0.352552
0.37758
0.395993
0.409736
0.419985
0.426783
0.429223
-0.486252
-0.47448
-0.432324
-0.373294
-0.306882
-0.234385
-0.156098
-0.0723607
0.016359
0.109185
0.199806
0.272866
0.324185
0.360589
0.386715
0.405724
0.419748
0.43009
0.436897
0.439278
-0.508371
-0.4965
-0.453804
-0.393855
-0.326229
-0.25215
-0.17188
-0.0856409
0.00623978
0.103074
0.198413
0.275816
0.330334
0.368919
0.396408
0.416197
0.43062
0.441114
0.447928
0.450261
-0.529779
-0.517755
-0.474519
-0.413842
-0.345146
-0.269732
-0.187769
-0.0993382
-0.00458261
0.096071
0.196162
0.278187
0.336315
0.377486
0.406681
0.427489
0.442457
0.453199
0.460026
0.46232
-0.550484
-0.53831
-0.49459
-0.433286
-0.363688
-0.287161
-0.203772
-0.113464
-0.0161293
0.0881167
0.192925
0.279809
0.341941
0.386158
0.417462
0.439602
0.455313
0.4664
0.473281
0.475578
-0.57059
-0.558199
-0.514085
-0.452206
-0.381836
-0.304423
-0.219865
-0.127978
-0.0283844
0.0791956
0.188595
0.280484
0.346974
0.394704
0.428603
0.452455
0.469193
0.480796
0.487802
0.489996
-0.589989
-0.577433
-0.532988
-0.470536
-0.399562
-0.321448
-0.235976
-0.142815
-0.0412971
0.0693046
0.183115
0.280021
0.351122
0.402803
0.439834
0.465901
0.484007
0.496346
0.503566
0.505628
-0.60872
-0.595952
-0.551209
-0.48825
-0.416817
-0.338169
-0.25203
-0.157892
-0.0547867
0.0584854
0.176447
0.278253
0.354052
0.410058
0.450843
0.479756
0.499636
0.512864
0.520299
0.522197
-0.626611
-0.613739
-0.568662
-0.505295
-0.433533
-0.354503
-0.26794
-0.173114
-0.0687651
0.0468249
0.168586
0.27503
0.355421
0.416013
0.461135
0.493696
0.516062
0.530407
0.537888
0.539467
-0.643772
-0.630752
-0.585325
-0.521634
-0.449642
-0.370399
-0.283603
-0.188382
-0.0831225
0.0344167
0.159586
0.270264
0.354986
0.420079
0.469929
0.507158
0.533238
0.549157
0.55612
0.556895
-0.660057
-0.646905
-0.601163
-0.53722
-0.465065
-0.38577
-0.298937
-0.203572
-0.0977425
0.0213536
0.149548
0.264004
0.352527
0.421615
0.476206
0.519098
0.550876
0.570186
0.575816
0.573704
-0.675524
-0.662205
-0.616137
-0.551992
-0.479774
-0.400551
-0.313858
-0.218599
-0.112503
0.00779464
0.138599
0.25629
0.348019
0.420162
0.478742
0.527664
0.567318
0.594447
0.601983
0.590591
-0.690115
-0.676682
-0.630331
-0.566074
-0.49395
-0.414999
-0.32869
-0.233879
-0.127913