/*--------------------------------*- C++ -*----------------------------------*\
| =========                 |                                                 |
| \\      /  F ield         | OpenFOAM: The Open Source CFD Toolbox           |
|  \\    /   O peration     | Version:  2306                                  |
|   \\  /    A nd           | Website:  www.openfoam.com                      |
|    \\/     M anipulation  |                                                 |
\*---------------------------------------------------------------------------*/
FoamFile
{
    version     2.0;
    format      ascii;
    arch        "LSB;label=32;scalar=64";
    class       volVectorField;
    location    "9";
    object      U;
}
// * * * * * * * * * * * * * * * * * * * * * * * * * * * * * * * * * * * * * //

dimensions      [0 1 -1 0 0 0 0];

internalField   nonuniform List<vector> 
8800
(
(0.984814 -0.088405 0)
(1.00185 -0.0567817 0)
(0.9995 -0.030558 0)
(1.00014 -0.0160236 0)
(1.00031 -0.00886117 0)
(1.0002 -0.00500003 0)
(1.0001 -0.00279775 0)
(1.00002 -0.00149041 0)
(0.999985 -0.00067443 0)
(1.00004 -0.000122415 0)
(0.99998 0.000438609 0)
(1 0.00110901 0)
(1.00006 0.00212203 0)
(1.00017 0.00380738 0)
(1.00025 0.00669262 0)
(1.0003 0.0119007 0)
(0.99988 0.0221212 0)
(0.998932 0.0411155 0)
(1.00723 0.0768577 0)
(0.773639 0.0450521 0)
(0.361875 -0.0150827 0)
(1.04626 -0.0736968 0)
(1.08765 -0.0672033 0)
(1.04842 -0.0512442 0)
(1.02469 -0.0370289 0)
(1.0121 -0.0248222 0)
(1.00609 -0.0159485 0)
(1.0032 -0.00990018 0)
(1.00181 -0.00557182 0)
(1.00123 -0.00211895 0)
(1.00117 0.000941037 0)
(1.00141 0.004188 0)
(1.00237 0.00790328 0)
(1.00439 0.0129345 0)
(1.00855 0.0202142 0)
(1.01729 0.0307639 0)
(1.03494 0.0442764 0)
(1.06638 0.0588361 0)
(1.09452 0.0722957 0)
(0.843413 0.0554426 0)
(0.219446 -0.00152252 0)
(1.07723 -0.0485105 0)
(1.09981 -0.046618 0)
(1.06465 -0.0385902 0)
(1.0395 -0.0316953 0)
(1.02281 -0.0245606 0)
(1.01302 -0.0173126 0)
(1.00775 -0.0108062 0)
(1.00514 -0.00544707 0)
(1.00423 -0.000742986 0)
(1.00443 0.00377592 0)
(1.00604 0.00863224 0)
(1.00978 0.0144544 0)
(1.01699 0.0212987 0)
(1.02993 0.0285054 0)
(1.05072 0.0353987 0)
(1.08062 0.0423709 0)
(1.10683 0.0494427 0)
(0.946143 0.0399051 0)
(0.219189 0.0015302 0)
(0.181137 -0.000506155 0)
(1.02477 -0.0318786 0)
(1.10624 -0.0365905 0)
(1.07747 -0.0313125 0)
(1.05256 -0.0256871 0)
(1.03577 -0.0205076 0)
(1.02399 -0.0157916 0)
(1.01602 -0.0111023 0)
(1.01118 -0.00618126 0)
(1.00901 -0.000812285 0)
(1.00968 0.00468605 0)
(1.01305 0.00965925 0)
(1.01928 0.0143008 0)
(1.02898 0.0188048 0)
(1.04298 0.0235486 0)
(1.06336 0.0288965 0)
(1.09372 0.0346505 0)
(1.09739 0.0370548 0)
(0.840106 0.0202903 0)
(0.180708 0.00051664 0)
(0.164643 -0.000223942 0)
(0.973442 -0.017368 0)
(1.10546 -0.0250354 0)
(1.08526 -0.0237696 0)
(1.0577 -0.0211602 0)
(1.03958 -0.0181159 0)
(1.02729 -0.0143392 0)
(1.01932 -0.0102051 0)
(1.01453 -0.00566276 0)
(1.01247 -0.000575254 0)
(1.01295 0.00455698 0)
(1.01619 0.00922371 0)
(1.02236 0.0134122 0)
(1.03225 0.0172042 0)
(1.04713 0.020434 0)
(1.06947 0.0231327 0)
(1.10037 0.0253254 0)
(1.07719 0.0235516 0)
(0.769095 0.00879622 0)
(0.16402 0.000233133 0)
(0.159621 1.14824e-06 0)
(0.937015 -0.00733877 0)
(1.09559 -0.0152294 0)
(1.08736 -0.0176294 0)
(1.06143 -0.0178421 0)
(1.04398 -0.0166784 0)
(1.0319 -0.0143333 0)
(1.02379 -0.0106653 0)
(1.01877 -0.00593169 0)
(1.01643 -0.000429171 0)
(1.01701 0.00514922 0)
(1.0204 0.0101109 0)
(1.02669 0.014058 0)
(1.03652 0.0168129 0)
(1.05104 0.0183835 0)
(1.07195 0.0186101 0)
(1.09777 0.0174724 0)
(1.05304 0.0125251 0)
(0.733798 0.00291952 0)
(0.158742 1.27867e-05 0)
(0.158385 1.58616e-05 0)
(0.913409 -0.00374689 0)
(1.07917 -0.0111628 0)
(1.08208 -0.0162886 0)
(1.0609 -0.0179408 0)
(1.04632 -0.0174655 0)
(1.03616 -0.0151094 0)
(1.02909 -0.0112543 0)
(1.02425 -0.00620018 0)
(1.02181 -0.000183834 0)
(1.02232 0.0059542 0)
(1.0256 0.0112203 0)
(1.0312 0.0153687 0)
(1.03955 0.0181411 0)
(1.05128 0.0190846 0)
(1.06965 0.0185825 0)
(1.08702 0.0149853 0)
(1.02969 0.00795162 0)
(0.716522 0.00134745 0)
(0.15719 -2.03617e-06 0)
(0.158161 2.19493e-05 0)
(0.89788 -0.00178502 0)
(1.06075 -0.00759158 0)
(1.07244 -0.0134023 0)
(1.05942 -0.0164956 0)
(1.04775 -0.0165245 0)
(1.03941 -0.0145883 0)
(1.03304 -0.0110842 0)
(1.02849 -0.00624772 0)
(1.02599 0.000127612 0)
(1.02635 0.00661779 0)
(1.02933 0.0119721 0)
(1.0344 0.0157815 0)
(1.04132 0.0181175 0)
(1.05122 0.0187401 0)
(1.06389 0.0168478 0)
(1.07202 0.011927 0)
(1.00913 0.00497623 0)
(0.70702 0.000663896 0)
(0.156593 -2.00816e-06 0)
(0.158231 1.71479e-05 0)
(0.888901 -0.000773689 0)
(1.046 -0.0043475 0)
(1.06266 -0.00886665 0)
(1.05621 -0.0117516 0)
(1.04898 -0.0125101 0)
(1.04271 -0.0115057 0)
(1.03751 -0.00892122 0)
(1.03381 -0.0048739 0)
(1.03155 0.000776419 0)
(1.03169 0.00650709 0)
(1.03392 0.0110911 0)
(1.03793 0.0140641 0)
(1.0432 0.0152884 0)
(1.04956 0.0148834 0)
(1.05663 0.0124091 0)
(1.05793 0.00798316 0)
(0.994423 0.00298918 0)
(0.701647 0.000434147 0)
(0.156156 9.38821e-06 0)
(0.158457 2.01727e-05 0)
(0.884608 -0.000183293 0)
(1.03703 -0.00193118 0)
(1.05545 -0.00461774 0)
(1.05288 -0.00671648 0)
(1.04859 -0.00765872 0)
(1.04428 -0.00726704 0)
(1.0403 -0.00552435 0)
(1.03737 -0.00244852 0)
(1.03531 0.00174581 0)
(1.0351 0.00602071 0)
(1.03686 0.00915003 0)
(1.03937 0.0110531 0)
(1.04287 0.0112493 0)
(1.04666 0.0101505 0)
(1.05014 0.00787045 0)
(1.04786 0.00471606 0)
(0.985607 0.00170751 0)
(0.698558 0.000288242 0)
(0.155797 9.07248e-06 0)
(0.158807 2.31136e-05 0)
(0.883012 0.000133166 0)
(1.03267 -0.000557237 0)
(1.05134 -0.00184309 0)
(1.05057 -0.00300497 0)
(1.04818 -0.00361744 0)
(1.0454 -0.00337606 0)
(1.04253 -0.0021789 0)
(1.04013 1.45496e-05 0)
(1.03823 0.00285778 0)
(1.03763 0.00570241 0)
(1.03888 0.00752352 0)
(1.04001 0.00827655 0)
(1.04195 0.0079321 0)
(1.04392 0.00672952 0)
(1.04541 0.00495096 0)
(1.04168 0.00290161 0)
(0.980642 0.00114388 0)
(0.696582 0.000266085 0)
(0.155458 1.41052e-05 0)
(0.159287 2.68425e-05 0)
(0.882926 0.000362115 0)
(1.03098 0.000253835 0)
(1.04949 -0.000182918 0)
(1.04944 -0.00059979 0)
(1.04804 -0.000753085 0)
(1.0462 -0.000418044 0)
(1.04406 0.000519332 0)
(1.04198 0.00209628 0)
(1.04009 0.0040343 0)
(1.03907 0.00580955 0)
(1.03959 0.00665212 0)
(1.03985 0.00659013 0)
(1.0407 0.00598157 0)
(1.04157 0.00486404 0)
(1.04209 0.00350285 0)
(1.03785 0.00211801 0)
(0.97754 0.000973052 0)
(0.694945 0.000297788 0)
(0.155039 2.01201e-05 0)
(0.1599 3.3056e-05 0)
(0.883696 0.000569095 0)
(1.03081 0.00080726 0)
(1.04913 0.000887618 0)
(1.04934 0.000997418 0)
(1.0484 0.00126191 0)
(1.04703 0.00180335 0)
(1.04529 0.00270012 0)
(1.04334 0.00395289 0)
(1.04133 0.00533746 0)
(1.03989 0.00637935 0)
(1.03954 0.00663772 0)
(1.03925 0.00606614 0)
(1.03937 0.00522314 0)
(1.03958 0.00414198 0)
(1.03961 0.00299555 0)
(1.03515 0.00191412 0)
(0.97517 0.00100743 0)
(0.693275 0.000362258 0)
(0.1545 2.7287e-05 0)
(0.16068 4.17973e-05 0)
(0.885217 0.000777209 0)
(1.03162 0.00128977 0)
(1.04974 0.00172734 0)
(1.05003 0.00222543 0)
(1.04924 0.00285104 0)
(1.04806 0.00365518 0)
(1.04644 0.00465885 0)
(1.04443 0.00581001 0)
(1.04214 0.00688209 0)
(1.04019 0.00741657 0)
(1.03908 0.00716064 0)
(1.03829 0.00632393 0)
(1.0379 0.00528653 0)
(1.03769 0.00414682 0)
(1.03744 0.00303655 0)
(1.03285 0.00202994 0)
(0.972939 0.00116055 0)
(0.691355 0.000451175 0)
(0.153806 3.5602e-05 0)
(0.161671 5.25021e-05 0)
(0.887415 0.00101366 0)
(1.03319 0.00177795 0)
(1.05111 0.00252108 0)
(1.05138 0.00336012 0)
(1.05059 0.00433166 0)
(1.04938 0.0054423 0)
(1.04768 0.00665906 0)
(1.04543 0.00786638 0)
(1.0427 0.00878798 0)
(1.04011 0.00896439 0)
(1.03829 0.00833047 0)
(1.03702 0.00721148 0)
(1.03621 0.00593282 0)
(1.0357 0.00463805 0)
(1.03525 0.00343067 0)
(1.03054 0.00235565 0)
(0.970521 0.00140499 0)
(0.689033 0.000566247 0)
(0.152921 4.55568e-05 0)
(0.162932 6.67091e-05 0)
(0.890351 0.00130791 0)
(1.03549 0.00234588 0)
(1.05317 0.00339846 0)
(1.05336 0.00458494 0)
(1.05247 0.00592556 0)
(1.05109 0.00739657 0)
(1.04912 0.00891499 0)
(1.04645 0.0102952 0)
(1.04309 0.0111814 0)
(1.03973 0.0110873 0)
(1.03719 0.0100965 0)
(1.03539 0.00864425 0)
(1.03419 0.00705993 0)
(1.0334 0.00551534 0)
(1.03278 0.00410424 0)
(1.02794 0.00285739 0)
(0.967684 0.0017391 0)
(0.686157 0.000712161 0)
(0.151802 5.76701e-05 0)
(0.164547 8.55482e-05 0)
(0.894174 0.00168555 0)
(1.03859 0.00305159 0)
(1.05598 0.00445846 0)
(1.05603 0.0060396 0)
(1.05494 0.00780651 0)
(1.05328 0.00971274 0)
(1.05087 0.0116245 0)
(1.04758 0.0132773 0)
(1.04337 0.0142102 0)
(1.03907 0.0138794 0)
(1.03572 0.0125028 0)
(1.03333 0.0106379 0)
(1.03171 0.00865815 0)
(1.03064 0.00676299 0)
(1.02984 0.00504839 0)
(1.02484 0.00353795 0)
(0.964227 0.00217235 0)
(0.682562 0.000894942 0)
(0.150392 7.25195e-05 0)
(0.166632 0.000110941 0)
(0.899109 0.00217995 0)
(1.04261 0.00396209 0)
(1.05965 0.00580026 0)
(1.05951 0.00785256 0)
(1.05813 0.0101342 0)
(1.05603 0.0125782 0)
(1.05301 0.0149917 0)
(1.04887 0.0170128 0)
(1.04356 0.0180505 0)
(1.0381 0.0174751 0)
(1.03378 0.0156417 0)
(1.03071 0.0132592 0)
(1.02862 0.0107723 0)
(1.02723 0.00841537 0)
(1.02623 0.00629173 0)
(1.02104 0.00442146 0)
(0.959936 0.00272366 0)
(0.67805 0.00112426 0)
(0.148622 9.09104e-05 0)
(0.169346 0.000146277 0)
(0.905476 0.00283891 0)
(1.04777 0.00516142 0)
(1.06438 0.00753009 0)
(1.06397 0.0101516 0)
(1.06218 0.0130702 0)
(1.05948 0.0161951 0)
(1.05562 0.0192465 0)
(1.05036 0.0217384 0)
(1.04364 0.0229206 0)
(1.03673 0.0220538 0)
(1.03127 0.0196547 0)
(1.02739 0.016621 0)
(1.02473 0.0134926 0)
(1.02298 0.0105469 0)
(1.02175 0.00789814 0)
(1.01632 0.00555777 0)
(0.954563 0.00342445 0)
(0.672373 0.00141322 0)
(0.146403 0.000114235 0)
(0.172917 0.000197182 0)
(0.913745 0.00373584 0)
(1.05447 0.00675626 0)
(1.07055 0.00975641 0)
(1.06974 0.0130631 0)
(1.06736 0.0167968 0)
(1.06381 0.020806 0)
(1.05882 0.0246715 0)
(1.0521 0.0277453 0)
(1.04357 0.02909 0)
(1.03489 0.0278454 0)
(1.02803 0.0247321 0)
(1.02316 0.0208808 0)
(1.01983 0.0169497 0)
(1.01765 0.0132713 0)
(1.01614 0.00996671 0)
(1.01041 0.00702706 0)
(0.947794 0.00432427 0)
(0.665202 0.00178201 0)
(0.143623 0.000144951 0)
(0.17768 0.000270386 0)
(0.924602 0.00496715 0)
(1.06331 0.00887338 0)
(1.07873 0.0126161 0)
(1.07731 0.016786 0)
(1.07406 0.0216172 0)
(1.06933 0.0267767 0)
(1.06281 0.031656 0)
(1.05415 0.0354106 0)
(1.04334 0.0368945 0)
(1.03245 0.0351335 0)
(1.0239 0.0311142 0)
(1.01782 0.0262429 0)
(1.01367 0.0213165 0)
(1.01095 0.0167402 0)
(1.00911 0.012639 0)
(1.003 0.00895617 0)
(0.939239 0.00550788 0)
(0.656109 0.00226318 0)
(0.140136 0.000186825 0)
(0.184146 0.000375928 0)
(0.938989 0.00668941 0)
(1.07506 0.0117504 0)
(1.08961 0.0164338 0)
(1.08728 0.0217895 0)
(1.08281 0.0281032 0)
(1.07648 0.0347194 0)
(1.06786 0.0407725 0)
(1.05666 0.0452355 0)
(1.04294 0.0467456 0)
(1.02932 0.0442544 0)
(1.01871 0.0390853 0)
(1.01117 0.0329508 0)
(1.00599 0.0268001 0)
(1.00257 0.0211303 0)
(1.00027 0.0160796 0)
(0.993675 0.011512 0)
(0.928457 0.00710889 0)
(0.644586 0.00290592 0)
(0.135765 0.00024325 0)
(0.19314 0.000540466 0)
(0.958071 0.00928316 0)
(1.09046 0.0158956 0)
(1.10384 0.0218454 0)
(1.10027 0.0288918 0)
(1.09414 0.0371243 0)
(1.08558 0.0454276 0)
(1.07415 0.052723 0)
(1.05965 0.057803 0)
(1.0423 0.0590983 0)
(1.02538 0.0555643 0)
(1.01229 0.0489485 0)
(1.00295 0.0412739 0)
(0.996477 0.0336268 0)
(0.992131 0.0266096 0)
(0.989178 0.0204103 0)
(0.981951 0.0148061 0)
(0.915007 0.0092402 0)
(0.630158 0.00375643 0)
(0.130309 0.000312213 0)
(0.206014 0.000828976 0)
(0.983532 0.0135341 0)
(1.11066 0.022123 0)
(1.12233 0.0298424 0)
(1.11685 0.0391927 0)
(1.10824 0.0496991 0)
(1.09652 0.0597939 0)
(1.08135 0.0682554 0)
(1.06274 0.073694 0)
(1.04107 0.0743839 0)
(1.02031 0.0694033 0)
(1.00432 0.0610082 0)
(0.992847 0.0515128 0)
(0.98478 0.0420913 0)
(0.979232 0.0334229 0)
(0.975377 0.0257816 0)
(0.967319 0.0189001 0)
(0.898377 0.0119618 0)
(0.612415 0.00486625 0)
(0.12355 0.000390906 0)
(0.225036 0.00137619 0)
(1.01854 0.0207888 0)
(1.13772 0.0320136 0)
(1.14647 0.042443 0)
(1.13765 0.0547144 0)
(1.12503 0.0675958 0)
(1.10877 0.0792605 0)
(1.08876 0.0884205 0)
(1.06521 0.0935915 0)
(1.03863 0.0930248 0)
(1.01363 0.0860922 0)
(0.994438 0.0755986 0)
(0.980522 0.0640667 0)
(0.970537 0.0526784 0)
(0.963465 0.0421217 0)
(0.958399 0.032747 0)
(0.949176 0.0242643 0)
(0.877604 0.0155904 0)
(0.590549 0.00638365 0)
(0.115177 0.000490312 0)
(0.253647 0.00264306 0)
(1.06866 0.0344016 0)
(1.17403 0.0492854 0)
(1.17746 0.0633585 0)
(1.16291 0.0786576 0)
(1.14426 0.0933525 0)
(1.12185 0.10568 0)
(1.09581 0.114425 0)
(1.06649 0.118218 0)
(1.03453 0.115441 0)
(1.00503 0.105919 0)
(0.982432 0.0930254 0)
(0.965832 0.0793537 0)
(0.953592 0.0659882 0)
(0.944564 0.0535506 0)
(0.937744 0.0423709 0)
(0.926679 0.0322021 0)
(0.851125 0.0212936 0)
(0.563068 0.00860302 0)
(0.105324 0.000578439 0)
(0.294616 0.0101617 -2.7603e-20)
(1.13501 0.0626692 -2.14349e-20)
(1.21921 0.080872 5.9913e-21)
(1.21276 0.0985226 0)
(1.19021 0.114972 1.63137e-35)
(1.16403 0.129366 8.74362e-23)
(1.13443 0.140531 -2.12781e-21)
(1.10161 0.147428 0)
(1.06597 0.148813 8.79274e-35)
(1.02809 0.143152 -6.80699e-21)
(0.993625 0.130727 0)
(0.967111 0.115414 -9.93258e-21)
(0.947226 0.0997757 -3.04816e-20)
(0.932007 0.0847534 -1.4783e-20)
(0.920121 0.0709431 -4.67304e-21)
(0.910377 0.0586567 -2.83448e-21)
(0.896087 0.0475955 0)
(0.816392 0.034803 2.04119e-21)
(0.527503 0.018296 2.40303e-21)
(0.0954321 0.00294463 4.23132e-20)
(0.317721 0.0280172 -5.02925e-20)
(1.18837 0.110426 1.00881e-21)
(1.26061 0.131147 -2.87574e-21)
(1.24482 0.147562 0)
(1.21447 0.162184 4.97338e-21)
(1.18093 0.174639 3.1134e-21)
(1.14442 0.183769 -1.16485e-21)
(1.10495 0.188482 -1.07349e-20)
(1.06278 0.187509 0)
(1.0183 0.179318 2.87415e-20)
(0.977735 0.164569 3.21625e-20)
(0.946029 0.147562 1.04059e-20)
(0.921561 0.130829 4.1492e-20)
(0.902075 0.115145 6.15575e-20)
(0.88605 0.101008 0)
(0.872107 0.0888487 9.21194e-20)
(0.853001 0.0782922 1.3535e-19)
(0.774942 0.0643044 1.50574e-19)
(0.503661 0.0413687 -1.75463e-19)
(0.0938387 0.00810624 -3.154e-21)
(0.308589 0.0452848 0)
(1.21912 0.171805 -1.50681e-20)
(1.29181 0.194322 0)
(1.26972 0.206672 2.4657e-20)
(1.23313 0.217407 0)
(1.19337 0.22618 1.37115e-20)
(1.15072 0.231931 6.73576e-22)
(1.10527 0.233428 -1.45764e-20)
(1.0572 0.229356 -3.06494e-21)
(1.00681 0.218229 1.3698e-20)
(0.960822 0.201199 7.50329e-20)
(0.924687 0.182935 -4.97712e-22)
(0.896559 0.165852 -3.11749e-20)
(0.873914 0.150571 -6.08197e-20)
(0.855161 0.137407 7.40593e-20)
(0.838974 0.126563 -1.33053e-19)
(0.819287 0.117589 -1.82845e-20)
(0.749465 0.103418 0)
(0.502668 0.0705022 7.61931e-22)
(0.100914 0.0146149 0)
(0.295696 0.0598856 -3.7e-19)
(1.23234 0.23626 1.5432e-19)
(1.3109 0.261587 8.28622e-20)
(1.28538 0.27041 -1.60393e-20)
(1.24467 0.276753 2.46462e-20)
(1.20043 0.281224 -3.30364e-20)
(1.15307 0.282955 -6.55548e-22)
(1.10276 0.280725 0)
(1.04971 0.27317 -5.12202e-20)
(0.994291 0.258853 0)
(0.943954 0.239423 -3.78507e-20)
(0.904591 0.219849 -5.41495e-20)
(0.874127 0.202356 -3.48217e-20)
(0.849871 0.187269 -4.51655e-20)
(0.830105 0.174652 0)
(0.813395 0.164555 0)
(0.794616 0.156364 -1.2223e-19)
(0.731588 0.1414 2.43797e-20)
(0.499063 0.097683 -1.41989e-20)
(0.102652 0.020412 -1.64374e-20)
(0.2841 0.0727088 2.70559e-19)
(1.234 0.299764 0)
(1.32031 0.329054 -2.30147e-19)
(1.29296 0.334767 -5.99042e-20)
(1.24956 0.336952 -4.66634e-20)
(1.20219 0.337325 0)
(1.15137 0.335041 -8.05846e-21)
(1.09733 0.328971 1.12575e-20)
(1.04038 0.317782 2.13904e-20)
(0.980909 0.300077 6.86609e-20)
(0.926994 0.278025 0)
(0.885102 0.256831 -1.17377e-19)
(0.853057 0.238481 -7.55524e-20)
(0.827888 0.223087 -4.55914e-20)
(0.807691 0.210491 3.00453e-19)
(0.790988 0.200572 3.68858e-20)
(0.773142 0.19238 1.76402e-19)
(0.714421 0.175807 -8.53511e-19)
(0.490997 0.121607 5.06604e-19)
(0.101965 0.0254969 -6.0463e-19)
(0.274742 0.0843722 2.8323e-19)
(1.22835 0.360429 -5.33217e-20)
(1.32245 0.39499 4.01794e-20)
(1.29422 0.397978 1.10112e-19)
(1.24904 0.396334 6.86344e-20)
(1.19948 0.392834 3.16327e-21)
(1.1461 0.386722 7.75345e-21)
(1.08912 0.376937 6.16749e-21)
(1.02894 0.362209 -4.65273e-20)
(0.966049 0.341098 0)
(0.909212 0.316191 -5.00281e-20)
(0.865428 0.293 -2.96289e-21)
(0.83233 0.273368 -8.46226e-20)
(0.806716 0.257172 0)
(0.786514 0.244049 -6.55063e-20)
(0.77013 0.233698 -1.59325e-19)
(0.753075 0.224974 4.41377e-19)
(0.696991 0.206339 -4.40652e-19)
(0.480565 0.142689 6.23745e-19)
(0.100004 0.0298995 -6.4205e-19)
(0.267571 0.0952245 -9.38041e-22)
(1.21841 0.417694 6.47249e-20)
(1.31926 0.458231 1.91378e-19)
(1.29073 0.458975 -6.70356e-20)
(1.24435 0.453903 3.91351e-20)
(1.19322 0.44686 0)
(1.13791 0.437215 2.00576e-20)
(1.07866 0.423942 -2.5517e-21)
(1.01591 0.405825 -2.02337e-20)
(0.950238 0.381379 0)
(0.890948 0.353476 -4.8173e-20)
(0.845572 0.32801 -6.88806e-20)
(0.811682 0.306706 9.25446e-20)
(0.78582 0.289272 -5.95212e-20)
(0.765721 0.27521 -2.88761e-19)
(0.749671 0.264065 1.77706e-19)
(0.733237 0.254518 5.6506e-20)
(0.679122 0.233733 0)
(0.468831 0.161392 -6.05823e-19)
(0.097327 0.0336751 -2.20031e-20)
(0.262128 0.105596 4.59051e-20)
(1.20609 0.471412 -7.40803e-20)
(1.31206 0.51817 -1.04239e-19)
(1.28357 0.517061 -2.06581e-19)
(1.23646 0.509005 1.88707e-19)
(1.18429 0.498803 -1.03943e-19)
(1.12764 0.485959 -4.30241e-20)
(1.06668 0.469535 -1.86332e-21)
(1.00179 0.448274 2.23738e-20)
(0.933627 0.42062 -1.65218e-19)
(0.87208 0.38967 -5.99192e-20)
(0.825259 0.361675 0)
(0.790676 0.338361 1.01392e-19)
(0.764658 0.319339 1.25839e-19)
(0.744732 0.304006 1.55189e-19)
(0.729058 0.291798 -1.94373e-19)
(0.713208 0.281212 -5.856e-20)
(0.660681 0.258241 6.94756e-20)
(0.455961 0.177791 0)
(0.0941253 0.0368237 -4.81281e-20)
(0.257989 0.115611 -5.28931e-19)
(1.19268 0.521696 3.38983e-19)
(1.30204 0.574535 1.14146e-19)
(1.27374 0.571864 -1.57131e-19)
(1.22624 0.561215 1.12191e-19)
(1.17342 0.548271 -7.48419e-21)
(1.1158 0.53264 4.34268e-20)
(1.05349 0.513414 -1.5792e-21)
(0.986809 0.489308 -3.58268e-20)
(0.916393 0.458646 2.25735e-22)
(0.852688 0.424686 -1.77184e-19)
(0.804418 0.39398 1.769e-19)
(0.769126 0.368362 -1.14204e-19)
(0.74295 0.347422 1.4263e-19)
(0.723218 0.330526 0)
(0.707941 0.317031 -1.06018e-19)
(0.692662 0.30518 -2.6462e-21)
(0.641572 0.279969 -3.05089e-19)
(0.442084 0.192002 -4.47808e-20)
(0.0904262 0.0393482 0)
(0.254803 0.125271 0)
(1.17885 0.568734 3.64933e-19)
(1.29006 0.627272 2.65121e-19)
(1.26199 0.623289 1.76784e-19)
(1.21434 0.610398 1.08965e-19)
(1.16115 0.595091 0)
(1.10286 0.577055 3.8041e-20)
(1.03952 0.555389 -2.61464e-21)
(0.971353 0.528813 7.45759e-20)
(0.898844 0.49543 -1.95993e-20)
(0.832913 0.458552 -1.30242e-19)
(0.783037 0.425017 8.8124e-20)
(0.746902 0.396816 -4.0902e-21)
(0.720491 0.373641 1.50612e-19)
(0.700943 0.354904 9.88895e-20)
(0.686086 0.339884 -2.31529e-19)
(0.671414 0.326613 2.80709e-19)
(0.621606 0.298704 8.41361e-20)
(0.426983 0.203932 3.45497e-19)
(0.0861057 0.0410512 -9.11037e-19)
(0.252335 0.134675 -1.34256e-19)
(1.16502 0.612701 2.09924e-19)
(1.27678 0.676448 -1.64058e-19)
(1.24898 0.67138 -2.04217e-19)
(1.20137 0.656566 0)
(1.14803 0.639227 8.89069e-20)
(1.08934 0.619123 -1.12574e-19)
(1.02518 0.595382 -8.08142e-21)
(0.955692 0.566703 0)
(0.881221 0.530991 -3.07914e-19)
(0.812913 0.491365 3.56128e-19)
(0.76115 0.454958 0)
(0.723929 0.423923 1.36452e-19)
(0.69713 0.39819 -4.23471e-21)
(0.677695 0.377297 -3.14748e-19)
(0.663266 0.360478 1.23417e-19)
(0.649194 0.345564 0)
(0.600535 0.314859 4.57388e-19)
(0.410607 0.213552 0)
(0.0812714 0.0420614 -4.36656e-19)
(0.250335 0.143805 1.4885e-19)
(1.15139 0.653811 2.39362e-19)
(1.2627 0.722204 -1.71707e-19)
(1.2352 0.716221 0)
(1.18773 0.699762 1.48579e-19)
(1.13442 0.680669 0)
(1.07552 0.6588 1.44352e-19)
(1.01079 0.633332 1.87643e-20)
(0.94013 0.60296 5.33228e-21)
(0.863738 0.565365 -1.51733e-19)
(0.79288 0.523291 3.4166e-20)
(0.738843 0.48402 0)
(0.700183 0.44997 -2.91752e-19)
(0.67276 0.421334 4.42464e-21)
(0.653315 0.397913 0)
(0.639268 0.378965 4.95211e-21)
(0.625758 0.362146 4.17973e-19)
(0.578121 0.328371 -4.03885e-19)
(0.392767 0.220782 1.18242e-19)
(0.0757843 0.0422759 0)
(0.248449 0.152497 0)
(1.138 0.692272 2.66531e-19)
(1.24828 0.764718 2.00298e-19)
(1.22095 0.757974 -3.99932e-21)
(1.17373 0.740066 9.18875e-20)
(1.12061 0.719445 2.10727e-19)
(1.06169 0.696083 -4.76169e-20)
(0.996583 0.669216 1.06886e-20)
(0.924941 0.637569 3.84671e-20)
(0.846581 0.598579 -2.34423e-19)
(0.772963 0.554497 -6.86689e-21)
(0.716271 0.512491 -1.18147e-19)
(0.675691 0.475286 4.81237e-19)
(0.647284 0.443441 -5.41474e-21)
(0.62762 0.417031 -2.52016e-19)
(0.613843 0.395535 -4.59915e-19)
(0.600804 0.376503 0)
(0.554159 0.339313 0)
(0.37325 0.225482 1.3174e-19)
(0.0695803 0.0416142 -7.57254e-20)
(0.246947 0.160858 1.8344e-19)
(1.12503 0.727931 -5.81333e-19)
(1.23371 0.804184 -2.13884e-19)
(1.20653 0.796776 0)
(1.15964 0.777579 -2.8561e-21)
(1.10683 0.755618 2.5081e-19)
(1.04806 0.730999 -1.5507e-19)
(0.982772 0.703031 -8.52993e-20)
(0.910331 0.670519 3.21716e-20)
(0.82999 0.630683 -1.77272e-19)
(0.753359 0.585112 -3.02115e-19)
(0.69363 0.540656 3.15728e-19)
(0.650509 0.500261 0)
(0.62054 0.464905 -1.14267e-19)
(0.600174 0.434914 -2.78608e-19)
(0.58669 0.410516 -3.36306e-19)
(0.574246 0.388639 -4.08881e-19)
(0.528462 0.347557 1.2271e-19)
(0.351696 0.227362 -7.14984e-20)
(0.0626507 0.0399502 1.21193e-21)
(0.24537 0.168783 0)
(1.11247 0.7613 0)
(1.21917 0.840829 4.44568e-21)
(1.19209 0.832801 0)
(1.14565 0.812419 -3.4322e-19)
(1.09323 0.789276 -2.19963e-19)
(1.0348 0.763592 0)
(0.969525 0.734797 -1.82218e-20)
(0.896458 0.701801 2.47324e-20)
(0.81423 0.66166 -4.06693e-19)
(0.734377 0.615183 0)
(0.671146 0.568761 -2.03372e-19)
(0.624733 0.525206 -6.46271e-21)
(0.592242 0.48611 -5.33749e-21)
(0.570731 0.45204 3.00058e-19)
(0.557554 0.424171 -5.29015e-22)
(0.545936 0.398841 -8.95852e-19)
(0.500494 0.353012 2.70282e-19)
(0.32774 0.225997 8.01441e-20)
(0.0548701 0.0371232 0)
(0.243721 0.176246 -6.6915e-19)
(1.10018 0.79248 -3.53927e-19)
(1.20471 0.874838 -5.3076e-19)
(1.17778 0.866172 7.48882e-19)
(1.13189 0.844693 -6.40895e-19)
(1.07997 0.820506 0)
(1.02201 0.793927 -1.29816e-19)
(0.956962 0.76455 3.54938e-20)
(0.883478 0.731429 7.39011e-21)
(0.799539 0.691499 3.28424e-20)
(0.716341 0.644817 3.78165e-19)
(0.649013 0.596983 -6.93345e-20)
(0.598599 0.550366 -3.00649e-19)
(0.562589 0.507244 -1.38126e-19)
(0.539695 0.469088 1.6853e-19)
(0.526203 0.436476 -3.95893e-22)
(0.514748 0.407204 2.48853e-19)
(0.469132 0.355614 -5.90449e-19)
(0.300581 0.221161 7.05677e-19)
(0.0462907 0.033169 1.00024e-19)
(0.2419 0.183243 2.44501e-19)
(1.08833 0.82158 -1.92827e-19)
(1.19045 0.906352 1.06215e-20)
(1.1637 0.89705 4.20614e-19)
(1.1184 0.874545 1.48493e-19)
(1.06711 0.849405 4.37694e-19)
(1.00977 0.822071 -5.58781e-20)
(0.945155 0.792323 1.67148e-19)
(0.871512 0.759393 2.2718e-20)
(0.786048 0.720187 -2.1558e-19)
(0.699384 0.674096 0)
(0.627351 0.625411 -3.15483e-19)
(0.572555 0.576114 4.39298e-19)
(0.532683 0.529351 0)
(0.507175 0.486341 -3.62212e-19)
(0.492555 0.448192 2.26608e-19)
(0.480555 0.413239 -2.71117e-19)
(0.434454 0.354484 -3.28646e-19)
(0.269476 0.211802 -5.80217e-19)
(0.0366844 0.0278303 -4.45898e-19)
(0.240176 0.189864 -2.67042e-19)
(1.07674 0.848909 2.06035e-19)
(1.17646 0.935539 4.8979e-19)
(1.14995 0.925564 5.75764e-19)
(1.10526 0.902103 -3.1118e-19)
(1.0547 0.87609 3.00234e-19)
(0.998123 0.848097 -1.74973e-19)
(0.934139 0.818161 2.0201e-19)
(0.86059 0.785707 2.75803e-20)
(0.773835 0.747751 1.99529e-19)
(0.683616 0.702952 8.02991e-19)
(0.606584 0.654049 0)
(0.54707 0.603061 0)
(0.502762 0.553227 -1.60082e-19)
(0.472454 0.504345 0)
(0.455103 0.459798 4.96535e-19)
(0.442373 0.418062 5.98736e-19)
(0.39565 0.349527 0)
(0.234459 0.197559 0)
(0.0264206 0.0212455 4.92976e-19)
(0.238274 0.195883 2.93074e-19)
(1.06531 0.874414 2.44071e-19)
(1.16277 0.962536 3.50635e-19)
(1.13656 0.95187 -5.10785e-19)
(1.09252 0.927499 -3.45063e-19)
(1.04278 0.900668 -3.9534e-19)
(0.987076 0.87209 2.58853e-19)
(0.923905 0.842091 1.84782e-21)
(0.850714 0.810363 -9.49785e-21)
(0.762931 0.77416 -1.21281e-20)
(0.669381 0.731244 4.06761e-19)
(0.587223 0.683008 0)
(0.52204 0.63153 4.46513e-19)
(0.471645 0.57859 3.37849e-19)
(0.435299 0.525483 8.72157e-19)
(0.412564 0.471839 2.68524e-19)
(0.398312 0.419441 -3.36335e-19)
(0.351908 0.33774 -1.99225e-19)
(0.197572 0.176869 0)
(0.0172631 0.0141173 5.43514e-19)
(0.236632 0.201806 -6.40512e-19)
(1.05417 0.898147 0)
(1.14941 0.987455 3.8873e-19)
(1.12354 0.976091 -4.16346e-19)
(1.08023 0.950857 3.8768e-19)
(1.03135 0.923261 5.72908e-19)
(0.976631 0.894134 -5.95072e-19)
(0.914434 0.864138 7.72321e-21)
(0.841824 0.833339 0)
(0.753364 0.799325 -1.73933e-19)
(0.656889 0.758949 -8.408e-19)
(0.569604 0.712136 4.28803e-20)
(0.497568 0.661091 6.0818e-19)
(0.439143 0.606909 0)
(0.395068 0.549054 5.87757e-19)
(0.363973 0.488247 0)
(0.34394 0.419352 0)
(0.298957 0.312376 -2.25571e-19)
(0.166758 0.141233 0)
(0.0266544 0.0135284 1.48003e-19)
(0.234818 0.207078 -6.95847e-19)
(1.04327 0.920277 0)
(1.13636 1.0105 6.25916e-19)
(1.11085 0.998463 0)
(1.06831 0.972434 -2.08811e-19)
(1.02034 0.944141 0)
(0.966695 0.914516 -4.35061e-20)
(0.905598 0.884581 -3.45552e-20)
(0.833773 0.854918 -6.06661e-21)
(0.745008 0.823546 -1.61618e-19)
(0.645858 0.786512 2.13699e-20)
(0.553456 0.742386 3.57506e-19)
(0.474441 0.692446 5.88229e-19)
(0.406642 0.636736 8.46824e-20)
(0.352599 0.579385 4.5786e-19)
(0.309529 0.510585 0)
(0.270707 0.422735 7.38667e-19)
(0.219557 0.266901 -4.4587e-19)
(0.0941048 0.114329 5.09848e-19)
(-0.0511134 0.366816 -6.11478e-19)
(0.233081 0.212129 5.65061e-19)
(1.03247 0.940943 9.0909e-19)
(1.12353 1.03197 0)
(1.09836 1.01936 7.95756e-21)
(1.05659 0.992701 5.64151e-19)
(1.0095 0.96385 -1.09705e-18)
(0.957002 0.933822 -2.59452e-19)
(0.897114 0.90413 0)
(0.826339 0.875953 -8.95061e-20)
(0.73773 0.847962 -2.71815e-21)
(0.635722 0.815581 0)
(0.537785 0.775598 0)
(0.451621 0.727799 5.16294e-19)
(0.372827 0.673292 -2.6469e-19)
(0.306471 0.618815 -4.5351e-19)
(0.247537 0.552413 0)
(0.164412 0.439446 3.71263e-19)
(0.0608753 0.49793 -4.42876e-19)
(0.0526228 1.67424 -2.38253e-19)
(0.0938811 2.70178 -3.10363e-19)
(0.231248 0.216419 -4.08379e-19)
(1.0219 0.960321 -1.13858e-18)
(1.11093 1.05188 3.56549e-19)
(1.0861 1.03871 3.46838e-19)
(1.0451 1.01152 0)
(0.998854 0.982189 -7.81895e-19)
(0.947656 0.951811 -4.30958e-19)
(0.889054 0.922543 2.2347e-20)
(0.81976 0.896092 -1.24666e-20)
(0.731764 0.872018 1.06934e-19)
(0.627104 0.845308 3.7426e-19)
(0.523361 0.810232 3.7107e-19)
(0.430465 0.766172 5.06238e-19)
(0.343068 0.711705 -6.00996e-19)
(0.264082 0.670628 -6.64969e-19)
(0.189277 0.611806 0)
(0.100741 0.840822 0)
(0.153697 2.37896 1.92046e-19)
(0.164414 3.13414 0)
(0.163431 3.35791 4.18692e-19)
(0.232492 0.220635 0)
(1.01171 0.978466 0)
(1.09838 1.07011 0)
(1.07383 1.05634 9.56389e-20)
(1.03359 1.02873 5.00302e-19)
(0.988188 0.99907 -5.93202e-19)
(0.938502 0.968423 -3.07566e-19)
(0.881371 0.939732 2.51051e-20)
(0.814095 0.915146 -1.82649e-19)
(0.727287 0.895533 -2.05646e-20)
(0.620598 0.875545 6.76333e-19)
(0.510769 0.846727 -4.38028e-20)
(0.410002 0.807081 5.65747e-20)
(0.315727 0.752765 8.50884e-20)
(0.237704 0.723952 4.06078e-21)
(0.162996 0.941775 3.06987e-21)
(0.206125 2.47871 -9.06773e-19)
(0.23748 3.25149 -3.44476e-19)
(0.216475 3.41913 1.5361e-19)
(0.194399 3.44906 -1.55857e-19)
(0.146145 0.170133 2.22623e-19)
(0.994337 0.998418 0)
(1.08608 1.08689 -6.934e-19)
(1.06213 1.07284 -8.93733e-19)
(1.02265 1.045 1.03561e-18)
(0.9782 1.01502 6.29283e-19)
(0.929354 0.983824 3.57065e-19)
(0.874134 0.955687 -4.08114e-19)
(0.80928 0.933189 1.81045e-19)
(0.724669 0.91867 0)
(0.616711 0.906452 2.83967e-19)
(0.501482 0.883949 -2.75665e-19)
(0.393552 0.851063 0)
(0.294234 0.798603 7.26045e-20)
(0.232701 0.885702 1.73069e-19)
(0.206747 2.06657 -2.16494e-19)
(0.312064 3.2793 2.33321e-19)
(0.290786 3.44251 1.09155e-19)
(0.244232 3.47563 1.23748e-19)
(0.212898 3.48963 1.38965e-19)
(0.271067 0.255723 -3.97414e-19)
(0.971183 0.998633 0)
(1.06481 1.10505 6.92572e-19)
(1.04492 1.09615 9.04609e-19)
(1.0056 1.06777 -1.04959e-18)
(0.962249 1.03732 -6.58612e-19)
(0.915713 1.00678 -5.43949e-19)
(0.86375 0.979055 -3.12273e-20)
(0.802723 0.959215 -2.557e-19)
(0.720934 0.953236 -5.1454e-20)
(0.610311 0.957037 1.05306e-20)
(0.484697 0.950233 2.23548e-19)
(0.363812 0.928049 4.709e-20)
(0.277602 1.00451 -6.50601e-20)
(0.31707 2.00602 -1.46673e-19)
(0.40169 3.26416 8.55353e-20)
(0.394051 3.48534 -6.39595e-20)
(0.346311 3.51978 -3.50822e-20)
(0.297507 3.55694 4.77112e-20)
(0.226921 3.54657 1.91454e-21)
(0.258337 0.251277 0)
(0.965443 1.01587 1.812e-19)
(1.05385 1.12233 -1.37349e-19)
(1.03311 1.11253 -1.00607e-19)
(0.994356 1.08376 -6.8846e-19)
(0.952024 1.05279 6.43412e-19)
(0.906688 1.02156 3.65771e-19)
(0.857305 0.993946 -3.26554e-20)
(0.800062 0.976159 3.13278e-19)
(0.72267 0.976648 -3.0049e-20)
(0.611203 0.992083 -3.93609e-19)
(0.478194 0.995844 3.21449e-20)
(0.355393 0.988297 -4.11756e-20)
(0.327525 1.33192 -5.21149e-20)
(0.440483 2.85237 3.99188e-20)
(0.498497 3.4616 1.52447e-21)
(0.440946 3.56391 -1.77526e-19)
(0.397971 3.59777 -1.79863e-19)
(0.320828 3.6343 2.14678e-19)
(0.24574 3.62258 8.01435e-20)
(0.240364 0.246688 4.39707e-19)
(0.957181 1.03549 1.21939e-18)
(1.04198 1.14071 -3.91656e-19)
(1.0204 1.12972 -3.82673e-19)
(0.982232 1.10025 0)
(0.941006 1.06845 9.35453e-19)
(0.897345 1.03649 5.55617e-19)
(0.850916 1.00857 -3.422e-20)
(0.798623 0.992721 3.29571e-20)
(0.727578 1.00063 1.92409e-19)
(0.618439 1.02968 -1.25536e-19)
(0.476344 1.04596 -2.29204e-19)
(0.358047 1.07785 -2.7027e-19)
(0.415612 1.83022 2.69761e-19)
(0.558203 3.28076 7.20277e-20)
(0.573044 3.55255 0)
(0.505244 3.61907 0)
(0.448899 3.69028 2.08696e-19)
(0.359923 3.75984 0)
(0.2626 3.72812 3.61364e-19)
(0.227383 0.245638 -6.40742e-19)
(0.946831 1.0561 -1.01315e-18)
(1.02832 1.15965 0)
(1.00604 1.14712 7.82295e-21)
(0.968584 1.11662 -6.66146e-19)
(0.928562 1.0837 1.38557e-18)
(0.886956 1.05069 3.72838e-19)
(0.844012 1.02224 -4.07797e-20)
(0.79747 1.00801 3.43209e-19)
(0.734035 1.02265 -1.91471e-20)