/*--------------------------------*- C++ -*----------------------------------*\
| =========                 |                                                 |
| \\      /  F ield         | OpenFOAM: The Open Source CFD Toolbox           |
|  \\    /   O peration     | Version:  2306                                  |
|   \\  /    A nd           | Website:  www.openfoam.com                      |
|    \\/     M anipulation  |                                                 |
\*---------------------------------------------------------------------------*/
FoamFile
{
    version     2.0;
    format      ascii;
    arch        "LSB;label=32;scalar=64";
    class       volVectorField;
    location    "22";
    object      U;
}
// * * * * * * * * * * * * * * * * * * * * * * * * * * * * * * * * * * * * * //

dimensions      [0 1 -1 0 0 0 0];

internalField   nonuniform List<vector> 
8800
(
(0.984963 -0.08845 0)
(1.00213 -0.0568186 0)
(0.99968 -0.0305487 0)
(1.00003 -0.0158507 0)
(1.00006 -0.00870258 0)
(1.00003 -0.00505489 0)
(1.00002 -0.00297066 0)
(1.00001 -0.00168483 0)
(1.00001 -0.00081186 0)
(1.00005 -0.000128551 0)
(1.00001 0.0005571 0)
(1.00001 0.00131086 0)
(1.00001 0.00234498 0)
(1.00002 0.00395361 0)
(1.00005 0.00667324 0)
(1.00006 0.0117089 0)
(0.99992 0.0220327 0)
(0.999202 0.0411599 0)
(1.00745 0.0768936 0)
(0.77365 0.0450696 0)
(0.361022 -0.0151692 0)
(1.04558 -0.0741901 0)
(1.08712 -0.0678731 0)
(1.04778 -0.0522813 0)
(1.02457 -0.0383654 0)
(1.01231 -0.0260734 0)
(1.00641 -0.016738 0)
(1.00358 -0.0102626 0)
(1.00216 -0.00568514 0)
(1.0015 -0.00213852 0)
(1.00137 0.00105488 0)
(1.00173 0.00435054 0)
(1.00271 0.00824465 0)
(1.00471 0.0135882 0)
(1.00879 0.0213317 0)
(1.01737 0.0321746 0)
(1.03456 0.0455524 0)
(1.06559 0.0596939 0)
(1.09413 0.0729253 0)
(0.842346 0.0556881 0)
(0.217125 -0.00164399 0)
(1.07591 -0.0503203 0)
(1.09988 -0.04868 0)
(1.06467 -0.0401273 0)
(1.03993 -0.0329559 0)
(1.02366 -0.0256466 0)
(1.01386 -0.0182958 0)
(1.0084 -0.011655 0)
(1.0056 -0.00594545 0)
(1.00448 -0.000733682 0)
(1.0048 0.0043122 0)
(1.00662 0.00960335 0)
(1.01052 0.0156424 0)
(1.01785 0.0225724 0)
(1.03057 0.0298811 0)
(1.05081 0.0369265 0)
(1.0806 0.0443115 0)
(1.10645 0.0515757 0)
(0.943208 0.0412346 0)
(0.216733 0.00165627 0)
(0.176023 -0.000640638 0)
(1.01884 -0.0353126 0)
(1.10561 -0.0412859 0)
(1.07807 -0.0361273 0)
(1.05274 -0.0301204 0)
(1.03543 -0.0244139 0)
(1.02343 -0.0187477 0)
(1.01554 -0.0128381 0)
(1.0109 -0.00685391 0)
(1.00889 -0.000746886 0)
(1.00945 0.00531125 0)
(1.01262 0.0111891 0)
(1.01867 0.0169874 0)
(1.02842 0.0225881 0)
(1.04281 0.0280492 0)
(1.0636 0.0337513 0)
(1.0941 0.0397632 0)
(1.09464 0.0414923 0)
(0.829818 0.0226108 0)
(0.175368 0.000654423 0)
(0.154599 -0.000481976 0)
(0.957759 -0.0253715 0)
(1.10419 -0.0348237 0)
(1.08789 -0.0323511 0)
(1.0612 -0.0277864 0)
(1.0432 -0.0228435 0)
(1.03079 -0.0177196 0)
(1.02213 -0.0124211 0)
(1.01655 -0.00675756 0)
(1.01393 -0.000520349 0)
(1.01463 0.00575008 0)
(1.01853 0.0114982 0)
(1.02545 0.0167252 0)
(1.03572 0.0216682 0)
(1.0505 0.0264858 0)
(1.07237 0.0310391 0)
(1.1013 0.0350386 0)
(1.07022 0.0333676 0)
(0.743238 0.0140999 0)
(0.153618 0.000497451 0)
(0.140278 -0.000351276 0)
(0.901393 -0.0188744 0)
(1.09664 -0.029649 0)
(1.0959 -0.0287962 0)
(1.06872 -0.0251524 0)
(1.04985 -0.0211534 0)
(1.03689 -0.016576 0)
(1.02791 -0.0115342 0)
(1.02196 -0.00611198 0)
(1.019 -0.00013895 0)
(1.01975 0.00587803 0)
(1.02391 0.0113167 0)
(1.03106 0.0162351 0)
(1.04167 0.0207388 0)
(1.05714 0.0247328 0)
(1.07995 0.0282329 0)
(1.10386 0.0309511 0)
(1.03928 0.0271812 0)
(0.678161 0.00985531 0)
(0.138903 0.000369559 0)
(0.129966 -0.000262142 0)
(0.852851 -0.0142511 0)
(1.08454 -0.0250816 0)
(1.10131 -0.0253254 0)
(1.07519 -0.0221088 0)
(1.05582 -0.0186749 0)
(1.04236 -0.0148157 0)
(1.0329 -0.0103851 0)
(1.02665 -0.00534994 0)
(1.02354 0.000331096 0)
(1.0242 0.00605579 0)
(1.02842 0.0111012 0)
(1.03584 0.0154369 0)
(1.0469 0.0191549 0)
(1.06281 0.0223936 0)
(1.08606 0.025387 0)
(1.10344 0.0273415 0)
(1.00624 0.022144 0)
(0.628645 0.00729331 0)
(0.128115 0.00028443 0)
(0.122339 -0.00019784 0)
(0.812534 -0.0107632 0)
(1.06998 -0.0209448 0)
(1.10479 -0.022113 0)
(1.08106 -0.0193526 0)
(1.06106 -0.0162177 0)
(1.04723 -0.0128189 0)
(1.03754 -0.00888974 0)
(1.03109 -0.00431797 0)
(1.02783 0.000925406 0)
(1.02837 0.0061614 0)
(1.03258 0.0106827 0)
(1.04008 0.0144309 0)
(1.05131 0.0175571 0)
(1.06764 0.0203119 0)
(1.09147 0.0229884 0)
(1.10062 0.0241065 0)
(0.973888 0.0179533 0)
(0.590414 0.00552075 0)
(0.11991 0.000225302 0)
(0.116772 -0.000142165 0)
(0.780156 -0.00790808 0)
(1.05431 -0.0168688 0)
(1.10674 -0.0187807 0)
(1.08622 -0.0167004 0)
(1.06587 -0.01396 0)
(1.05192 -0.0108224 0)
(1.04209 -0.00722159 0)
(1.03536 -0.00310121 0)
(1.03178 0.00164218 0)
(1.03224 0.0063527 0)
(1.03655 0.0102817 0)
(1.04408 0.0134948 0)
(1.05525 0.0161972 0)
(1.07177 0.0185302 0)
(1.09538 0.0205845 0)
(1.09523 0.0208002 0)
(0.943905 0.014247 0)
(0.560977 0.00415344 0)
(0.113639 0.000176319 0)
(0.112829 -0.000102112 0)
(0.755173 -0.0055614 0)
(1.03912 -0.013001 0)
(1.10745 -0.0152476 0)
(1.09053 -0.0136293 0)
(1.07009 -0.0112452 0)
(1.05584 -0.00852969 0)
(1.04589 -0.00535112 0)
(1.03916 -0.00166996 0)
(1.03553 0.00252669 0)
(1.03573 0.00661077 0)
(1.03971 0.00991423 0)
(1.04704 0.0125384 0)
(1.05831 0.0146514 0)
(1.07497 0.0164265 0)
(1.09769 0.0179594 0)
(1.08801 0.017502 0)
(0.917539 0.0110839 0)
(0.538546 0.00308985 0)
(0.108828 0.000145474 0)
(0.110334 -5.44365e-05 0)
(0.737132 -0.00333684 0)
(1.02555 -0.00908007 0)
(1.10737 -0.0114193 0)
(1.09423 -0.0102276 0)
(1.07357 -0.00827881 0)
(1.05906 -0.00611595 0)
(1.04887 -0.00345953 0)
(1.04191 -0.00021949 0)
(1.03806 0.00355545 0)
(1.03799 0.00713151 0)
(1.04181 0.00983893 0)
(1.04906 0.0117466 0)
(1.06031 0.0130773 0)
(1.07723 0.0141918 0)
(1.09868 0.0151279 0)
(1.07984 0.0140716 0)
(0.895344 0.00808745 0)
(0.522227 0.00210778 0)
(0.105267 0.000108883 0)
(0.10929 -2.35078e-06 0)
(0.725605 -0.00150977 0)
(1.01402 -0.00557134 0)
(1.10633 -0.00806764 0)
(1.09708 -0.00759162 0)
(1.07664 -0.00613778 0)
(1.06231 -0.00423266 0)
(1.05237 -0.0016622 0)
(1.04549 0.00142497 0)
(1.04142 0.00482522 0)
(1.04103 0.00792625 0)
(1.04432 0.010192 0)
(1.05104 0.0117733 0)
(1.06177 0.0126844 0)
(1.07842 0.0131417 0)
(1.09809 0.0131219 0)
(1.07075 0.0111414 0)
(0.877355 0.00564065 0)
(0.511192 0.00137994 0)
(0.102902 7.11698e-05 0)
(0.109343 3.05015e-05 0)
(0.719314 -0.000350452 0)
(1.00491 -0.00283788 0)
(1.10409 -0.00505835 0)
(1.09872 -0.00494366 0)
(1.07896 -0.00375834 0)
(1.06479 -0.00202623 0)
(1.05485 0.000371401 0)
(1.04776 0.00323555 0)
(1.04336 0.00636488 0)
(1.04252 0.00908256 0)
(1.04544 0.0107849 0)
(1.05178 0.0116635 0)
(1.06217 0.0119465 0)
(1.0783 0.0119886 0)
(1.09565 0.0114844 0)
(1.06099 0.00895865 0)
(0.863216 0.00423648 0)
(0.503501 0.00105795 0)
(0.101314 5.07077e-05 0)
(0.110037 5.138e-05 0)
(0.716477 0.000245105 0)
(0.998967 -0.0011132 0)
(1.10218 -0.00251276 0)
(1.10013 -0.00221981 0)
(1.08141 -0.00103752 0)
(1.06755 0.00068835 0)
(1.05771 0.00291711 0)
(1.05055 0.00546736 0)
(1.04584 0.00824931 0)
(1.04441 0.0104929 0)
(1.04663 0.0116082 0)
(1.05225 0.0119471 0)
(1.06197 0.01183 0)
(1.07764 0.0113983 0)
(1.09258 0.0105082 0)
(1.05193 0.00794737 0)
(0.851835 0.00389718 0)
(0.497021 0.00106151 0)
(0.0999559 5.1207e-05 0)
(0.111065 6.10592e-05 0)
(0.715473 0.00060132 0)
(0.995573 -0.000210388 0)
(1.10164 -0.000930728 0)
(1.10201 -0.0001012 0)
(1.08387 0.00130849 0)
(1.07002 0.00310786 0)
(1.06007 0.00536413 0)
(1.05277 0.00792979 0)
(1.04766 0.0105357 0)
(1.0455 0.0124378 0)
(1.04694 0.0131302 0)
(1.05208 0.0130213 0)
(1.06124 0.0125086 0)
(1.07616 0.0118335 0)
(1.08929 0.0107075 0)
(1.04366 0.00820091 0)
(0.841285 0.0042048 0)
(0.490319 0.00121383 0)
(0.0984306 6.52132e-05 0)
(0.112348 7.05195e-05 0)
(0.715578 0.00103304 0)
(0.993147 0.000514379 0)
(1.10181 -0.000185319 0)
(1.10471 0.000650341 0)
(1.08678 0.00226311 0)
(1.0728 0.00449221 0)
(1.06277 0.00727914 0)
(1.05516 0.0103525 0)
(1.04943 0.0133004 0)
(1.04646 0.0153203 0)
(1.04704 0.0160096 0)
(1.05131 0.0157242 0)
(1.06015 0.0147978 0)
(1.07448 0.0137934 0)
(1.0857 0.012504 0)
(1.0347 0.00927528 0)
(0.82995 0.00465316 0)
(0.482925 0.0013916 0)
(0.0965752 8.42444e-05 0)
(0.114027 8.74152e-05 0)
(0.717033 0.00164407 0)
(0.99082 0.00159788 0)
(1.10141 0.00042521 0)
(1.10711 0.000838663 0)
(1.09017 0.00235751 0)
(1.07639 0.00512622 0)
(1.0663 0.00874775 0)
(1.05823 0.0127804 0)
(1.05169 0.0166857 0)
(1.0477 0.0194106 0)
(1.04729 0.0205138 0)
(1.05053 0.0204749 0)
(1.0583 0.0195963 0)
(1.07205 0.017987 0)
(1.08016 0.0154075 0)
(1.02305 0.0104368 0)
(0.817437 0.00501829 0)
(0.474886 0.00157767 0)
(0.0943692 0.000104664 0)
(0.116339 0.000115259 0)
(0.720817 0.00246794 0)
(0.989235 0.00336607 0)
(1.09938 0.00208463 0)
(1.10871 0.001911 0)
(1.09379 0.00317581 0)
(1.08084 0.00646422 0)
(1.07083 0.0109608 0)
(1.06222 0.0159907 0)
(1.05463 0.0209338 0)
(1.04941 0.0243829 0)
(1.04775 0.0258356 0)
(1.04983 0.0257987 0)
(1.05596 0.0245708 0)
(1.06761 0.0221432 0)
(1.0708 0.0176454 0)
(1.00846 0.0111536 0)
(0.804341 0.0053612 0)
(0.466226 0.00179228 0)
(0.0917954 0.000123948 0)
(0.119506 0.000157348 0)
(0.727945 0.0035821 0)
(0.990293 0.0057346 0)
(1.09688 0.00529427 0)
(1.10969 0.00470164 0)
(1.09768 0.00613719 0)
(1.08622 0.0100525 0)
(1.07629 0.0152368 0)
(1.06704 0.0209163 0)
(1.05814 0.0263542 0)
(1.05137 0.0298578 0)
(1.04816 0.0310018 0)
(1.04855 0.0303675 0)
(1.05269 0.0283847 0)
(1.06041 0.0246141 0)
(1.05812 0.018735 0)
(0.992734 0.0116387 0)
(0.791167 0.00590194 0)
(0.456674 0.00208344 0)
(0.0887997 0.000145451 0)
(0.123813 0.000218933 0)
(0.738934 0.00491475 0)
(0.99491 0.00848362 0)
(1.09652 0.00970411 0)
(1.11082 0.00998383 0)
(1.10224 0.012241 0)
(1.0922 0.0165992 0)
(1.08223 0.0221635 0)
(1.07209 0.0280464 0)
(1.06153 0.0332517 0)
(1.05279 0.0360112 0)
(1.04777 0.0360961 0)
(1.0461 0.0342049 0)
(1.04765 0.0308918 0)
(1.05108 0.0259699 0)
(1.0443 0.0194925 0)
(0.977432 0.0125347 0)
(0.777624 0.00681458 0)
(0.445678 0.00248191 0)
(0.085279 0.000171381 0)
(0.129556 0.000297155 0)
(0.754196 0.0065516 0)
(1.00411 0.0117607 0)
(1.10024 0.0148057 0)
(1.11428 0.0168322 0)
(1.10786 0.0204354 0)
(1.09867 0.0255693 0)
(1.08834 0.0315277 0)
(1.07691 0.0373997 0)
(1.06426 0.0418768 0)
(1.05315 0.043276 0)
(1.04595 0.041706 0)
(1.04191 0.0381745 0)
(1.0407 0.0333414 0)
(1.04067 0.0275666 0)
(1.03073 0.0210035 0)
(0.962708 0.0142816 0)
(0.762721 0.00817255 0)
(0.432524 0.00302885 0)
(0.0810556 0.000206886 0)
(0.137179 0.000409617 0)
(0.774316 0.00878649 0)
(1.01846 0.0158438 0)
(1.10856 0.0207673 0)
(1.1212 0.0247955 0)
(1.11532 0.030176 0)
(1.10606 0.0365193 0)
(1.09469 0.0431245 0)
(1.08132 0.0489641 0)
(1.06599 0.0525131 0)
(1.05202 0.0522217 0)
(1.04233 0.048652 0)
(1.03583 0.0433506 0)
(1.03215 0.0371146 0)
(1.02956 0.0305797 0)
(1.01743 0.0238664 0)
(0.947594 0.0169814 0)
(0.745353 0.0100143 0)
(0.416549 0.00372027 0)
(0.0759692 0.000249302 0)
(0.147471 0.000583468 0)
(0.800559 0.0119801 0)
(1.03828 0.0212149 0)
(1.12164 0.0280707 0)
(1.13207 0.0343632 0)
(1.1253 0.0417989 0)
(1.11482 0.0497029 0)
(1.10143 0.0571639 0)
(1.08527 0.0630001 0)
(1.06661 0.0655378 0)
(1.04929 0.0634091 0)
(1.03678 0.0577718 0)
(1.02787 0.0505718 0)
(1.02203 0.0429381 0)
(1.0175 0.0354866 0)
(1.00355 0.0282458 0)
(0.930808 0.0206436 0)
(0.724765 0.0123194 0)
(0.397282 0.00449605 0)
(0.0698859 0.000289373 0)
(0.161656 0.000865395 0)
(0.834861 0.016787 0)
(1.06482 0.0287675 0)
(1.14 0.0378185 0)
(1.14719 0.0466834 0)
(1.13819 0.0564406 0)
(1.12511 0.0660658 0)
(1.10854 0.0743955 0)
(1.08865 0.0800883 0)
(1.06595 0.0813882 0)
(1.04485 0.0772003 0)
(1.02924 0.0693825 0)
(1.01796 0.0602254 0)
(1.01013 0.0510296 0)
(1.00394 0.0424044 0)
(0.988051 0.0342159 0)
(0.91108 0.0253617 0)
(0.699783 0.0151672 0)
(0.37398 0.0054651 0)
(0.0626914 0.000339543 0)
(0.18195 0.00136287 0)
(0.880446 0.0244193 0)
(1.09984 0.0401142 0)
(1.16436 0.0516507 0)
(1.16693 0.0637243 0)
(1.15405 0.0759227 0)
(1.13682 0.0871018 0)
(1.11577 0.0959168 0)
(1.09119 0.100957 0)
(1.06378 0.100503 0)
(1.03851 0.0938632 0)
(1.01962 0.083652 0)
(1.00593 0.072422 0)
(0.996141 0.0614732 0)
(0.988277 0.0514107 0)
(0.970019 0.0419056 0)
(0.8872 0.0312761 0)
(0.669314 0.0186968 0)
(0.34604 0.00661731 0)
(0.0542907 0.000386916 0)
(0.211746 0.0024996 0)
(0.943088 0.0378872 0)
(1.14549 0.0591279 0)
(1.19574 0.0732491 0)
(1.19114 0.0887948 0)
(1.1723 0.102843 0)
(1.14924 0.114613 0)
(1.12244 0.122871 0)
(1.09234 0.12628 0)
(1.05971 0.123237 0)
(1.03005 0.113583 0)
(1.00781 0.100684 0)
(0.991651 0.0872252 0)
(0.979837 0.0743822 0)
(0.97008 0.0626995 0)
(0.948705 0.0516511 0)
(0.857932 0.0387272 0)
(0.632272 0.0230649 0)
(0.313591 0.00804751 0)
(0.0449753 0.000419634 0)
(0.252846 0.00899586 -2.5711e-20)
(1.02638 0.0654894 -2.04695e-20)
(1.19964 0.0918185 5.78157e-21)
(1.23223 0.108895 0)
(1.21722 0.125817 1.37267e-35)
(1.19083 0.139676 1.33423e-22)
(1.1608 0.15028 -2.26788e-21)
(1.12747 0.156627 0)
(1.09128 0.157435 9.12717e-35)
(1.05294 0.151161 -7.03887e-21)
(1.01843 0.138174 0)
(0.992416 0.122501 -1.01981e-20)
(0.973321 0.106823 -3.12399e-20)
(0.959002 0.0922036 -1.51234e-20)
(0.94673 0.0791627 -4.76463e-21)
(0.921285 0.0668968 -2.88131e-21)
(0.820168 0.0511944 0)
(0.585221 0.0308799 2.05094e-21)
(0.27591 0.0119025 2.42185e-21)
(0.0364466 0.00123866 4.23162e-20)
(0.279726 0.0249777 -4.69775e-20)
(1.09471 0.109677 9.94965e-22)
(1.24539 0.139761 -2.79463e-21)
(1.26497 0.158045 0)
(1.24056 0.173323 4.65274e-21)
(1.20687 0.185451 2.74321e-21)
(1.16992 0.194158 -1.34784e-21)
(1.12989 0.198342 -1.15279e-20)
(1.08714 0.196638 0)
(1.04228 0.187427 2.99563e-20)
(1.00176 0.171485 3.3353e-20)
(0.9707 0.153405 1.07734e-20)
(0.947381 0.135833 4.26761e-20)
(0.92934 0.119576 6.29012e-20)
(0.913028 0.105037 0)
(0.881255 0.0911749 9.33153e-20)
(0.773129 0.0726311 1.35317e-19)
(0.53721 0.0466851 1.49998e-19)
(0.246817 0.0206745 -1.72624e-19)
(0.0310249 0.00265759 -3.15209e-21)
(0.277864 0.0408492 0)
(1.13567 0.166884 -1.4608e-20)
(1.27822 0.199706 0)
(1.2903 0.217027 2.41424e-20)
(1.25882 0.22872 0)
(1.21877 0.237466 1.27264e-20)
(1.17557 0.242927 1.17443e-21)
(1.1294 0.243929 -1.6509e-20)
(1.08053 0.239022 -3.12454e-21)
(1.02952 0.226534 1.44923e-20)
(0.983488 0.207704 7.81863e-20)
(0.947888 0.187527 -5.99313e-22)
(0.920773 0.168585 -3.21534e-20)
(0.899435 0.151507 -6.2539e-20)
(0.880179 0.136352 7.57832e-20)
(0.846403 0.121732 -1.36092e-19)
(0.743858 0.100183 -1.8479e-20)
(0.523788 0.0688729 0)
(0.253853 0.0334967 1.39756e-22)
(0.035671 0.00502902 0)
(0.269654 0.0544955 -3.56735e-19)
(1.15572 0.22693 1.49661e-19)
(1.29912 0.264711 8.1721e-20)
(1.30691 0.280634 -1.57698e-20)
(1.27056 0.288453 2.41536e-20)
(1.22571 0.293252 -3.04223e-20)
(1.17743 0.294871 7.30277e-22)
(1.12603 0.29214 0)
(1.07184 0.283588 -5.60006e-20)
(1.01537 0.267559 0)
(0.964434 0.245794 -3.99258e-20)
(0.924993 0.223689 -5.65022e-20)
(0.894812 0.20362 -3.61867e-20)
(0.870989 0.18596 -4.67587e-20)
(0.849865 0.170478 0)
(0.816481 0.155155 0)
(0.724297 0.131938 -1.24918e-19)
(0.524966 0.0955141 2.4828e-20)
(0.268702 0.0495346 -1.44275e-20)
(0.0421715 0.00823263 -1.65955e-20)
(0.261228 0.0666962 2.63753e-19)
(1.16258 0.286629 0)
(1.31096 0.331176 -2.28927e-19)
(1.31589 0.345507 -5.92002e-20)
(1.27608 0.349656 -4.53539e-20)
(1.22769 0.350492 0)
(1.17548 0.348213 -6.44539e-21)
(1.1198 0.341642 1.4329e-20)
(1.06112 0.329303 2.42469e-20)
(1.00002 0.309591 7.40393e-20)
(0.944962 0.28479 0)
(0.902457 0.26071 -1.23508e-19)
(0.869983 0.239531 -7.92525e-20)
(0.844425 0.221353 -4.78206e-20)
(0.822228 0.205751 3.13988e-19)
(0.790129 0.190209 3.85493e-20)
(0.707062 0.166032 1.83295e-19)
(0.526236 0.123718 -8.78945e-19)
(0.279847 0.066889 5.21843e-19)
(0.0473059 0.0117177 -6.19446e-19)
(0.253745 0.0777134 2.78507e-19)
(1.16129 0.34406 -5.2614e-20)
(1.3156 0.396515 4.02622e-20)
(1.31873 0.409746 1.09872e-19)
(1.27643 0.410503 6.77225e-20)
(1.22536 0.407624 3.34625e-21)
(1.17005 0.401621 5.7928e-21)
(1.11092 0.391306 1.00112e-20)
(1.04849 0.375224 -5.35339e-20)
(0.983484 0.351785 0)
(0.925013 0.323848 -5.29222e-20)
(0.88011 0.297601 -3.06225e-21)
(0.846048 0.275139 -8.89371e-20)
(0.81946 0.256314 0)
(0.796858 0.240459 -6.8654e-20)
(0.766413 0.224728 -1.67032e-19)
(0.690615 0.199417 4.60257e-19)
(0.52289 0.15124 -4.55145e-19)
(0.283496 0.0830608 6.41967e-19)
(0.0497759 0.014834 -6.60684e-19)
(0.247731 0.0879535 -8.24204e-22)
(1.15511 0.398601 6.44109e-20)
(1.315 0.459731 1.92297e-19)
(1.31691 0.472285 -6.72427e-20)
(1.27277 0.469982 3.86475e-20)
(1.2196 0.463695 0)
(1.1618 0.454219 1.81319e-20)
(1.09981 0.440356 -7.03187e-21)
(1.03419 0.420652 -2.42022e-20)
(0.965791 0.39353 0)
(0.904442 0.362317 -5.16864e-20)
(0.857616 0.333674 -7.30271e-20)
(0.822433 0.309621 9.74832e-20)
(0.795304 0.289811 -6.25135e-20)
(0.772781 0.273287 -3.03134e-19)
(0.743975 0.256986 1.86295e-19)
(0.673826 0.229909 5.85471e-20)
(0.51476 0.175455 0)
(0.281362 0.0965585 -6.24754e-19)
(0.0499599 0.0172607 -2.2699e-20)
(0.243087 0.0977344 4.56679e-20)
(1.14609 0.450122 -7.40828e-20)
(1.31054 0.520269 -1.05173e-19)
(1.31158 0.532442 -2.07048e-19)
(1.26604 0.527476 1.87361e-19)
(1.2112 0.518145 -1.00489e-19)
(1.15136 0.505472 -3.81178e-20)
(1.08694 0.488295 -9.7531e-21)
(1.01855 0.465157 2.49864e-20)
(0.947156 0.434405 -1.81676e-19)
(0.883178 0.399823 -6.38503e-20)
(0.834675 0.368561 0)
(0.798743 0.342536 1.06771e-19)
(0.771451 0.321339 1.3218e-19)
(0.749231 0.303785 1.62826e-19)
(0.721849 0.286434 -2.03426e-19)
(0.655592 0.257177 -6.11065e-20)
(0.50242 0.196343 7.18574e-20)
(0.274867 0.107428 0)
(0.0488015 0.0190768 -4.94883e-20)
(0.239609 0.107182 -5.30163e-19)
(1.13564 0.498757 3.39138e-19)
(1.30338 0.577881 1.15726e-19)
(1.30366 0.589896 -1.57974e-19)
(1.257 0.58262 1.11963e-19)
(1.20082 0.570582 -7.81497e-21)
(1.13929 0.555027 3.7361e-20)
(1.07279 0.53482 -4.66681e-21)
(1.00193 0.508464 -4.38595e-20)
(0.927786 0.474214 3.74343e-22)
(0.861436 0.436192 -1.90388e-19)
(0.811471 0.402044 1.86727e-19)
(0.774853 0.37373 -1.1983e-19)
(0.747493 0.350779 1.49217e-19)
(0.725638 0.331892 0)
(0.699414 0.313111 -1.10515e-19)
(0.635821 0.280971 -2.29097e-21)
(0.48672 0.213909 -3.14599e-19)
(0.26481 0.115644 -4.61366e-20)
(0.0464583 0.0201942 0)
(0.237128 0.116399 0)
(1.12458 0.544744 3.68282e-19)
(1.29427 0.632473 2.69607e-19)
(1.29389 0.644524 1.78186e-19)
(1.24628 0.635225 1.07881e-19)
(1.18902 0.620797 0)
(1.12608 0.602669 3.52899e-20)
(1.05776 0.579728 -2.40894e-21)
(0.984682 0.550423 9.3187e-20)
(0.907987 0.51285 -2.21758e-20)
(0.839365 0.471389 -1.39697e-19)
(0.7879 0.43415 9.33795e-20)
(0.75052 0.403248 -3.93641e-21)
(0.72309 0.378174 1.57133e-19)
(0.701628 0.357583 1.02812e-19)
(0.67632 0.337025 -2.40668e-19)
(0.614406 0.301542 2.90371e-19)
(0.468189 0.228037 8.61558e-20)
(0.252001 0.121453 3.53335e-19)
(0.0432582 0.0206126 -9.3421e-19)
(0.235524 0.125529 -1.361e-19)
(1.11348 0.588246 2.12347e-19)
(1.28395 0.684107 -1.67781e-19)
(1.2828 0.696296 -2.06681e-19)
(1.23441 0.685202 0)
(1.17625 0.668661 8.71878e-20)
(1.11211 0.648265 -1.01824e-19)
(1.0422 0.622892 8.46431e-23)
(0.967097 0.590922 0)
(0.887914 0.550255 -3.45348e-19)
(0.816874 0.5054 3.81247e-19)
(0.763848 0.464952 0)
(0.72572 0.431247 1.41953e-19)
(0.698134 0.403783 -3.94562e-21)
(0.676989 0.381141 -3.25242e-19)
(0.652275 0.358419 1.27759e-19)
(0.591215 0.319062 0)
(0.447264 0.238863 4.67532e-19)
(0.23705 0.124875 0)
(0.0394741 0.0204773 -4.45189e-19)
(0.234589 0.134578 1.51721e-19)
(1.10259 0.629491 2.42664e-19)
(1.27286 0.732789 -1.75772e-19)
(1.27082 0.745225 0)
(1.22178 0.732537 1.48162e-19)
(1.1629 0.71414 0)
(1.09773 0.691747 1.33386e-19)
(1.02641 0.664236 1.47471e-20)
(0.949384 0.629908 9.20702e-21)
(0.867714 0.586424 -1.70619e-19)
(0.794188 0.538316 3.69356e-20)
(0.739388 0.494579 0)
(0.700351 0.457816 -3.01911e-19)
(0.6725 0.427683 4.07398e-21)
(0.651561 0.4027 0)
(0.627135 0.377429 4.80426e-21)
(0.566176 0.333601 4.2752e-19)
(0.423944 0.246327 -4.08936e-19)
(0.220209 0.125882 1.20048e-19)
(0.0351779 0.0197181 0)
(0.233993 0.143428 0)
(1.09215 0.668499 2.71527e-19)
(1.2613 0.778688 2.05864e-19)
(1.25831 0.791385 -4.393e-21)
(1.20876 0.777257 9.26343e-20)
(1.14926 0.757234 2.05236e-19)
(1.08321 0.733098 -4.29186e-20)
(1.0106 0.703735 5.60751e-21)
(0.931777 0.667362 5.61976e-20)
(0.847669 0.6214 -2.65919e-19)
(0.771488 0.570243 -6.39061e-21)
(0.714597 0.523214 -1.23324e-19)
(0.674317 0.483181 4.94876e-19)
(0.646063 0.450063 -4.85014e-21)
(0.625224 0.422434 -2.56314e-19)
(0.600801 0.394168 -4.67913e-19)
(0.539305 0.345246 0)
(0.398393 0.250589 0)
(0.201666 0.12439 1.31663e-19)
(0.0305662 0.0183558 -7.58729e-20)
(0.233974 0.152212 1.8865e-19)
(1.08225 0.705266 -5.95258e-19)
(1.24943 0.821915 -2.20337e-19)
(1.24554 0.834816 0)
(1.19557 0.819418 -3.04892e-21)
(1.13557 0.797974 2.46051e-19)
(1.06877 0.772333 -1.43214e-19)
(0.995023 0.741389 -6.3842e-20)
(0.914522 0.703295 5.69093e-20)
(0.827971 0.655214 -2.04423e-19)
(0.748904 0.601301 -3.22541e-19)
(0.689589 0.551045 3.28758e-19)
(0.647707 0.507569 0)
(0.61877 0.471169 -1.15372e-19)
(0.597898 0.440545 -2.81326e-19)
(0.573167 0.40878 -3.38902e-19)
(0.510476 0.353973 -4.10003e-19)
(0.37065 0.251513 1.21999e-19)
(0.181472 0.12023 -7.12544e-20)
(0.0256165 0.016387 7.61017e-22)
(0.233939 0.160831 0)
(1.07301 0.740004 0)
(1.23751 0.862554 4.99606e-21)
(1.23273 0.87562 0)
(1.18241 0.859104 -3.4723e-19)
(1.12202 0.836417 -2.17015e-19)
(1.0546 0.809479 0)
(0.979849 0.777211 -1.54289e-20)
(0.897774 0.737706 6.93456e-20)
(0.808776 0.687888 -4.69564e-19)
(0.726642 0.631595 0)
(0.664486 0.578282 -2.10648e-19)
(0.620566 0.531246 -5.93676e-21)
(0.590578 0.491238 -4.88462e-21)
(0.569486 0.45719 3.00161e-19)
(0.544172 0.421297 -8.26527e-22)
(0.479706 0.359718 -8.89962e-19)
(0.340563 0.248894 2.6548e-19)
(0.159743 0.113423 7.83756e-20)
(0.0204074 0.0138738 0)
(0.233932 0.169164 -6.92677e-19)
(1.06418 0.772998 -3.65711e-19)
(1.22566 0.90072 -5.50524e-19)
(1.22003 0.913905 7.71543e-19)
(1.16945 0.896384 -6.50126e-19)
(1.10875 0.872621 0)
(1.04082 0.844577 -1.21124e-19)
(0.965198 0.811218 2.88785e-20)
(0.881655 0.770605 7.47253e-21)
(0.790267 0.719455 3.71893e-20)
(0.704889 0.661212 4.04024e-19)
(0.639475 0.605117 -7.19923e-20)
(0.592937 0.5545 -3.05219e-19)
(0.561397 0.510545 -1.36963e-19)
(0.539827 0.472482 1.66999e-19)
(0.513673 0.431606 -6.34984e-22)
(0.447029 0.362214 2.43657e-19)
(0.308175 0.242447 -5.75434e-19)
(0.136913 0.104036 6.81059e-19)
(0.0152143 0.0109783 9.7245e-20)
(0.233814 0.17718 2.54114e-19)
(1.05573 0.80428 -2.00084e-19)
(1.21399 0.936531 1.17647e-20)
(1.20755 0.949792 4.35283e-19)
(1.15678 0.931363 1.51689e-19)
(1.09587 0.906655 4.31967e-19)
(1.02755 0.877675 -5.34595e-20)
(0.951166 0.843432 1.37773e-19)
(0.866293 0.801993 -3.25083e-20)
(0.772583 0.74991 -2.55506e-19)
(0.683832 0.690211 0)
(0.614761 0.63172 -3.24106e-19)
(0.564972 0.577669 4.43035e-19)
(0.531139 0.529463 0)
(0.508619 0.486561 -3.57273e-19)
(0.481393 0.439415 2.20782e-19)
(0.412453 0.360897 -2.63124e-19)
(0.274464 0.232035 -3.14256e-19)
(0.114034 0.092582 -5.53378e-19)
(0.0102829 0.00787611 -4.25188e-19)
(0.233877 0.184961 -2.78853e-19)
(1.04752 0.833842 2.13594e-19)
(1.20256 0.970071 5.11726e-19)
(1.19537 0.983372 5.97364e-19)
(1.14448 0.964133 -3.17063e-19)
(1.08344 0.938605 2.9736e-19)
(1.01484 0.908826 -1.66086e-19)
(0.937834 0.873899 1.69672e-19)
(0.851762 0.831892 -7.10762e-21)
(0.755838 0.779257 2.43483e-19)
(0.663649 0.718615 8.57809e-19)
(0.590569 0.658222 0)
(0.536859 0.60106 0)
(0.499751 0.548475 -1.58266e-19)
(0.475399 0.499692 0)
(0.446717 0.444197 4.80125e-19)
(0.375894 0.35463 5.73814e-19)
(0.240497 0.217016 0)
(0.0924704 0.0794287 0)
(0.00598097 0.00488327 4.61784e-19)
(0.233639 0.19226 3.07089e-19)
(1.03957 0.861697 2.55499e-19)
(1.19144 1.00146 3.66979e-19)
(1.18355 1.01477 -5.32264e-19)
(1.13263 0.994794 -3.52763e-19)
(1.07153 0.968544 -3.93455e-19)
(1.00275 0.938093 2.4566e-19)
(0.92525 0.902648 7.3077e-22)
(0.838122 0.860302 -9.58703e-21)
(0.740118 0.807477 -1.17269e-20)
(0.644509 0.746425 4.34396e-19)
(0.567147 0.684686 0)
(0.508892 0.624942 4.47242e-19)
(0.467301 0.568185 3.33827e-19)
(0.439525 0.51251 8.50393e-19)
(0.408325 0.445509 2.59065e-19)
(0.336667 0.341224 -3.15498e-19)
(0.208506 0.19511 -1.84426e-19)
(0.0763753 0.0645335 0)
(0.00356004 0.00249794 5.00563e-19)
(0.233592 0.199471 -6.73774e-19)
(1.03187 0.887953 0)
(1.18063 1.03078 4.09071e-19)
(1.17213 1.04408 -4.35104e-19)
(1.12125 1.02344 3.98389e-19)
(1.06016 0.996558 5.73239e-19)
(0.991318 0.965533 -5.67679e-19)
(0.913434 0.929715 5.94149e-21)
(0.825399 0.887233 0)
(0.725491 0.834532 -2.25706e-19)
(0.626557 0.773604 -9.00112e-19)
(0.544738 0.711136 4.4146e-20)
(0.481468 0.649468 6.0833e-19)
(0.434099 0.589255 0)
(0.400416 0.526146 5.74335e-19)
(0.364006 0.44394 0)
(0.291312 0.317833 0)
(0.179401 0.157842 -2.04588e-19)
(0.0810814 0.0373412 0)
(0.0245909 0.00997379 1.34938e-19)
(0.233222 0.206043 -7.34828e-19)
(1.02438 0.912894 0)
(1.17011 1.05822 6.60155e-19)
(1.16107 1.07152 0)
(1.11031 1.05032 -2.15491e-19)
(1.04927 1.02292 0)
(0.980464 0.991449 -4.22476e-20)
(0.902292 0.955432 -2.91819e-20)
(0.813483 0.913043 -1.30204e-21)
(0.711811 0.860802 -2.20071e-19)
(0.60967 0.800567 2.34887e-20)
(0.523233 0.738118 3.64727e-19)
(0.45446 0.675152 5.88477e-19)
(0.399921 0.612696 8.40534e-20)
(0.356952 0.542678 4.49877e-19)
(0.310243 0.442483 0)
(0.228474 0.285961 6.86742e-19)
(0.126321 0.0941598 -4.01545e-19)
(0.0501764 0.0540427 4.58044e-19)
(-0.0573885 0.404504 -5.40077e-19)
(0.232826 0.212345 5.98051e-19)
(1.01687 0.93645 9.65372e-19)
(1.15983 1.0841 0)
(1.15024 1.0975 9.688e-21)
(1.09964 1.07599 5.84545e-19)
(1.03863 1.0483 -1.10411e-18)
(0.96991 1.01661 -2.4907e-19)
(0.891459 0.980712 0)
(0.801903 0.938797 -5.39718e-20)
(0.69849 0.88757 -6.32081e-21)
(0.593042 0.828772 0)
(0.501613 0.767401 0)
(0.426692 0.703834 5.17194e-19)
(0.363706 0.640464 -2.63051e-19)
(0.306909 0.56589 -4.50079e-19)
(0.242552 0.448357 0)
(0.128422 0.266002 3.47641e-19)
(0.0217521 0.432763 -3.99361e-19)
(0.0417507 1.81199 -2.1006e-19)
(0.075784 2.7679 -2.81746e-19)
(0.232243 0.217874 -4.34066e-19)
(1.00949 0.95871 -1.2142e-18)
(1.14977 1.10842 3.78633e-19)
(1.13966 1.1219 3.66652e-19)
(1.08931 1.10025 0)
(1.02828 1.07241 -7.88932e-19)
(0.959832 1.04072 -4.16424e-19)
(0.881096 1.00513 1.93545e-20)
(0.790891 0.963979 -7.13916e-21)
(0.685865 0.91421 1.65231e-19)
(0.577233 0.857494 4e-19)
(0.480837 0.798452 3.75928e-19)
(0.399346 0.735073 5.08226e-19)
(0.327825 0.670784 -6.00712e-19)
(0.256125 0.598269 -6.66657e-19)
(0.163956 0.477021 0)
(0.0677127 0.811768 0)
(0.122096 2.4943 1.79019e-19)
(0.126995 3.17174 0)
(0.128758 3.37594 3.83281e-19)
(0.234545 0.22314 0)
(1.00284 0.979872 0)
(1.13968 1.13105 0)
(1.1291 1.14448 1.01837e-19)
(1.07899 1.12287 5.1959e-19)
(1.01801 1.09511 -6.0093e-19)
(0.950132 1.06367 -2.97693e-19)
(0.871142 1.02858 2.19569e-20)
(0.780397 0.988442 -1.3159e-19)
(0.673947 0.940566 -2.00607e-20)
(0.562358 0.88657 7.20917e-19)
(0.461266 0.83107 -4.42051e-20)
(0.372924 0.769434 5.72825e-20)
(0.294027 0.700794 8.53879e-20)
(0.209135 0.637756 2.5208e-21)
(0.131023 0.913149 3.50266e-21)
(0.169249 2.63197 -9.06614e-19)
(0.186159 3.27328 -3.39304e-19)
(0.170433 3.42408 1.53121e-19)
(0.153042 3.44967 -1.55881e-19)
(0.153771 0.175303 2.38426e-19)
(0.990769 1.00298 0)
(1.12936 1.15215 -7.31671e-19)
(1.11919 1.16576 -9.34669e-19)
(1.06932 1.1445 1.08419e-18)
(1.00861 1.11697 6.38784e-19)
(0.940665 1.08553 3.45091e-19)
(0.861667 1.05115 -3.74263e-19)
(0.770572 1.01228 1.41019e-19)
(0.663054 0.966658 0)
(0.548904 0.915942 3.08669e-19)
(0.443585 0.864735 -2.79259e-19)
(0.348334 0.809009 0)
(0.263165 0.733893 7.28898e-20)
(0.188099 0.837327 1.76956e-19)
(0.182 2.32846 -2.21415e-19)
(0.256419 3.31024 2.41869e-19)
(0.232896 3.4435 1.17214e-19)
(0.193831 3.46828 1.30266e-19)
(0.168127 3.47988 1.64756e-19)
(0.272861 0.258961 -4.29837e-19)
(0.973078 1.0101 0)
(1.11039 1.17547 7.48549e-19)
(1.10543 1.19723 9.70032e-19)
(1.05385 1.1763 -1.10424e-18)
(0.992948 1.14931 -6.73927e-19)
(0.924407 1.11921 -5.33686e-19)
(0.845153 1.08604 -2.78339e-20)
(0.753248 1.04941 -2.04947e-19)
(0.643778 1.00786 5.01816e-21)
(0.525735 0.963812 1.16932e-20)
(0.413837 0.921081 2.14931e-19)
(0.304632 0.879097 4.65771e-20)
(0.236361 0.983828 -6.72757e-20)
(0.261247 2.19656 -1.56276e-19)
(0.332131 3.31146 1.09327e-19)
(0.319321 3.48135 -9.99856e-20)
(0.278119 3.50633 -5.634e-20)
(0.238038 3.53495 7.93591e-21)
(0.180494 3.52675 -9.11108e-22)
(0.261077 0.255623 0)
(0.969848 1.03124 1.96328e-19)
(1.1022 1.19755 -1.48999e-19)
(1.09554 1.21927 -1.08656e-19)
(1.04416 1.19836 -7.27889e-19)
(0.98347 1.17157 6.59666e-19)
(0.914805 1.14167 3.60068e-19)
(0.835689 1.1093 -2.92738e-20)
(0.743774 1.07418 2.5464e-19)
(0.633817 1.03552 -2.82277e-20)
(0.514252 0.996443 -3.87972e-19)
(0.399782 0.960194 3.05601e-20)
(0.293419 0.942343 -4.02479e-20)
(0.278836 1.4027 -5.55093e-20)
(0.368835 3.0189 3.61012e-20)
(0.40424 3.47234 1.97906e-21)
(0.35724 3.54539 -4.60029e-20)
(0.315795 3.57144 -8.71343e-20)
(0.260949 3.59658 1.37699e-19)
(0.19659 3.59017 4.41263e-20)
(0.244605 0.252797 4.78201e-19)
(0.964857 1.05465 1.3317e-18)
(1.09338 1.22148 -4.27287e-19)
(1.08521 1.24272 -4.14068e-19)
(1.03402 1.22165 0)
(0.973587 1.19486 9.68306e-19)
(0.905085 1.16518 5.50539e-19)
(0.826392 1.13357 -3.08791e-20)
(0.734808 1.10001 2.64192e-20)
(0.624907 1.06441 1.30033e-19)
(0.504631 1.03059 -1.12918e-19)
(0.389507 1.00188 -2.05546e-19)
(0.299641 1.05476 -2.61418e-19)
(0.353948 2.01072 2.88432e-19)
(0.464136 3.35664 1.38787e-19)
(0.457059 3.54428 0)
(0.401349 3.59275 0)
(0.362355 3.64111 1.3858e-19)
(0.293187 3.71044 0)
(0.209446 3.67262 2.10627e-19)
(0.233271 0.253463 -7.01429e-19)
(0.957698 1.0787 -1.11256e-18)
(1.08314 1.24644 0)
(1.07368 1.26693 1.11362e-20)
(1.02272 1.24544 -7.12779e-19)
(0.962668 1.21852 1.44234e-18)
(0.894662 1.18907 3.71155e-19)
(0.816619 1.15809 -3.8541e-20)
(0.72564 1.126 2.8714e-19)
(0.616233 1.0934 -1.46991e-20)
(0.496043 1.06493 0)
(0.382573 1.04583 0)