/*--------------------------------*- C++ -*----------------------------------*\
| =========                 |                                                 |
| \\      /  F ield         | OpenFOAM: The Open Source CFD Toolbox           |
|  \\    /   O peration     | Version:  2306                                  |
|   \\  /    A nd           | Website:  www.openfoam.com                      |
|    \\/     M anipulation  |                                                 |
\*---------------------------------------------------------------------------*/
FoamFile
{
    version     2.0;
    format      ascii;
    arch        "LSB;label=32;scalar=64";
    class       volVectorField;
    location    "8";
    object      U;
}
// * * * * * * * * * * * * * * * * * * * * * * * * * * * * * * * * * * * * * //

dimensions      [0 1 -1 0 0 0 0];

internalField   nonuniform List<vector> 
8800
(
(0.984845 -0.0883736 0)
(1.0018 -0.0566869 0)
(0.999255 -0.0302635 0)
(0.999794 -0.0155297 0)
(1.00022 -0.00844902 0)
(1.00028 -0.00475738 0)
(1.00017 -0.00267003 0)
(1.00004 -0.00142805 0)
(0.999982 -0.000650944 0)
(1.00004 -0.000123286 0)
(0.999974 0.000424847 0)
(1 0.00106525 0)
(1.00009 0.00204401 0)
(1.00026 0.00364729 0)
(1.00029 0.00639983 0)
(1.00004 0.0114255 0)
(0.999551 0.0217036 0)
(0.998836 0.0409521 0)
(1.00724 0.0768302 0)
(0.773666 0.045047 0)
(0.362058 -0.0150407 0)
(1.04644 -0.0735719 0)
(1.08757 -0.067248 0)
(1.04875 -0.0519711 0)
(1.02516 -0.0381187 0)
(1.01225 -0.02546 0)
(1.00619 -0.0161522 0)
(1.00326 -0.00977028 0)
(1.00189 -0.00532972 0)
(1.00133 -0.00195357 0)
(1.00126 0.0008362 0)
(1.00151 0.00393661 0)
(1.00246 0.00767176 0)
(1.00446 0.0128911 0)
(1.00865 0.0205711 0)
(1.01758 0.0316456 0)
(1.03544 0.0452684 0)
(1.06642 0.0591521 0)
(1.09432 0.0721636 0)
(0.843558 0.0553634 0)
(0.220576 -0.00146426 0)
(1.07772 -0.0475763 0)
(1.09936 -0.0450976 0)
(1.06398 -0.0366771 0)
(1.0393 -0.0299269 0)
(1.02275 -0.0232127 0)
(1.01289 -0.0165794 0)
(1.00754 -0.0106201 0)
(1.00486 -0.00555944 0)
(1.00394 -0.000831416 0)
(1.00415 0.00391652 0)
(1.00581 0.00862346 0)
(1.00959 0.0139807 0)
(1.01688 0.0202297 0)
(1.02988 0.0269126 0)
(1.05032 0.0334557 0)
(1.07985 0.0404987 0)
(1.1069 0.0482553 0)
(0.947516 0.0393425 0)
(0.220333 0.00147167 0)
(0.183405 -0.000411107 0)
(1.02696 -0.0300064 0)
(1.10732 -0.034872 0)
(1.07771 -0.0298223 0)
(1.05232 -0.0244718 0)
(1.03518 -0.0196613 0)
(1.02346 -0.0151693 0)
(1.01577 -0.01065 0)
(1.01126 -0.00591291 0)
(1.00933 -0.000782969 0)
(1.00987 0.00441135 0)
(1.01296 0.00919229 0)
(1.01889 0.0137132 0)
(1.0284 0.0180961 0)
(1.0425 0.0225572 0)
(1.06328 0.027461 0)
(1.09444 0.0330851 0)
(1.09878 0.0351602 0)
(0.844171 0.0188678 0)
(0.182997 0.000421677 0)
(0.170581 -6.55448e-05 0)
(0.97921 -0.0134107 0)
(1.10292 -0.0214729 0)
(1.08254 -0.0223771 0)
(1.05526 -0.0214603 0)
(1.03776 -0.0191998 0)
(1.02596 -0.0156001 0)
(1.01834 -0.0112065 0)
(1.01382 -0.00620179 0)
(1.01187 -0.000681372 0)
(1.01232 0.00482002 0)
(1.01537 0.00996975 0)
(1.02125 0.0145147 0)
(1.03076 0.0183362 0)
(1.04504 0.0211097 0)
(1.06703 0.0226907 0)
(1.09742 0.0227329 0)
(1.07702 0.0192163 0)
(0.782121 0.00626766 0)
(0.169999 7.23722e-05 0)
(0.168146 2.14853e-05 0)
(0.947296 -0.00582582 0)
(1.0886 -0.0141012 0)
(1.08065 -0.0186064 0)
(1.05776 -0.0195907 0)
(1.04279 -0.0187903 0)
(1.03212 -0.0161657 0)
(1.02471 -0.0120209 0)
(1.01983 -0.00668403 0)
(1.01747 -0.000550191 0)
(1.01808 0.00571517 0)
(1.02143 0.0112401 0)
(1.02731 0.0157185 0)
(1.03612 0.0188246 0)
(1.04863 0.0203369 0)
(1.0671 0.0201822 0)
(1.08974 0.0173656 0)
(1.05206 0.0107476 0)
(0.754353 0.00216829 0)
(0.167287 -7.28445e-06 0)
(0.16736 1.96321e-05 0)
(0.926274 -0.00292628 0)
(1.06906 -0.00995062 0)
(1.07149 -0.0159637 0)
(1.05645 -0.0187742 0)
(1.04423 -0.0182625 0)
(1.03553 -0.0159741 0)
(1.02911 -0.0120724 0)
(1.02456 -0.00691418 0)
(1.02218 -0.000327469 0)
(1.02264 0.00638705 0)
(1.02576 0.012048 0)
(1.03095 0.0163293 0)
(1.03828 0.0190986 0)
(1.04845 0.0201585 0)
(1.06228 0.0188868 0)
(1.0748 0.0141946 0)
(1.02832 0.0066997 0)
(0.740174 0.0010004 0)
(0.166221 -9.27435e-06 0)
(0.167365 2.23904e-05 0)
(0.913811 -0.00122701 0)
(1.0522 -0.00574277 0)
(1.06166 -0.0106906 0)
(1.05375 -0.0136506 0)
(1.04582 -0.014276 0)
(1.03903 -0.0130952 0)
(1.03349 -0.010252 0)
(1.02959 -0.00590594 0)
(1.02732 0.000164183 0)
(1.02763 0.00635387 0)
(1.03019 0.0113988 0)
(1.03466 0.0147376 0)
(1.04049 0.0163538 0)
(1.04757 0.0162722 0)
(1.05557 0.0139908 0)
(1.06005 0.00947478 0)
(1.01054 0.00379541 0)
(0.732825 0.000504107 0)
(0.165833 2.70698e-07 0)
(0.167501 1.7361e-05 0)
(0.907631 -0.000469032 0)
(1.04144 -0.00280066 0)
(1.05381 -0.00591259 0)
(1.05037 -0.00821722 0)
(1.04566 -0.00921459 0)
(1.04103 -0.00876992 0)
(1.03687 -0.00688649 0)
(1.03389 -0.00358385 0)
(1.03192 0.00100165 0)
(1.03195 0.00571544 0)
(1.0339 0.00930631 0)
(1.03685 0.0115971 0)
(1.04077 0.0120644 0)
(1.04502 0.0111341 0)
(1.04906 0.0088807 0)
(1.04913 0.00555137 0)
(0.999845 0.00211083 0)
(0.728887 0.000331091 0)
(0.165483 6.91105e-06 0)
(0.167729 1.80645e-05 0)
(0.904998 -7.80421e-05 0)
(1.03591 -0.00109782 0)
(1.04903 -0.00268461 0)
(1.0477 -0.00406902 0)
(1.04506 -0.00483818 0)
(1.04208 -0.00466281 0)
(1.03907 -0.00343894 0)
(1.0367 -0.00111045 0)
(1.03492 0.00198497 0)
(1.03458 0.00517141 0)
(1.03616 0.007311 0)
(1.03764 0.0084142 0)
(1.03997 0.00824661 0)
(1.0423 0.00712956 0)
(1.04416 0.00534367 0)
(1.04238 0.00319821 0)
(0.993979 0.00125328 0)
(0.726594 0.000249551 0)
(0.165185 9.30158e-06 0)
(0.168055 2.23399e-05 0)
(0.904131 0.000176699 0)
(1.03352 -0.00017546 0)
(1.04669 -0.000832383 0)
(1.04623 -0.00144925 0)
(1.04474 -0.00178144 0)
(1.04283 -0.00157329 0)
(1.04068 -0.000692192 0)
(1.03871 0.000919399 0)
(1.03703 0.00298868 0)
(1.03634 0.00500826 0)
(1.03728 0.00612303 0)
(1.03778 0.00630309 0)
(1.03893 0.00585797 0)
(1.04005 0.00483221 0)
(1.04082 0.00350948 0)
(1.03835 0.00211858 0)
(0.990594 0.000933874 0)
(0.724968 0.000251806 0)
(0.164852 1.481e-05 0)
(0.168509 2.53385e-05 0)
(0.904294 0.000361318 0)
(1.03279 0.000400717 0)
(1.04589 0.000290224 0)
(1.04577 0.000204773 0)
(1.04482 0.000274021 0)
(1.04349 0.000641694 0)
(1.04184 0.00140973 0)
(1.04007 0.00261131 0)
(1.03837 0.00405177 0)
(1.03733 0.00527585 0)
(1.03739 0.00575952 0)
(1.03741 0.00538365 0)
(1.03779 0.00473626 0)
(1.0382 0.00379088 0)
(1.03843 0.00273937 0)
(1.03569 0.00172338 0)
(0.988264 0.00086602 0)
(0.723499 0.000288225 0)
(0.164434 2.06099e-05 0)
(0.169091 3.2001e-05 0)
(0.905187 0.000549806 0)
(1.03308 0.000852741 0)
(1.04608 0.00108965 0)
(1.04608 0.00137698 0)
(1.04535 0.00177912 0)
(1.04428 0.00236311 0)
(1.04285 0.00317695 0)
(1.04113 0.00420652 0)
(1.03927 0.00527438 0)
(1.03781 0.00595492 0)
(1.03717 0.00592692 0)
(1.0367 0.00531706 0)
(1.03657 0.00449143 0)
(1.03655 0.00353404 0)
(1.03648 0.00257416 0)
(1.03361 0.00169273 0)
(0.986287 0.000936742 0)
(0.721937 0.000350725 0)
(0.163899 2.73733e-05 0)
(0.169839 4.04167e-05 0)
(0.906691 0.000742473 0)
(1.03408 0.00126874 0)
(1.04697 0.00178056 0)
(1.04699 0.00237111 0)
(1.04632 0.00307396 0)
(1.0453 0.00390945 0)
(1.04388 0.00487269 0)
(1.04204 0.00589468 0)
(1.03987 0.00676443 0)
(1.0379 0.00707204 0)
(1.03661 0.00668163 0)
(1.03573 0.00583425 0)
(1.0352 0.00482326 0)
(1.03488 0.00376925 0)
(1.03462 0.00277068 0)
(1.03164 0.00187742 0)
(0.984294 0.00109733 0)
(0.720117 0.000434954 0)
(0.163218 3.52441e-05 0)
(0.170792 5.10736e-05 0)
(0.908803 0.000966976 0)
(1.03573 0.00171655 0)
(1.04847 0.00248903 0)
(1.04846 0.00337216 0)
(1.04773 0.00438223 0)
(1.04663 0.00550919 0)
(1.04505 0.0067025 0)
(1.04292 0.00783249 0)
(1.04028 0.00862643 0)
(1.03771 0.00866636 0)
(1.0358 0.0079607 0)
(1.03446 0.00684745 0)
(1.03359 0.00560069 0)
(1.03302 0.00436637 0)
(1.0326 0.00323031 0)
(1.02952 0.00222552 0)
(0.982052 0.0013378 0)
(0.717906 0.000545026 0)
(0.162356 4.48723e-05 0)
(0.172008 6.53034e-05 0)
(0.911605 0.00125041 0)
(1.03803 0.002253 0)
(1.05061 0.00330799 0)
(1.0505 0.00451025 0)
(1.04965 0.00586576 0)
(1.04834 0.00734053 0)
(1.04646 0.00884083 0)
(1.04388 0.010172 0)
(1.04059 0.010979 0)
(1.03726 0.0108061 0)
(1.03468 0.009782 0)
(1.03286 0.00833958 0)
(1.03163 0.00678572 0)
(1.03082 0.00528567 0)
(1.03025 0.00392382 0)
(1.02706 0.00272642 0)
(0.979375 0.00166126 0)
(0.715162 0.000685072 0)
(0.161267 5.66899e-05 0)
(0.173572 8.40438e-05 0)
(0.91525 0.00161427 0)
(1.04108 0.00292613 0)
(1.05345 0.00431725 0)
(1.0532 0.00589788 0)
(1.05215 0.00766648 0)
(1.05053 0.00956716 0)
(1.04819 0.0114612 0)
(1.04498 0.0130801 0)
(1.04083 0.0139639 0)
(1.03658 0.01359 0)
(1.03322 0.0122012 0)
(1.03083 0.0103509 0)
(1.02921 0.0083992 0)
(1.02813 0.00653972 0)
(1.02739 0.00486223 0)
(1.02407 0.00339159 0)
(0.976085 0.00207804 0)
(0.711729 0.000860638 0)
(0.159897 7.12021e-05 0)
(0.175595 0.000109038 0)
(0.919958 0.00208933 0)
(1.04504 0.00379584 0)
(1.05713 0.00560642 0)
(1.0567 0.00765276 0)
(1.05535 0.00993127 0)
(1.0533 0.0123631 0)
(1.05034 0.0147553 0)
(1.04627 0.0167488 0)
(1.04102 0.0177556 0)
(1.0356 0.0171595 0)
(1.03131 0.0153268 0)
(1.02825 0.0129626 0)
(1.02616 0.0105013 0)
(1.02479 0.00817332 0)
(1.02386 0.0060809 0)
(1.02036 0.00424884 0)
(0.971986 0.00260931 0)
(0.707418 0.00108199 0)
(0.158176 8.92248e-05 0)
(0.17823 0.000143162 0)
(0.926026 0.00271965 0)
(1.05011 0.00494364 0)
(1.06187 0.00728776 0)
(1.06117 0.00991366 0)
(1.05942 0.0128302 0)
(1.05678 0.015931 0)
(1.05298 0.01895 0)
(1.04779 0.0214121 0)
(1.04112 0.0225714 0)
(1.03427 0.021697 0)
(1.02884 0.0193073 0)
(1.02497 0.0162934 0)
(1.02233 0.0131876 0)
(1.02059 0.0102646 0)
(1.01943 0.00764243 0)
(1.01574 0.00534309 0)
(0.966846 0.00328109 0)
(0.701995 0.00135916 0)
(0.156019 0.000111646 0)
(0.181699 0.00019217 0)
(0.93388 0.00357817 0)
(1.05663 0.00648862 0)
(1.06796 0.00949989 0)
(1.06689 0.0128372 0)
(1.06458 0.0165607 0)
(1.06112 0.0205168 0)
(1.0562 0.0243256 0)
(1.04955 0.0273583 0)
(1.04109 0.0286796 0)
(1.03246 0.0274336 0)
(1.02564 0.0243355 0)
(1.02079 0.0205036 0)
(1.01748 0.0165885 0)
(1.01531 0.0129212 0)
(1.01388 0.009635 0)
(1.00994 0.00674222 0)
(0.960376 0.00413475 0)
(0.695159 0.00170922 0)
(0.153317 0.000140436 0)
(0.186333 0.000265266 0)
(0.944148 0.0047787 0)
(1.06512 0.00858165 0)
(1.07592 0.0123866 0)
(1.0743 0.0165989 0)
(1.07117 0.0213751 0)
(1.06656 0.0264447 0)
(1.06014 0.0312428 0)
(1.05158 0.0349472 0)
(1.04086 0.036408 0)
(1.03003 0.0346504 0)
(1.02153 0.0306497 0)
(1.01549 0.0257972 0)
(1.01137 0.020879 0)
(1.00867 0.0162966 0)
(1.00691 0.0121948 0)
(1.00267 0.00855967 0)
(0.952214 0.0052435 0)
(0.686511 0.00216201 0)
(0.14993 0.000179251 0)
(0.192637 0.000374395 0)
(0.957766 0.00648154 0)
(1.07644 0.0114188 0)
(1.08652 0.0161638 0)
(1.08405 0.0215255 0)
(1.07969 0.0277294 0)
(1.07349 0.0342352 0)
(1.06501 0.0402217 0)
(1.05395 0.0446523 0)
(1.04037 0.0461573 0)
(1.02686 0.0436832 0)
(1.01632 0.0385407 0)
(1.00883 0.0324285 0)
(1.0037 0.0262829 0)
(1.00032 0.0205921 0)
(0.998145 0.0155147 0)
(0.993515 0.010981 0)
(0.941907 0.00674732 0)
(0.675523 0.00277266 0)
(0.14567 0.000233975 0)
(0.201431 0.000541232 0)
(0.976003 0.00900316 0)
(1.09157 0.0154221 0)
(1.10064 0.021397 0)
(1.09688 0.0283995 0)
(1.09082 0.0365167 0)
(1.08237 0.0447464 0)
(1.07109 0.052012 0)
(1.05676 0.057084 0)
(1.03961 0.0583978 0)
(1.02285 0.054906 0)
(1.00985 0.0483363 0)
(1.00059 0.040697 0)
(0.99418 0.0330648 0)
(0.989909 0.026031 0)
(0.987118 0.0197944 0)
(0.981967 0.0142099 0)
(0.928944 0.00882845 0)
(0.66162 0.00361611 0)
(0.140312 0.000308072 0)
(0.214089 0.000824821 0)
(1.00046 0.0130936 0)
(1.11152 0.0214283 0)
(1.11916 0.0291651 0)
(1.11352 0.0384942 0)
(1.10498 0.0489573 0)
(1.09336 0.0590317 0)
(1.07833 0.0674695 0)
(1.05987 0.0728935 0)
(1.03838 0.0736049 0)
(1.01779 0.0686828 0)
(1.0019 0.0603555 0)
(0.990504 0.0509129 0)
(0.982493 0.0415229 0)
(0.977009 0.0328615 0)
(0.973316 0.025205 0)
(0.967423 0.0183656 0)
(0.912799 0.0116155 0)
(0.644342 0.00476727 0)
(0.133613 0.000397899 0)
(0.232932 0.001377 0)
(1.03399 0.0202213 0)
(1.13819 0.0309558 0)
(1.1433 0.0413926 0)
(1.13443 0.0537186 0)
(1.12198 0.0666351 0)
(1.10586 0.0783233 0)
(1.08599 0.0874912 0)
(1.06257 0.0926829 0)
(1.03614 0.092171 0)
(1.01127 0.0853189 0)
(0.992146 0.0749055 0)
(0.978269 0.0634354 0)
(0.9683 0.0520818 0)
(0.961237 0.0415339 0)
(0.956272 0.0321455 0)
(0.949283 0.0237099 0)
(0.892657 0.015287 0)
(0.623076 0.00632781 0)
(0.125272 0.000503532 0)
(0.261305 0.00267708 0)
(1.08235 0.0338604 0)
(1.17425 0.047888 0)
(1.17425 0.06211 0)
(1.15966 0.0774938 0)
(1.14114 0.0921791 0)
(1.11889 0.104501 0)
(1.09305 0.113269 0)
(1.06395 0.117122 0)
(1.03216 0.114449 0)
(1.0028 0.105065 0)
(0.980259 0.0922928 0)
(0.963663 0.0787074 0)
(0.951402 0.0653864 0)
(0.942342 0.0529431 0)
(0.935602 0.0417386 0)
(0.926871 0.0315673 0)
(0.866971 0.0209881 0)
(0.596283 0.00858023 0)
(0.11539 0.000601611 0)
(0.30235 0.0103872 -3.05531e-20)
(1.14608 0.0620483 -2.39153e-20)
(1.21948 0.0796093 6.81563e-21)
(1.20968 0.0970893 0)
(1.18699 0.11358 3.41102e-35)
(1.16084 0.127999 -1.64039e-22)
(1.13138 0.139185 -1.71668e-21)
(1.09878 0.146102 0)
(1.0634 0.147538 8.05858e-35)
(1.02578 0.142 -6.40094e-21)
(0.991494 0.129768 0)
(0.965049 0.114649 -9.50427e-21)
(0.945155 0.0991598 -2.92557e-20)
(0.92988 0.0842332 -1.42183e-20)
(0.91791 0.0704555 -4.50957e-21)
(0.908194 0.0581769 -2.73964e-21)
(0.896313 0.0471949 0)
(0.833188 0.03513 1.97869e-21)
(0.561147 0.0191346 2.32887e-21)
(0.105396 0.00324349 4.10778e-20)
(0.324431 0.0285694 -5.34643e-20)
(1.19796 0.110267 1.01278e-21)
(1.26066 0.130389 -3.133e-21)
(1.2418 0.146194 0)
(1.21138 0.16073 6.01534e-21)
(1.1779 0.17311 4.23339e-21)
(1.14149 0.182184 -7.12893e-22)
(1.10223 0.186906 -9.28315e-21)
(1.06034 0.186007 0)
(1.01618 0.177976 2.69526e-20)
(0.97587 0.163482 3.04911e-20)
(0.944275 0.146758 9.92945e-21)
(0.919812 0.1303 3.98762e-20)
(0.900256 0.114863 5.94121e-20)
(0.884128 0.100942 0)
(0.870209 0.088973 8.92555e-20)
(0.853586 0.0787227 1.31366e-19)
(0.790603 0.0663493 1.46293e-19)
(0.536734 0.0441235 -1.70689e-19)
(0.104027 0.00896818 -3.06886e-21)
(0.31413 0.0461381 0)
(1.22814 0.172449 -1.57742e-20)
(1.29141 0.193513 0)
(1.26652 0.20531 2.64774e-20)
(1.22983 0.215851 0)
(1.19015 0.224432 1.61303e-20)
(1.1477 0.230059 -3.07761e-22)
(1.10256 0.231509 -1.14137e-20)
(1.05488 0.227515 -3.06271e-21)
(1.0049 0.216623 1.27115e-20)
(0.959232 0.19996 7.139e-20)
(0.923284 0.182087 -4.85899e-22)
(0.895248 0.165373 -3.00106e-20)
(0.872625 0.150431 -5.88012e-20)
(0.85387 0.137573 7.17261e-20)
(0.837806 0.12702 -1.2895e-19)
(0.820417 0.118518 -1.77491e-20)
(0.764036 0.10641 0)
(0.532998 0.0751353 8.84724e-22)
(0.110494 0.0160361 0)
(0.300671 0.0609625 -3.83734e-19)
(1.24104 0.237559 1.60395e-19)
(1.30998 0.260921 8.63718e-20)
(1.28185 0.268965 -1.70065e-20)
(1.24116 0.275008 2.6223e-20)
(1.19712 0.27925 -3.831e-20)
(1.15004 0.280786 -2.81981e-21)
(1.10009 0.278447 0)
(1.04755 0.270963 -4.5658e-20)
(0.992713 0.256918 0)
(0.94285 0.237929 -3.58332e-20)
(0.903763 0.218815 -5.19119e-20)
(0.873449 0.201738 -3.35518e-20)
(0.849287 0.187025 -4.37075e-20)
(0.829587 0.174743 0)
(0.813054 0.164947 0)
(0.796212 0.157275 -1.18756e-19)
(0.744978 0.144651 2.37096e-20)
(0.5271 0.103294 -1.38363e-20)
(0.111414 0.0221605 -1.59987e-20)
(0.288819 0.0739912 2.79036e-19)
(1.24238 0.301763 0)
(1.31874 0.328595 -2.38545e-19)
(1.28884 0.333216 -6.29376e-20)
(1.24556 0.334963 -5.00573e-20)
(1.19853 0.334992 0)
(1.14818 0.332422 -1.0402e-20)
(1.09471 0.326203 7.45825e-21)
(1.0384 0.315084 1.83431e-20)
(0.979606 0.297731 6.38929e-20)
(0.92623 0.276203 0)
(0.884684 0.255535 -1.12543e-19)
(0.852845 0.237653 -7.28268e-20)
(0.827817 0.222657 -4.403e-20)
(0.807742 0.210392 2.91513e-19)
(0.791247 0.200731 3.58501e-20)
(0.775067 0.193067 1.71514e-19)
(0.726943 0.17914 -8.31026e-19)
(0.517554 0.128097 4.94065e-19)
(0.110342 0.0275952 -5.89684e-19)
(0.279542 0.0859335 2.90807e-19)
(1.23657 0.363181 -5.49258e-20)
(1.32015 0.394523 4.1383e-20)
(1.28946 0.396146 1.14222e-19)
(1.24451 0.393929 7.21386e-20)
(1.19544 0.389966 3.12702e-21)
(1.14267 0.383505 1.03062e-20)
(1.08646 0.373574 1.97475e-21)
(1.02712 0.358937 -3.98238e-20)
(0.965082 0.338254 0)
(0.908935 0.313989 -4.77266e-20)
(0.86556 0.291432 -2.99149e-21)
(0.83269 0.272342 -8.17432e-20)
(0.807218 0.256583 0)
(0.787115 0.2438 -6.36279e-20)
(0.770877 0.233708 -1.54992e-19)
(0.755285 0.225548 4.30077e-19)
(0.709199 0.209967 -4.29898e-19)
(0.506478 0.150264 6.09131e-19)
(0.108204 0.0323623 -6.27067e-19)
(0.272584 0.0970859 -9.62689e-22)
(1.22665 0.42106 6.62767e-20)
(1.31608 0.457508 1.96223e-19)
(1.28512 0.45661 -6.91156e-20)
(1.23916 0.450842 4.09824e-20)
(1.18872 0.443257 0)
(1.13426 0.433246 2.27577e-20)
(1.07602 0.419862 2.05501e-21)
(1.01435 0.401912 -1.65575e-20)
(0.949715 0.377989 0)
(0.891206 0.350881 -4.5597e-20)
(0.846278 0.32618 -6.61086e-20)
(0.812619 0.305499 8.95185e-20)
(0.78688 0.288556 -5.78131e-20)
(0.766847 0.274872 -2.81118e-19)
(0.750891 0.264018 1.73317e-19)
(0.735795 0.25511 5.52828e-20)
(0.691299 0.237786 0)
(0.494453 0.170057 -5.92704e-19)
(0.105423 0.0364927 -2.15368e-20)
(0.267313 0.10776 4.68384e-20)
(1.21443 0.475232 -7.56137e-20)
(1.30801 0.516902 -1.067e-19)
(1.27708 0.513889 -2.13205e-19)
(1.23061 0.505092 1.96343e-19)
(1.17938 0.494344 -1.10736e-19)
(1.1238 0.481149 -4.90006e-20)
(1.06404 0.464623 5.7274e-21)
(1.00047 0.443618 2.03391e-20)
(0.933572 0.416636 -1.52768e-19)
(0.872951 0.386664 -5.72467e-20)
(0.826609 0.359586 0)
(0.792252 0.337004 9.82665e-20)
(0.766326 0.318547 1.22385e-19)
(0.746424 0.303635 1.51247e-19)
(0.730798 0.291763 -1.89997e-19)
(0.716187 0.281918 -5.73196e-20)
(0.67308 0.262724 6.8014e-20)
(0.481539 0.187555 0)
(0.102151 0.0399864 -4.72439e-20)
(0.263225 0.11805 -5.37464e-19)
(1.20111 0.525804 3.45278e-19)
(1.29713 0.572511 1.1658e-19)
(1.26638 0.567715 -1.61623e-19)
(1.21969 0.556319 1.16085e-19)
(1.16803 0.542839 -7.38548e-21)
(1.11173 0.52686 5.00431e-20)
(1.05089 0.507549 1.21188e-21)
(0.985774 0.483783 -2.91505e-20)
(0.916896 0.454009 1.52811e-22)
(0.854258 0.421246 -1.68296e-19)
(0.806493 0.391646 1.71009e-19)
(0.771404 0.366892 -1.11115e-19)
(0.745274 0.346597 1.39274e-19)
(0.72552 0.330184 0)
(0.710254 0.317071 -1.03941e-19)
(0.696165 0.306044 -2.63251e-21)
(0.654287 0.284982 -2.99689e-19)
(0.467756 0.202903 -4.39802e-20)
(0.0984033 0.0428324 0)
(0.259948 0.127866 0)
(1.1873 0.573005 3.70889e-19)
(1.28436 0.624383 2.6983e-19)
(1.25383 0.618088 1.81391e-19)
(1.20717 0.604459 1.13339e-19)
(1.1553 0.588608 0)
(1.09858 0.570184 4.14454e-20)
(1.03699 0.54845 -2.71344e-21)
(0.97067 0.522293 5.96969e-20)
(0.899972 0.490045 -1.7687e-20)
(0.835273 0.454675 -1.23948e-19)
(0.785918 0.422479 8.485e-20)
(0.749943 0.3953 -4.25107e-21)
(0.723518 0.372862 1.47219e-19)
(0.703897 0.354655 9.71429e-20)
(0.689008 0.340051 -2.27395e-19)
(0.675493 0.32768 2.76176e-19)
(0.634821 0.304365 8.29011e-20)
(0.452932 0.216 3.40654e-19)
(0.0940601 0.0448686 -8.97658e-19)
(0.257265 0.137383 -1.35712e-19)
(1.17337 0.617046 2.1277e-19)
(1.27036 0.672673 -1.65997e-19)
(1.24007 0.665082 -2.08729e-19)
(1.19359 0.649523 0)
(1.14174 0.631598 9.28307e-20)
(1.0848 0.611053 -1.24124e-19)
(1.02272 0.587226 -1.50222e-20)
(0.955468 0.559086 0)
(0.883077 0.52475 -2.80694e-19)
(0.816163 0.487043 3.394e-19)
(0.764935 0.452251 0)
(0.727783 0.422418 1.3348e-19)
(0.70089 0.397519 -4.46099e-21)
(0.68132 0.377209 -3.09964e-19)
(0.666799 0.36083 1.21464e-19)
(0.653869 0.34691 0)
(0.614332 0.321221 4.51783e-19)
(0.436963 0.226813 0)
(0.0891944 0.0461717 -4.31622e-19)
(0.254976 0.146548 1.5012e-19)
(1.15961 0.658063 2.42266e-19)
(1.25561 0.717515 -1.73771e-19)
(1.22556 0.708814 0)
(1.17932 0.691568 1.53124e-19)
(1.12767 0.67181 0)
(1.07075 0.649423 1.56535e-19)
(1.00838 0.623841 2.23988e-20)
(0.940409 0.594116 2.23016e-21)
(0.866487 0.558198 -1.37976e-19)
(0.797166 0.518489 3.22546e-20)
(0.743625 0.4812 0)
(0.704898 0.448534 -2.86075e-19)
(0.677261 0.420833 4.67993e-21)
(0.657574 0.398044 0)
(0.643384 0.37958 5.08533e-21)
(0.631058 0.36382 4.13969e-19)
(0.592569 0.335496 -4.00486e-19)
(0.419584 0.23527 1.17314e-19)
(0.0836352 0.0466501 0)
(0.252774 0.155234 0)
(1.14599 0.696306 2.69829e-19)
(1.2405 0.759205 2.01961e-19)
(1.21065 0.74946 -3.91026e-21)
(1.16471 0.730691 9.39752e-20)
(1.11336 0.709304 2.19941e-19)
(1.05666 0.685315 -5.22765e-20)
(0.994265 0.658291 1.49451e-20)
(0.925749 0.627365 2.45467e-20)
(0.850407 0.590415 -2.10959e-19)
(0.778501 0.54919 -7.12473e-21)
(0.722154 0.509601 -1.14906e-19)
(0.68132 0.474001 4.73649e-19)
(0.652511 0.443178 -5.78056e-21)
(0.632504 0.417442 -2.50152e-19)
(0.618542 0.396418 -4.56775e-19)
(0.60672 0.378559 0)
(0.569204 0.34725 0)
(0.40057 0.241255 1.31382e-19)
(0.077303 0.046219 -7.5473e-20)
(0.25099 0.163563 1.84213e-19)
(1.13266 0.732079 -5.8581e-19)
(1.22528 0.797875 -2.15416e-19)
(1.1955 0.787201 0)
(1.15001 0.767004 -2.75991e-21)
(1.09905 0.744161 2.60091e-19)
(1.04273 0.71878 -1.67262e-19)
(0.980538 0.690577 -1.03658e-19)
(0.911716 0.65884 1.24824e-20)
(0.835033 0.621406 -1.56371e-19)
(0.76037 0.579335 -2.87696e-19)
(0.700707 0.537771 3.07478e-19)
(0.657118 0.499243 0)
(0.626571 0.464973 -1.13794e-19)
(0.605833 0.435755 -2.77576e-19)
(0.591911 0.411645 -3.35464e-19)
(0.580448 0.39116 -4.08301e-19)
(0.543964 0.356441 1.22739e-19)
(0.379489 0.24447 -7.13574e-20)
(0.0701013 0.0447131 1.38035e-21)
(0.249137 0.171442 0)
(1.11976 0.765485 0)
(1.21007 0.833677 4.16853e-21)
(1.1803 0.822167 0)
(1.13534 0.800656 -3.49247e-19)
(1.08489 0.776485 -2.2689e-19)
(1.02911 0.749879 0)
(0.967314 0.720716 -2.06872e-20)
(0.898479 0.688527 -1.16006e-20)
(0.82057 0.651206 -3.57198e-19)
(0.742948 0.609027 0)
(0.679538 0.566019 -1.98802e-19)
(0.632371 0.524715 -6.826e-21)
(0.599267 0.486802 -5.59803e-21)
(0.576973 0.453239 3.00279e-19)
(0.563062 0.425664 -4.02099e-22)
(0.55233 0.401647 -8.98114e-19)
(0.516854 0.362874 2.71381e-19)
(0.356073 0.244454 8.05499e-20)
(0.0619493 0.0419384 0)
(0.247233 0.178848 -6.69505e-19)
(1.10708 0.7969 -3.55731e-19)
(1.19498 0.866936 -5.31563e-19)
(1.16526 0.85453 7.53812e-19)
(1.12082 0.831785 -6.50092e-19)
(1.07099 0.806388 0)
(1.01588 0.778693 -1.38475e-19)
(0.954701 0.748736 4.12366e-20)
(0.886121 0.716402 7.33636e-21)
(0.807232 0.679807 2.93323e-20)
(0.726566 0.638272 3.58781e-19)
(0.658971 0.594607 -6.76234e-20)
(0.607298 0.550765 -2.9851e-19)
(0.570212 0.508956 -1.39082e-19)
(0.545656 0.470745 1.69407e-19)
(0.53148 0.438876 -2.14672e-22)
(0.521651 0.410796 2.50665e-19)
(0.486334 0.366752 -5.9478e-19)
(0.329111 0.24093 7.12332e-19)
(0.0527791 0.0378549 1.00767e-19)
(0.245237 0.185822 2.44174e-19)
(1.09477 0.826487 -1.92689e-19)
(1.17997 0.897758 1.01824e-20)
(1.15047 0.884449 4.21767e-19)
(1.10655 0.860554 1.49875e-19)
(1.05742 0.833994 4.5042e-19)
(1.00312 0.805307 -5.86184e-20)
(0.942762 0.774674 1.92731e-19)
(0.874729 0.742449 7.03703e-20)
(0.795198 0.707117 -1.81578e-19)
(0.711626 0.667104 0)
(0.639303 0.623686 -3.10974e-19)
(0.582186 0.577528 4.38739e-19)
(0.53973 0.531737 0)
(0.512513 0.48924 -3.65195e-19)
(0.497377 0.450866 2.29285e-19)
(0.487391 0.417695 -2.74207e-19)
(0.451932 0.367278 -3.3282e-19)
(0.297975 0.233021 -5.87773e-19)
(0.0424092 0.0322384 -4.5165e-19)
(0.243425 0.192494 -2.66126e-19)
(1.0828 0.854003 2.05605e-19)
(1.16523 0.926298 4.8767e-19)
(1.13597 0.912073 5.76266e-19)
(1.09262 0.887098 -3.14113e-19)
(1.04423 0.85944 3.07608e-19)
(0.990856 0.82981 -1.84299e-19)
(0.931516 0.798592 2.30607e-19)
(0.864359 0.766676 5.89996e-20)
(0.78463 0.733067 1.58699e-19)
(0.698314 0.695582 7.59402e-19)
(0.620599 0.653283 0)
(0.557536 0.605439 0)
(0.509409 0.556664 -1.61687e-19)
(0.477873 0.508741 0)
(0.460124 0.464092 5.03785e-19)
(0.448846 0.423015 6.07834e-19)
(0.413114 0.363437 0)
(0.261983 0.219644 0)
(0.0309755 0.0249911 5.01849e-19)
(0.241511 0.198634 2.91491e-19)
(1.07101 0.879644 2.4208e-19)
(1.15085 0.95271 3.48616e-19)
(1.1218 0.937588 -5.0923e-19)
(1.07904 0.91157 -3.47242e-19)
(1.03144 0.882853 -4.03415e-19)
(0.979095 0.852313 2.72498e-19)
(0.920974 0.820555 3.1666e-21)
(0.855029 0.789063 -9.31391e-21)
(0.775614 0.757599 -1.41282e-20)
(0.686683 0.723662 3.8413e-19)
(0.60317 0.683342 0)
(0.533951 0.634864 4.5102e-19)
(0.480269 0.584443 3.43038e-19)
(0.441443 0.53082 8.88423e-19)
(0.417904 0.477502 2.73509e-19)
(0.403952 0.427079 -3.43047e-19)
(0.368739 0.353702 -2.03386e-19)
(0.222797 0.199289 0)
(0.020371 0.0167949 5.55674e-19)
(0.239933 0.204731 -6.35306e-19)
(1.0595 0.903568 0)
(1.13682 0.977134 3.84937e-19)
(1.108 0.961133 -4.13926e-19)
(1.06587 0.934111 3.88317e-19)
(1.01906 0.904367 5.82136e-19)
(0.967837 0.872919 -6.23794e-19)
(0.911106 0.840631 8.98567e-21)
(0.846728 0.809616 0)
(0.768137 0.780673 -1.1838e-19)
(0.676874 0.751198 -7.87917e-19)
(0.587471 0.713914 4.24035e-20)
(0.511759 0.666441 6.20488e-19)
(0.450988 0.614031 0)
(0.402786 0.557673 6.01229e-19)
(0.368847 0.495686 0)
(0.348516 0.428542 0)
(0.314228 0.330894 -2.31367e-19)
(0.187452 0.163157 0)
(0.0281687 0.0146758 1.51728e-19)
(0.238197 0.210267 -6.88758e-19)
(1.04829 0.92598 0)
(1.12312 0.999773 6.18738e-19)
(1.09455 0.982954 0)
(1.05304 0.954992 -2.08316e-19)
(1.00701 0.924273 0)
(0.956964 0.891937 -4.50318e-20)
(0.901764 0.85915 -3.97285e-20)
(0.839288 0.828648 -1.11071e-20)
(0.762009 0.802589 -9.3551e-20)
(0.669046 0.778398 1.91281e-20)
(0.573935 0.745118 3.59036e-19)
(0.490395 0.699884 6.02736e-19)
(0.419835 0.648687 8.70893e-20)
(0.360731 0.588695 4.70229e-19)
(0.313056 0.521856 0)
(0.274228 0.437068 7.56198e-19)
(0.231832 0.290085 -4.5736e-19)
(0.106395 0.129602 5.24422e-19)
(-0.0468913 0.369999 -6.31575e-19)
(0.236615 0.215671 5.58214e-19)
(1.03716 0.947044 8.95928e-19)
(1.10965 1.02093 0)
(1.0813 1.00343 6.93102e-21)
(1.04034 0.974684 5.61305e-19)
(0.995002 0.9431 -1.1084e-18)
(0.946097 0.909907 -2.70518e-19)
(0.892538 0.876683 0)
(0.832307 0.846779 -1.27728e-19)
(0.757097 0.824233 1.65316e-21)
(0.663448 0.806739 0)
(0.562476 0.77952 0)
(0.46909 0.738289 5.34087e-19)
(0.387386 0.685698 -2.73993e-19)
(0.313532 0.631785 -4.6767e-19)
(0.250995 0.565318 0)
(0.169481 0.459568 3.80572e-19)
(0.0682385 0.521118 -4.53906e-19)
(0.0561985 1.68866 -2.46344e-19)
(0.0955475 2.70913 -3.19607e-19)
(0.235064 0.220334 -4.01395e-19)
(1.02624 0.966878 -1.11902e-18)
(1.09643 1.04058 3.50707e-19)
(1.06831 1.02251 3.41989e-19)
(1.02782 0.993073 0)
(0.98308 0.96069 -7.88128e-19)
(0.935313 0.926624 -4.47176e-19)
(0.883399 0.892818 2.54284e-20)
(0.82567 0.863425 -1.88746e-20)
(0.753586 0.844818 2.74341e-20)
(0.66048 0.83553 3.42592e-19)
(0.553044 0.817661 3.82258e-19)
(0.449374 0.780933 5.30461e-19)
(0.354106 0.728935 -6.28345e-19)
(0.268752 0.683615 -6.87635e-19)
(0.193687 0.627964 0)
(0.106011 0.864651 0)
(0.157583 2.39265 1.9565e-19)
(0.166866 3.13615 0)
(0.165145 3.35418 4.28593e-19)
(0.236752 0.224748 0)
(1.01551 0.985515 0)
(1.08334 1.05861 0)
(1.05531 1.04003 9.39307e-20)
(1.01528 1.01004 4.96064e-19)
(0.971057 0.977 -5.95377e-19)
(0.924519 0.94201 -3.18568e-19)
(0.874239 0.907245 2.84586e-20)
(0.819348 0.878091 -2.44247e-19)
(0.751868 0.863951 -2.64409e-20)
(0.659872 0.865059 6.02156e-19)
(0.54528 0.857628 -4.62389e-20)
(0.430343 0.828531 6.02641e-20)
(0.324222 0.771575 8.9182e-20)
(0.240851 0.739554 3.51434e-21)
(0.167629 0.964069 3.74729e-21)
(0.20953 2.49654 -9.24021e-19)
(0.239441 3.24924 -3.50453e-19)
(0.218426 3.41363 1.58047e-19)
(0.196625 3.44335 -1.55776e-19)
(0.147275 0.172026 2.17884e-19)
(0.997909 1.00566 0)
(1.07075 1.07527 -6.7822e-19)
(1.04286 1.05658 -8.76408e-19)
(1.00328 1.02625 1.02133e-18)
(0.95956 0.992542 6.30519e-19)
(0.913557 0.956159 3.72455e-19)
(0.865054 0.920076 -4.61578e-19)
(0.813233 0.891674 2.36206e-19)
(0.75212 0.881843 0)
(0.662778 0.894039 2.36443e-19)
(0.541596 0.899418 -2.8666e-19)
(0.415315 0.877816 0)
(0.298719 0.819443 7.81587e-20)
(0.233486 0.907977 1.81042e-19)
(0.21171 2.09494 -2.22317e-19)
(0.313358 3.276 2.38944e-19)
(0.292521 3.43535 1.11551e-19)
(0.246653 3.46848 1.26126e-19)
(0.215762 3.4833 1.4161e-19)
(0.278331 0.263243 -3.85626e-19)
(0.974634 1.00682 0)
(1.05048 1.09541 6.7374e-19)
(1.02416 1.07989 8.8213e-19)
(0.98427 1.04886 -1.03016e-18)
(0.940774 1.01387 -6.54953e-19)
(0.89613 0.976335 -5.56939e-19)
(0.850837 0.938713 -3.51189e-20)
(0.806071 0.909189 -3.29078e-19)
(0.755166 0.905508 -1.72991e-19)
(0.671248 0.939352 5.84721e-21)
(0.538968 0.976919 2.53699e-19)
(0.381459 0.969545 5.47501e-20)
(0.281019 1.04697 -7.29955e-20)
(0.320729 2.02275 -1.55685e-19)
(0.403501 3.25423 9.23032e-20)
(0.397755 3.47524 -6.96751e-20)
(0.351593 3.51232 -3.73511e-20)
(0.30274 3.54908 4.74033e-20)
(0.230894 3.54021 1.90348e-21)
(0.266223 0.259472 0)
(0.969562 1.02483 1.76379e-19)
(1.03899 1.11303 -1.33356e-19)
(1.0118 1.09662 -9.77815e-20)
(0.971711 1.0651 -6.72718e-19)
(0.928553 1.02922 6.38617e-19)
(0.884485 0.990113 3.73044e-19)
(0.841324 0.950729 -3.66148e-20)
(0.80193 0.920751 4.03307e-19)
(0.762513 0.921344 -4.18333e-20)
(0.69018 0.969863 -2.59061e-19)
(0.547739 1.03266 3.87417e-20)
(0.36933 1.04533 -5.12142e-20)
(0.319922 1.36031 -6.02601e-20)
(0.445821 2.84996 3.83238e-20)
(0.504164 3.44367 -5.49152e-22)
(0.447863 3.55002 -1.70056e-19)
(0.406124 3.58846 -1.80026e-19)
(0.328363 3.62969 2.19363e-19)
(0.251485 3.61649 8.89069e-20)
(0.248409 0.255168 4.27749e-19)
(0.962182 1.04584 1.18163e-18)
(1.02673 1.13197 -3.78475e-19)
(0.998326 1.11441 -3.70826e-19)
(0.958071 1.08208 0)
(0.915139 1.04494 9.20951e-19)
(0.871815 1.00398 5.63266e-19)
(0.831186 0.962389 -3.82483e-20)
(0.797764 0.930428 4.43406e-20)
(0.770827 0.933057 3.81435e-19)
(0.714943 1.0019 -3.5033e-20)
(0.571935 1.09703 -2.75523e-19)
(0.373341 1.15249 -3.91677e-19)
(0.399769 1.83225 3.53709e-19)
(0.566246 3.25889 1.20764e-19)
(0.584577 3.53092 0)
(0.520214 3.60187 0)
(0.458373 3.68262 2.14053e-19)
(0.372674 3.75112 0)
(0.269829 3.72084 3.31791e-19)
(0.235672 0.254539 -6.2162e-19)
(0.952512 1.06807 -9.79073e-19)
(1.01271 1.1518 0)
(0.983153 1.13278 6.04177e-21)
(0.942779 1.09938 -6.45636e-19)
(0.899955 1.06065 1.35732e-18)
(0.857446 1.01744 3.7579e-19)
(0.819273 0.972527 -4.3226e-20)
(0.792378 0.936464 4.34022e-19)
(0.780853 0.939244 -3.08538e-20)