/*--------------------------------*- C++ -*----------------------------------*\
| =========                 |                                                 |
| \\      /  F ield         | OpenFOAM: The Open Source CFD Toolbox           |
|  \\    /   O peration     | Version:  2306                                  |
|   \\  /    A nd           | Website:  www.openfoam.com                      |
|    \\/     M anipulation  |                                                 |
\*---------------------------------------------------------------------------*/
FoamFile
{
    version     2.0;
    format      ascii;
    arch        "LSB;label=32;scalar=64";
    class       surfaceScalarField;
    location    "55";
    object      phi;
}
// * * * * * * * * * * * * * * * * * * * * * * * * * * * * * * * * * * * * * //

dimensions      [0 3 -1 0 0 0 0];

oriented        oriented;

internalField   nonuniform List<scalar> 
17370
(
-0.0910989
0.0935455
0.286564
-0.0749551
0.0569554
0.364775
-0.0409391
0.0299558
0.427151
-0.0212021
0.015603
0.504851
-0.0113541
0.00865513
0.602101
-0.00652276
0.00506976
0.720511
-0.00385039
0.0029786
0.863778
-0.00221059
0.00163505
1.03603
-0.00110535
0.000685509
1.24292
-0.000275417
-0.000117718
1.49158
0.000503363
-0.000916048
1.4916
0.0013189
-0.00182157
1.24319
0.00236964
-0.0031081
1.03638
0.00395718
-0.00515889
0.864108
0.00660208
-0.0087272
0.721183
0.0114195
-0.0156597
0.603455
0.0212501
-0.029994
0.508183
0.0409678
-0.0569758
0.432176
0.0749711
-0.0935548
0.365359
0.0911118
0.197899
-0.127347
0.0881438
0.0392029
-0.364737
0.353789
-0.0726299
0.0835775
-0.446565
0.454368
-0.0817122
0.0739092
-0.520971
0.529524
-0.0658009
0.0572484
-0.61285
0.621016
-0.0494979
0.0413321
-0.727001
0.73379
-0.0344047
0.0276157
-0.867514
0.872452
-0.0222726
0.0173348
-1.03855
1.0419
-0.013614
0.0102601
-1.24471
1.24713
-0.00770399
0.00529155
-1.49284
1.49486
-0.00332357
0.00130601
-1.49269
1.49451
0.000515137
-0.0023367
-1.2441
1.24602
0.00431298
-0.00622791
-1.0376
1.04008
0.00857068
-0.0110565
-0.866159
0.86981
0.01433
-0.0179807
-0.72448
0.729772
0.0228514
-0.0281441
-0.608887
0.615773
0.0348856
-0.0417719
-0.514989
0.522696
0.0498919
-0.057599
-0.439772
0.447829
0.0660984
-0.0741557
-0.375155
0.377
0.0818967
-0.0837409
-0.256916
0.223419
0.0727438
-0.0392468
-0.0686529
0.0589228
0.00973009
-0.0520774
0.0587738
-0.374542
0.367846
-0.0578882
0.0540618
-0.453829
0.457656
-0.0487043
0.0443655
-0.527745
0.532083
-0.0401427
0.0363602
-0.621105
0.624888
-0.0321358
0.0280625
-0.734879
0.738952
-0.023587
0.0195913
-0.87405
0.878046
-0.0154514
0.0119325
-1.0434
1.04692
-0.00836266
0.00529616
-1.24867
1.25173
-0.00205858
-0.000944379
-1.49695
1.49995
0.0039259
-0.00710244
-1.49743
1.50061
0.0100804
-0.0135315
-1.2501
1.25355
0.016931
-0.0209344
-1.04572
1.04973
0.0248087
-0.0291628
-0.877318
0.881672
0.0331385
-0.0372683
-0.739311
0.743441
0.0409717
-0.0451149
-0.626341
0.630484
0.0493861
-0.054678
-0.534935
0.540227
0.0584323
-0.0592268
-0.457919
0.458713
0.0524157
-0.0320396
-0.336394
0.316018
0.00978688
-0.0685018
0.0587149
-0.0531639
0.0491145
0.00404947
-0.0331674
0.0436603
-0.358375
0.347882
-0.0473776
0.0467907
-0.459514
0.460101
-0.0438139
0.0405439
-0.536028
0.539298
-0.0368325
0.0334959
-0.628449
0.631786
-0.0299286
0.0267748
-0.742263
0.745417
-0.0234206
0.0202484
-0.881583
0.884755
-0.0166458
0.0132623
-1.05041
1.05379
-0.00952201
0.006079
-1.25503
1.25847
-0.00224857
-0.00140408
-1.50333
1.50699
0.00502586
-0.00876592
-1.50414
1.50788
0.0120856
-0.0156588
-1.25716
1.26073
0.0188726
-0.0222803
-1.05349
1.0569
0.0252786
-0.028458
-0.885282
0.888462
0.0314705
-0.0349
-0.746932
0.750362
0.0381215
-0.0417141
-0.634499
0.638091
0.0448816
-0.0477428
-0.544455
0.547316
0.0482089
-0.0443218
-0.456881
0.452993
0.0336251
-0.016263
-0.296647
0.279285
0.00411822
-0.0528944
0.0487762
-0.0459929
0.0434679
0.00252502
-0.0229261
0.0332927
-0.337243
0.326877
-0.0390738
0.0400586
-0.459813
0.458829
-0.0388406
0.0365399
-0.541973
0.544273
-0.0338977
0.0313338
-0.634784
0.637348
-0.0283255
0.0254648
-0.748484
0.751345
-0.0222276
0.0192287
-0.887758
0.890757
-0.0159072
0.0127935
-1.05696
1.06007
-0.00924254
0.00583165
-1.2619
1.26531
-0.00189944
-0.00192409
-1.51075
1.51457
0.00570798
-0.00951863
-1.51169
1.5155
0.012766
-0.0160971
-1.2642
1.26753
0.0189887
-0.0220557
-1.06006
1.06313
0.0248258
-0.0278285
-0.891607
0.894609
0.0304959
-0.0333143
-0.75355
0.756368
0.0357201
-0.0382029
-0.641093
0.643576
0.040367
-0.041405
-0.549132
0.55017
0.0402329
-0.034178
-0.447795
0.44174
0.0235124
-0.0102913
-0.2641
0.250879
0.00260958
-0.0455781
0.0429686
-0.0413699
0.0395837
0.00178617
-0.0168603
0.0261367
-0.31701
0.307734
-0.0327466
0.0348816
-0.457246
0.455111
-0.0344576
0.0327736
-0.546278
0.547962
-0.0305707
0.0284643
-0.63965
0.641757
-0.0260393
0.0236579
-0.753962
0.756344
-0.0208268
0.0180672
-0.893618
0.896377
-0.0148723
0.011835
-1.06311
1.06614
-0.00837191
0.00505955
-1.26862
1.27194
-0.00122114
-0.00253021
-1.51835
1.5221
0.00623011
-0.0099163
-1.51925
1.52294
0.0130225
-0.0162076
-1.27079
1.27398
0.0189623
-0.0218316
-1.06615
1.06902
0.0242954
-0.0268215
-0.89741
0.899936
0.0289525
-0.0311333
-0.75882
0.761001
0.033039
-0.0350375
-0.645768
0.647767
0.0365226
-0.0367018
-0.550726
0.550905
0.0342788
-0.027269
-0.435118
0.428109
0.0175911
-0.00743385
-0.239336
0.229178
0.00188946
-0.0407773
0.0388878
-0.0380448
0.0367012
0.00134359
-0.0128875
0.0208707
-0.299108
0.291125
-0.027641
0.030571
-0.452548
0.449618
-0.0307828
0.0296648
-0.549393
0.550511
-0.027673
0.0257561
-0.643803
0.645719
-0.0235561
0.0214239
-0.758578
0.76071
-0.0189216
0.016452
-0.898933
0.901403
-0.0135244
0.0106616
-1.06905
1.07191
-0.00732461
0.00410494
-1.27517
1.27839
-0.000373143
-0.00325333
-1.52577
1.52939
0.0068156
-0.0103567
-1.52654
1.53008
0.0133191
-0.016309
-1.27709
1.28008
0.0188173
-0.0213352
-1.07174
1.07426
0.0234337
-0.0255533
-0.902246
0.904366
0.0273692
-0.0292585
-0.763024
0.764913
0.0309219
-0.0326692
-0.649617
0.651364
0.033497
-0.0329433
-0.55072
0.550167
0.0296021
-0.0222848
-0.420888
0.413571
0.0137864
-0.00575122
-0.220183
0.212148
0.00146923
-0.0372354
0.0357661
-0.0355271
0.034491
0.00103609
-0.0100799
0.0168373
-0.283779
0.277022
-0.023352
0.0267418
-0.446438
0.443048
-0.0275335
0.0268453
-0.551408
0.552096
-0.0250897
0.0233134
-0.647611
0.649387
-0.0212564
0.0192534
-0.762777
0.76478
-0.0168959
0.014582
-0.903725
0.906039
-0.0118586
0.00918525
-1.07461
1.07728
-0.0060364
0.00296144
-1.28149
1.28457
0.000630443
-0.00412269
-1.53293
1.53642
0.00753619
-0.0108923
-1.53353
1.53688
0.0136493
-0.0163694
-1.28295
1.28567
0.0186067
-0.0208253
-1.07664
1.07886
0.0226795
-0.0245612
-0.906381
0.908263
0.0261708
-0.0278414
-0.766695
0.768365
0.029303
-0.0307212
-0.652963
0.654381
0.0310483
-0.0297727
-0.549263
0.547988
0.0258172
-0.0185839
-0.40627
0.399037
0.0111802
-0.00463304
-0.204927
0.19838
0.00118881
-0.0344541
0.0332653
-0.0335806
0.0327723
0.000808313
-0.00799916
0.0136855
-0.270829
0.265143
-0.0197225
0.023317
-0.439546
0.435951
-0.0245929
0.0241556
-0.552694
0.553132
-0.022673
0.0210087
-0.651161
0.652826
-0.0190499
0.0171376
-0.766735
0.768648
-0.0148809
0.0126622
-0.908239
0.910458
-0.0100487
0.00749358
-1.07982
1.08237
-0.0044981
0.00157162
-1.28751
1.29044
0.00184968
-0.00517407
-1.5398
1.54312
0.00840332
-0.011537
-1.54012
1.54325
0.0140736
-0.0165462
-1.28828
1.29075
0.0185675
-0.0205608
-1.081
1.083
0.0222135
-0.0238844
-0.910064
0.911735
0.0253127
-0.026795
-0.769945
0.771428
0.0280672
-0.0291146
-0.655589
0.656636
0.0290746
-0.0271386
-0.546385
0.544449
0.0227901
-0.0158326
-0.391937
0.38498
0.0093441
-0.00385733
-0.192415
0.186928
0.000994052
-0.0321873
0.0311933
-0.0320614
0.0314291
0.000632292
-0.00639632
0.0111681
-0.259942
0.25517
-0.0166216
0.0202245
-0.432353
0.42875
-0.0218321
0.0216259
-0.553493
0.5537
-0.0203818
0.0187808
-0.65451
0.656111
-0.0168821
0.0150233
-0.770527
0.772386
-0.0128309
0.0106768
-0.912567
0.914721
-0.00814059
0.00566432
-1.08481
1.08728
-0.00277142
-3.22115e-05
-1.29325
1.29606
0.00330355
-0.00645531
-1.54632
1.54947
0.00948778
-0.0124013
-1.54625
1.54917
0.01474
-0.0169997
-1.29313
1.29539
0.0188269
-0.0206071
-1.08493
1.08671
0.0220682
-0.0235421
-0.913335
0.914809
0.024806
-0.026117
-0.772829
0.77414
0.0272452
-0.0278838
-0.65746
0.658099
0.0274802
-0.0249934
-0.542251
0.539764
0.0204102
-0.0137974
-0.378206
0.371593
0.00803676
-0.00331243
-0.181862
0.177138
0.000857876
-0.030279
0.0294211
-0.0308763
0.0303862
0.000490066
-0.00510853
0.0090927
-0.250818
0.246834
-0.0139183
0.0173809
-0.425226
0.421764
-0.0191806
0.0191713
-0.553854
0.553863
-0.0181288
0.0165668
-0.657762
0.659324
-0.0146957
0.0128572
-0.774224
0.776062
-0.0106896
0.00856592
-0.91677
0.918894
-0.00607505
0.00365267
-1.08964
1.09207
-0.000831318
-0.00188923
-1.29875
1.30148
0.00502485
-0.00801719
-1.5525
1.55549
0.010866
-0.0135738
-1.55195
1.55466
0.0157231
-0.0177735
-1.29756
1.29961
0.0194089
-0.0209805
-1.08844
1.09002
0.0222596
-0.0235538
-0.916225
0.91752
0.024671
-0.0258258
-0.775378
0.776533
0.0267661
-0.0270397
-0.658533
0.658807
0.0262481
-0.0232994
-0.537058
0.53411
0.0185835
-0.0123115
-0.365172
0.3589
0.00711119
-0.00293333
-0.172721
0.168544
0.000764633
-0.028621
0.0278564
-0.0299636
0.0295935
0.000370084
-0.00403181
0.00732494
-0.24322
0.239927
-0.011511
0.0147239
-0.418443
0.41523
-0.0165907
0.0167436
-0.553845
0.553692
-0.01579
0.0143076
-0.660924
0.662406
-0.0124386
0.0105898
-0.777891
0.77974
-0.00841081
0.00628377
-0.920918
0.923045
-0.00380199
0.00140083
-1.09438
1.09678
0.00137202
-0.00402814
-1.3041
1.30675
0.00706243
-0.00992256
-1.55837
1.56123
0.0126086
-0.0151225
-1.55725
1.55976
0.0170866
-0.0189302
-1.30157
1.30341
0.0203775
-0.0217452
-1.09156
1.09293
0.0228456
-0.0239633
-0.918763
0.91988
0.0249346
-0.0259234
-0.777614
0.778603
0.0266168
-0.0265902
-0.658939
0.658912
0.0253965
-0.0220428
-0.530972
0.527618
0.0172429
-0.0112619
-0.352802
0.346821
0.00647576
-0.00267966
-0.164589
0.160793
0.000704253
-0.0271332
0.026429
-0.0292836
0.0290203
0.000263317
-0.00308984
0.00575999
-0.236968
0.234298
-0.00930701
0.0121876
-0.412205
0.409325
-0.0140084
0.0142521
-0.553555
0.553311
-0.0133498
0.011918
-0.663949
0.665381
-0.0100295
0.00814243
-0.781584
0.783471
-0.00591864
0.00375648
-0.925073
0.927235
-0.00124722
-0.00115916
-1.09907
1.10148
0.00392221
-0.00654453
-1.30932
1.31194
0.00950342
-0.0122529
-1.56399
1.56674
0.0147915
-0.0171205
-1.56215
1.56448
0.0189034
-0.0205414
-1.30516
1.3068
0.0217996
-0.0229594
-1.09428
1.09544
0.0238747
-0.0248126
-0.920956
0.921894
0.0256392
-0.0264576
-0.779506
0.780325
0.0268729
-0.0265899
-0.658752
0.658469
0.024952
-0.0212156
-0.524094
0.520358
0.0163391
-0.0105721
-0.340985
0.335218
0.00607116
-0.00252509
-0.157154
0.153608
0.00066995
-0.025754
0.0250841
-0.0288139
0.0286518
0.000162111
-0.00221869
0.00430457
-0.231941
0.229855
-0.00720813
0.00968699
-0.406671
0.404193
-0.011355
0.011612
-0.553134
0.552877
-0.0107287
0.00931003
-0.666908
0.668327
-0.0073749
0.00542123
-0.785357
0.78731
-0.00311944
0.000891292
-0.929296
0.931524
0.0016789
-0.00412891
-1.10379
1.10624
0.00691589
-0.00953094
-1.31447
1.31708
0.01244
-0.0150951
-1.56938
1.57204
0.017495
-0.0196428
-1.56669
1.56883
0.0212452
-0.0226752
-1.30834
1.30977
0.0237382
-0.0246771
-1.09659
1.09753
0.0253911
-0.0261306
-0.922788
0.923527
0.026802
-0.0274746
-0.781047
0.781719
0.0275879
-0.0269486
-0.657961
0.657321
0.0248911
-0.020786
-0.51648
0.512375
0.0158158
-0.0101774
-0.329563
0.323925
0.00585084
-0.002449
-0.150168
0.146766
0.0006563
-0.0244344
0.0237781
-0.0285462
0.0284862
5.99907e-05
-0.00136965
0.00288617
-0.228074
0.226557
-0.00513257
0.00714643
-0.401976
0.399962
-0.00855914
0.00874915
-0.552741
0.552551
-0.00784055
0.00640098
-0.669874
0.671313
-0.00438297
0.00233349
-0.789264
0.791313
7.99848e-05
-0.00241242
-0.933652
0.935984
0.00508463
-0.00761336
-1.1086
1.11113
0.0104603
-0.0130979
-1.31961
1.32225
0.0159846
-0.0185628
-1.57459
1.57717
0.0208324
-0.0227991
-1.57085
1.57282
0.0242152
-0.0254275
-1.31109
1.31231
0.0262852
-0.0269878
-1.09849
1.09919
0.0274862
-0.0280102
-0.924235
0.924759
0.0285168
-0.0289902
-0.782227
0.7827
0.0288206
-0.0277692
-0.656431
0.655379
0.0252593
-0.0207617
-0.508142
0.503644
0.0156515
-0.0100443
-0.318362
0.312755
0.00578984
-0.00244055
-0.143429
0.14008
0.000660599
-0.0231349
0.0224743
-0.028483
0.0285319
-4.89323e-05
-0.000496255
0.00143773
-0.225347
0.224406
-0.00299932
0.00448366
-0.398244
0.39676
-0.00553862
0.00557733
-0.552544
0.552505
-0.00458718
0.0030726
-0.672927
0.674442
-0.000941441
-0.00124368
-0.793364
0.795549
0.0038183
-0.00628949
-0.938216
0.940688
0.00910504
-0.011748
-1.11357
1.11621
0.0146925
-0.0173828
-1.32481
1.3275
0.0202719
-0.0227864
-1.57964
1.58216
0.0249291
-0.0267081
-1.57465
1.57643
0.0279253
-0.0289028
-1.3134
1.31438
0.0295384
-0.0299934
-1.09993
1.10038
0.0302644
-0.0305572
-0.925259
0.925552
0.0308742
-0.0310819
-0.782892
0.7831
0.0306428
-0.0290917
-0.654059
0.652508
0.0260849
-0.021153
-0.499034
0.494103
0.0158375
-0.0101565
-0.307183
0.301502
0.00587553
-0.00249409
-0.136757
0.133376
0.00068132
-0.0218201
0.0211388
-0.0286363
0.0288005
-0.000164251
0.000424703
-8.96959e-05
-0.223784
0.223449
-0.000738336
0.00161095
-0.395603
0.39473
-0.00220439
0.00200686
-0.55272
0.552917
-0.000877093
-0.000777196
-0.676185
0.67784
0.003076
-0.00544208
-0.79774
0.800107
0.00822432
-0.0108811
-0.943062
0.945719
0.0138894
-0.0166892
-1.11877
1.12157
0.0197729
-0.0225469
-1.33011
1.33288
0.0254632
-0.0279257
-1.58457
1.58703
0.0299406
-0.0315189
-1.57805
1.57963
0.0325245
-0.0332435
-1.31521
1.31593
0.0336359
-0.0338239
-1.10086
1.10105
0.0338506
-0.0338904
-0.925815
0.925855
0.0340029
-0.0338816
-0.782933
0.782812
0.0331034
-0.0309597
-0.650728
0.648585
0.0274062
-0.0219751
-0.489062
0.48363
0.0163693
-0.010501
-0.295812
0.289943
0.00609713
-0.00260416
-0.129985
0.126492
0.000716834
-0.020458
0.0197412
-0.0290441
0.0293487
-0.000304556
0.00141969
-0.0017319
-0.223471
0.223783
0.00174371
-0.00158734
-0.394178
0.394022
0.00158749
-0.00212802
-0.55348
0.55402
0.00347937
-0.00532205
-0.679782
0.681624
0.00784284
-0.0104378
-0.802472
0.805067
0.0134825
-0.0163769
-0.948281
0.951176
0.0196332
-0.0226369
-1.12429
1.1273
0.0259046
-0.0287944
-1.33559
1.33848
0.0317603
-0.0341762
-1.58938
1.5918
0.0360528
-0.0374038
-1.58104
1.58239
0.0381729
-0.0386004
-1.31648
1.31691
0.0387246
-0.0386222
-1.10122
1.10111
0.0383801
-0.0381421
-0.925839
0.925601
0.0380422
-0.0374816
-0.782221
0.781661
0.0362643
-0.0334599
-0.646272
0.643468
0.0292774
-0.0232515
-0.478081
0.472055
0.0172512
-0.011073
-0.284019
0.27784
0.00644883
-0.00276734
-0.122957
0.119276
0.000765934
-0.0190201
0.0182541
-0.0297255
0.0302056
-0.000480041
0.00269781
-0.00375342
-0.22448
0.225536
0.00463053
-0.00526646
-0.394201
0.394837
0.0059879
-0.00698151
-0.555058
0.556051
0.00863883
-0.0107411
-0.683814
0.685916
0.0135629
-0.0164552
-0.807663
0.810555
0.0198334
-0.023026
-0.953981
0.957174
0.0265913
-0.0298476
-1.13023
1.13349
0.0333426
-0.0363755
-1.34129
1.34433
0.0394027
-0.0417639
-1.59409
1.59646
0.0434763
-0.0445656
-1.58354
1.58463
0.0450401
-0.0451506
-1.31713
1.31724
0.0449743
-0.0445455
-1.10093
1.1005
0.0440035
-0.0434571
-0.925256
0.92471
0.0430456
-0.0420353
-0.780605
0.779594
0.040266
-0.0366881
-0.640533
0.636955
0.0317665
-0.0250173
-0.46589
0.459141
0.0184955
-0.0118724
-0.271555
0.264931
0.00692722
-0.00298079
-0.11552
0.111574
0.000827469
-0.0174796
0.0166522
-0.0307579
0.0314547
-0.00069685
0.00417878
-0.00611855
-0.227015
0.228954
0.00806245
-0.00959477
-0.395881
0.397413
0.0111362
-0.012708
-0.557709
0.559281
0.0148142
-0.0172708
-0.688446
0.690902
0.0204963
-0.0237658
-0.813454
0.816723
0.0275606
-0.0311237
-0.960287
0.96385
0.0350699
-0.0386335
-1.13668
1.14024
0.0423985
-0.0455933
-1.34728
1.35047
0.0486781
-0.0509577
-1.59867
1.60095
0.0524623
-0.0532371
-1.5855
1.58627
0.0533613
-0.0531078
-1.31709
1.31683
0.052586
-0.0517821
-1.09992
1.09912
0.0509012
-0.049999
-0.923993
0.923091
0.049187
-0.0476805
-0.778065
0.776559
0.0452223
-0.0407296
-0.633275
0.628783
0.034927
-0.0272937
-0.452224
0.444591
0.0201036
-0.0128903
-0.258147
0.250934
0.00752204
-0.00323774
-0.107523
0.103239
0.00089882
-0.0158131
0.0149143
-0.03222
0.0332036
-0.000983574
0.00605493
-0.00904824
-0.231329
0.234322
0.0122399
-0.0148291
-0.399481
0.40207
0.0173384
-0.0196155
-0.56171
0.563988
0.0223089
-0.0252428
-0.693872
0.696806
0.0289935
-0.0327409
-0.820009
0.823757
0.0370547
-0.0410706
-0.967347
0.971362
0.0454718
-0.0493907
-1.14375
1.14767
0.0534525
-0.0568081
-1.35357
1.35693
0.0599208
-0.0620652
-1.60305
1.6052
0.0632917
-0.0636653
-1.58678
1.58715
0.0633837
-0.0626823
-1.31621
1.31551
0.0617622
-0.0605275
-1.09807
1.09684
0.0592612
-0.057997
-0.921947
0.920682
0.0566612
-0.0545503
-0.774504
0.772393
0.0512689
-0.0456762
-0.624201
0.618608
0.0388092
-0.0300923
-0.436756
0.428039
0.0220651
-0.0141071
-0.243506
0.235548
0.00821506
-0.0035271
-0.0988248
0.0941369
0.000975912
-0.014003
0.0130271
-0.0342421
0.0356193
-0.00137715
0.00850007
-0.0128493
-0.237742
0.242092
0.0175253
-0.0213446
-0.405375
0.409194
0.0249844
-0.0281168
-0.567393
0.570526
0.0315771
-0.0351473
-0.70036
0.70393
0.0395873
-0.0439411
-0.827529
0.831883
0.0488876
-0.0534377
-0.975323
0.979873
0.0583556
-0.0626559
-1.15152
1.15582
0.067006
-0.0704797
-1.36016
1.36363
0.0735345
-0.0754345
-1.6071
1.609
0.0762637
-0.0761168
-1.58719
1.58704
0.0753438
-0.0740697
-1.31431
1.31304
0.0726956
-0.0709808
-1.09525
1.09354
0.069298
-0.0675947
-0.919062
0.917359
0.0656591
-0.06282
-0.769703
0.766864
0.0585238
-0.0515892
-0.612926
0.605991
0.0434293
-0.0333919
-0.419087
0.40905
0.0243406
-0.0154804
-0.227328
0.218468
0.00897269
-0.00383052
-0.0893024
0.0841602
0.00105261
-0.0120409
0.0109883
-0.0370192
0.0389573
-0.00193803
0.0119221
-0.0179739
-0.24679
0.252842
0.0244442
-0.0297065
-0.414051
0.419314
0.0346856
-0.038862
-0.575149
0.579326
0.0433024
-0.047711
-0.708246
0.712655
0.0530379
-0.0581379
-0.836263
0.841363
0.0638303
-0.0689795
-0.984375
0.989524
0.0744373
-0.079093
-1.16003
1.16468
0.0836526
-0.0871308
-1.3669
1.37038
0.0899654
-0.0914472
-1.61056
1.61204
0.0917035
-0.0908669
-1.58647
1.58563
0.0894602
-0.0875083
-1.31118
1.30923
0.0855751
-0.0833379
-1.09132
1.08908
0.0812111
-0.0789046
-0.915159
0.912853
0.0764003
-0.0725993
-0.763318
0.759517
0.0670534
-0.0584831
-0.598953
0.590383
0.0487534
-0.0371205
-0.398754
0.387121
0.0268445
-0.0169326
-0.209316
0.199404
0.00973818
-0.00411901
-0.0788709
0.0732518
0.00111961
-0.00993221
0.0088126
-0.0408738
0.0436844
-0.00281059
0.0168685
-0.0251726
-0.25918
0.267484
0.0338711
-0.0408705
-0.426179
0.433178
0.0474826
-0.0529356
-0.585457
0.59091
0.0586192
-0.0641111
-0.717949
0.72344
0.070546
-0.0765186
-0.846477
0.852449
0.0830164
-0.0887491
-0.994605
1.00034
0.0946582
-0.0995288
-1.16916
1.17403
0.104087
-0.10734
-1.37353
1.37678
0.109672
-0.110465
-1.61304
1.61383
0.109899
-0.108148
-1.58425
1.5825
0.105936
-0.103172
-1.30663
1.30386
0.100567
-0.0977221
-1.08615
1.0833
0.0951082
-0.0921231
-0.909862
0.906877
0.088961
-0.0839481
-0.754868
0.749855
0.0768392
-0.0662681
-0.581658
0.571087
0.0546477
-0.0411196
-0.375235
0.361707
0.0294194
-0.0183342
-0.18921
0.178125
0.0104223
-0.00434934
-0.0675131
0.0614401
0.00116365
-0.00770177
0.00653812
-0.0463775
0.0506579
-0.00428037
0.0245396
-0.0359049
-0.27608
0.287446
0.0474871
-0.0567965
-0.442779
0.452089
0.065415
-0.0723555
-0.598921
0.605862
0.0795712
-0.0865347
-0.729857
0.73682
0.0941269
-0.100891
-0.85837
0.865134
0.108025
-0.114116
-1.0059
1.01199
0.120157
-0.124903
-1.17855
1.18329
0.129052
-0.131688
-1.3795
1.38214
0.133084
-0.132802
-1.61393
1.61365
0.131078
-0.128136
-1.58005
1.57711
0.124932
-0.121193
-1.30036
1.29662
0.117823
-0.11429
-1.07957
1.07603
0.111137
-0.107385
-0.902973
0.899221
0.10334
-0.0967357
-0.743803
0.737199
0.0876882
-0.0746892
-0.560253
0.547254
0.060836
-0.0451248
-0.347975
0.332264
0.0318295
-0.0195055
-0.166851
0.154527
0.0109056
-0.0044654
-0.055324
0.0488838
0.00116738
-0.00540133
0.00423395
-0.0545915
0.0619376
-0.00734609
0.0379818
-0.0538152
-0.29963
0.315464
0.0694465
-0.0819498
-0.465507
0.47801
0.0927414
-0.101046
-0.615982
0.624287
0.10978
-0.117989
-0.744343
0.752553
0.126459
-0.133594
-0.871653
0.878788
0.140782
-0.146636
-1.01764
1.02349
0.152139
-0.156132
-1.18738
1.19137
0.159208
-0.160616
-1.38392
1.38533
0.160485
-0.158647
-1.61239
1.61055
0.155386
-0.150958
-1.57331
1.56889
0.146534
-0.141631
-1.29204
1.28714
0.137371
-0.133082
-1.07139
1.0671
0.129276
-0.124691
-0.894285
0.889701
0.119358
-0.110688
-0.729278
0.720608
0.09918
-0.0832157
-0.533734
0.51777
0.0668028
-0.0487475
-0.31645
0.298395
0.0338028
-0.020295
-0.14228
0.128772
0.0111031
-0.00443153
-0.0425716
0.0359
0.00111378
-0.00311669
0.00200291
-0.0687882
0.0728656
-0.00407749
0.0290537
-0.0428139
-0.333807
0.347567
0.0566926
-0.0681784
-0.49579
0.507276
0.0783983
-0.0879093
-0.636219
0.64573
0.0984588
-0.108084
-0.760288
0.769913
0.118723
-0.128141
-0.885022
0.89444
0.138112
-0.146909
-1.02839
1.03719
0.155987
-0.163627
-1.19425
1.20189
0.171006
-0.176623
-1.38554
1.39116
0.181192
-0.183566
-1.60746
1.60983
0.183705
-0.18216
-1.56337
1.56183
0.179572
-0.17601
-1.2813
1.27773
0.17278
-0.169
-1.06139
1.05761
0.165708
-0.16111
-0.8833
0.878702
0.153923
-0.141328
-0.710163
0.697568
0.124335
-0.101675
-0.501006
0.478347
0.0794635
-0.0559462
-0.280235
0.256717
0.0375153
-0.0217193
-0.115879
0.100083
0.0114784
-0.00443449
-0.0297641
0.0227202
0.00109466
-0.000962046
-0.000132611
-0.0801408
0.0781735
0.00196729
0.0074237
-0.0165003
-0.364077
0.373153
0.027055
-0.0351856
-0.523426
0.531556
0.0433427
-0.0513231
-0.657717
0.665698
0.0610305
-0.070026
-0.779146
0.788141
0.0795581
-0.0882158
-0.903292
0.91195
0.0973449
-0.105052
-1.04569
1.05339
0.11317
-0.119617
-1.2093
1.21575
0.125746
-0.130067
-1.3964
1.40072
0.132906
-0.133705
-1.61128
1.61208
0.132257
-0.129088
-1.55941
1.55624
0.124884
-0.119621
-1.27347
1.26821
0.114752
-0.109377
-1.05199
1.04661
0.104365
-0.0982294
-0.869262
0.863126
0.0907732
-0.0797758
-0.681087
0.670089
0.0670248
-0.0517439
-0.454208
0.438927
0.0382032
-0.0254656
-0.233475
0.220737
0.016408
-0.00921648
-0.0851825
0.077991
0.00479562
-0.00184698
-0.0160676
0.0131189
0.000403219
0.00122675
-0.00162997
-0.0815584
0.0786468
0.00291159
-0.00168858
-0.0035584
-0.384541
0.389788
0.010731
-0.0166188
-0.543815
0.549703
0.0226604
-0.0296403
-0.675838
0.682818
0.0380414
-0.0458517
-0.796237
0.804047
0.0543447
-0.061894
-0.919857
0.927406
0.0695977
-0.0764469
-1.06091
1.06776
0.0834313
-0.0890362
-1.22173
1.22733
0.0938692
-0.0969817
-1.40431
1.40742
0.0987963
-0.0984305
-1.61206
1.6117
0.0958366
-0.0915272
-1.55233
1.54802
0.086412
-0.0803631
-1.26259
1.25654
0.0743493
-0.0678748
-1.03978
1.03331
0.0618087
-0.0548394
-0.853586
0.846617
0.0480079
-0.038967
-0.655658
0.646617
0.0298244
-0.0202212
-0.421849
0.412246
0.0132446
-0.00792402
-0.20731
0.201989
0.00481874
-0.00276921
-0.0706527
0.0686032
0.00157874
-0.000728669
-0.01008
0.00922988
0.000108611
0.00222262
-0.00233124
-0.0803096
0.0775615
0.00274814
-0.00528446
0.00276272
-0.3982
0.400722
0.00185199
-0.00631698
-0.558874
0.563339
0.0114436
-0.0173032
-0.690791
0.696651
0.024487
-0.0311747
-0.811205
0.817893
0.0384271
-0.0448958
-0.93442
0.940889
0.0518684
-0.0576542
-1.07416
1.07995
0.063722
-0.0681109
-1.2325
1.23689
0.072128
-0.0745317
-1.41026
1.41266
0.0754286
-0.0740557
-1.61081
1.60944
0.0708985
-0.0660664
-1.54307
1.53824
0.0604998
-0.0536207
-1.25011
1.24323
0.0471716
-0.0401475
-1.02579
1.01877
0.0334379
-0.0263704
-0.837011
0.829943
0.0198105
-0.0126431
-0.634486
0.627318
0.00644783
-0.00153811
-0.401411
0.396501
-0.000843261
0.0017385
-0.194937
0.194041
-0.00169373
0.00107343
-0.0654804
0.0661007
-0.000566072
0.000188036
-0.00799414
0.00837217
-0.00010564
0.00273112
-0.00262548
-0.0788192
0.0763934
0.00242579
-0.00638276
0.00545837
-0.407308
0.408232
-0.00208676
-0.00112374
-0.570977
0.574187
0.00531621
-0.0106547
-0.703333
0.708672
0.0167017
-0.0225743
-0.82387
0.829742
0.0288555
-0.03447
-0.946899
0.952514
0.0404386
-0.0455724
-1.08559
1.09073
0.0506736
-0.0546598
-1.24111
1.2451
0.0579999
-0.0598431
-1.41467
1.41651
0.0601888
-0.0583683
-1.60783
1.60601
0.0548491
-0.0495174
-1.53266
1.52733
0.0437341
-0.036796
-1.23622
1.22929
0.0301535
-0.0227134
-1.01098
1.00354
0.0158914
-0.00866815
-0.820654
0.813431
0.00267607
0.00294943
-0.617408
0.611783
-0.00697508
0.00910418
-0.389205
0.387076
-0.009065
0.00768406
-0.190797
0.192178
-0.0059101
0.00383497
-0.0658377
0.0679128
-0.00219539
0.0008621
-0.00849669
0.00982998
-0.000278899
0.00276919
-0.00249029
-0.0774454
0.0753711
0.0020743
-0.00625193
0.00582589
-0.41356
0.413986
-0.00382243
0.001252
-0.580293
0.582863
0.00282874
-0.00740136
-0.713974
0.718546
0.0126063
-0.0177079
-0.834816
0.839917
0.0232986
-0.0283194
-0.957774
0.962795
0.0337793
-0.0382676
-1.09558
1.10006
0.0428378
-0.0463917
-1.24878
1.25234
0.0492633
-0.0507409
-1.41806
1.41954
0.0507421
-0.0490645
-1.60407
1.60239
0.0453955
-0.0401854
-1.52157
1.51636
0.034414
-0.0274969
-1.22215
1.21524
0.0210965
-0.0135442
-0.995686
0.988133
0.00669619
0.00027294
-0.804779
0.79781
-0.00567835
0.0102976
-0.603404
0.598785
-0.0132689
0.0143836
-0.382006
0.380891
-0.0131585
0.0107462
-0.191237
0.193649
-0.00830969
0.00551576
-0.0691904
0.0719843
-0.00324048
0.00134473
-0.0109002
0.012796
-0.00040324
0.00236004
-0.0019568
-0.0764078
0.0747928
0.00161498
-0.00537376
0.00527631
-0.418218
0.418316
-0.00366469
0.00172823
-0.588406
0.590342
0.00208767
-0.00622627
-0.723183
0.727321
0.0111669
-0.0155619
-0.844609
0.849004
0.0204771
-0.0249319
-0.967777
0.972232
0.030117
-0.0341952
-1.10458
1.10866
0.0382478
-0.0416005
-1.2557
1.25905
0.0446085
-0.0459183
-1.42102
1.42233
0.045957
-0.0442168
-1.60032
1.59858
0.0409465
-0.0356617
-1.51097
1.50568
0.0302527
-0.0237452
-1.2082
1.20169
0.0174747
-0.0104556
-0.980545
0.973526
0.00390994
0.00280587
-0.789658
0.782942
-0.00780166
0.01199
-0.591192
0.587004
-0.0145607
0.0153269
-0.376996
0.37623
-0.0142131
0.0117762
-0.193648
0.196085
-0.00919892
0.00621078
-0.0739894
0.0769776
-0.0037337
0.00162663
-0.0143089
0.0164159
-0.000463351
0.00166933
-0.00120598
-0.075874
0.0746092
0.00126483
-0.00430495
0.00433173
-0.421929
0.421902
-0.00291174
0.0010686
-0.595472
0.597315
0.00261625
-0.00631492
-0.731454
0.735152
0.0105502
-0.0147898
-0.85333
0.857569
0.0193316
-0.0239243
-0.976486
0.981079
0.0283854
-0.0322828
-1.11283
1.11673
0.0364645
-0.0395771
-1.26228
1.26539
0.0421152
-0.0438428
-1.42355
1.42528
0.0440719
-0.0426265
-1.59691
1.59546
0.0395283
-0.034827
-1.50062
1.49592
0.029767
-0.0236612
-1.19495
1.18884
0.0178873
-0.011337
-0.966402
0.959851
0.00524833
0.00096588
-0.775569
0.769355
-0.0059244
0.00991424
-0.579893
0.575903
-0.012167
0.0132614
-0.372953
0.371858
-0.0126852
0.0106532
-0.196072
0.198104
-0.00844595
0.005786
-0.0788692
0.0815291
-0.00354027
0.0015779
-0.017961
0.0199234
-0.000450405
0.0008527
-0.000402295
-0.0758646
0.0748164
0.00104823
-0.00304153
0.00283727
-0.425267
0.425471
-0.00166176
-0.000156922
-0.60196
0.603778
0.00367553
-0.00725874
-0.739145
0.742729
0.0113212
-0.0151557
-0.86158
0.865414
0.0198123
-0.023619
-0.985088
0.988894
0.0280501
-0.0317704
-1.12078
1.1245
0.0358421
-0.0391551
-1.26848
1.2718
0.04199
-0.0435181
-1.42677
1.4283
0.0441088
-0.0430833
-1.59395
1.59293
0.0406469
-0.0363083
-1.49115
1.48682
0.0317635
-0.0261862
-1.18294
1.17737
0.0209449
-0.014887
-0.953164
0.947106
0.00939072
-0.00348005
-0.762496
0.756585
-0.00144316
0.00551735
-0.569442
0.565368
-0.00789523
0.00906756
-0.368518
0.367345
-0.0091654
0.00797898
-0.197694
0.19888
-0.00648874
0.00453415
-0.0829258
0.0848804
-0.00282007
0.00129057
-0.0211532
0.0226826
-0.000365976
5.91466e-05
0.00030683
-0.0761379
0.0754165
0.000721372
-0.00190303
0.00127487
-0.428702
0.429331
-0.000295795
-0.00187776
-0.607587
0.609761
0.00497112
-0.00839069
-0.746331
0.749751
0.0122811
-0.0162437
-0.869095
0.873057
0.020285
-0.0242531
-0.992899
0.996867
0.0286499
-0.032168
-1.12864
1.13215
0.0363382
-0.039618
-1.27491
1.27819
0.0425293
-0.0446062
-1.43023
1.43231
0.045713
-0.0450087
-1.59196
1.59126
0.0428778
-0.039356
-1.48272
1.4792
0.0354771
-0.030419
-1.1718
1.16674
0.0255676
-0.0201943
-0.941049
0.935676
0.0147497
-0.0093558
-0.750096
0.744702
0.00462133
-0.000122244
-0.559571
0.555072
-0.00248302
0.00417893
-0.363459
0.361763
-0.00481289
0.0046052
-0.198022
0.198229
-0.00386534
0.00279148
-0.0854964
0.0865702
-0.00182205
0.000880317
-0.0234275
0.0243693
-0.000275344
-0.000529808
0.000805152
-0.0768332
0.076276
0.000557255
-0.000941195
0.000422311
-0.432369
0.432888
0.00129102
-0.00328462
-0.613493
0.615487
0.00651461
-0.00980417
-0.752991
0.756281
0.0135457
-0.017108
-0.876672
0.880235
0.0212735
-0.0249305
-1.00083
1.00449
0.0292819
-0.0332412
-1.13612
1.14008
0.0370651
-0.0406877
-1.28151
1.28513
0.0440402
-0.0462346
-1.43429
1.43648
0.0477504
-0.0478764
-1.59079
1.59092
0.04627
-0.0434813
-1.47563
1.47285
0.039926
-0.0354416
-1.16183
1.15735
0.0310994
-0.0259995
-0.929949
0.92485
0.0210493
-0.015859
-0.738543
0.733353
0.0112285
-0.00653655
-0.549352
0.54466
0.00324052
-0.000914986
-0.357553
0.355228
-0.000441974
0.00108828
-0.196685
0.196039
-0.00120633
0.00102026
-0.0863413
0.0865273
-0.000743737
0.000409556
-0.0245483
0.0248825
-0.000147747
-0.000904924
0.00105267
-0.0778025
0.0774363
0.000366125
6.60383e-05
-0.00089294
-0.43612
0.436947
0.00247376
-0.00477754
-0.618983
0.621287
0.00792904
-0.0110579
-0.759423
0.762551
0.0148855
-0.0182994
-0.883761
0.887175
0.0223102
-0.026093
-1.00861
1.0124
0.0303554
-0.0342889
-1.14388
1.14782
0.0383476
-0.0420135
-1.28867
1.29234
0.0455747
-0.0485395
-1.43897
1.44193
0.0505347
-0.0510086
-1.59101
1.59148
0.0501567
-0.0477598
-1.47001
1.46761
0.0448101
-0.0409122
-1.15288
1.14898
0.0366961
-0.0319315
-0.919522
0.914757
0.0272867
-0.0221483
-0.727559
0.722421
0.0175906
-0.0125748
-0.539066
0.534051
0.00878747