/*--------------------------------*- C++ -*----------------------------------*\
| =========                 |                                                 |
| \\      /  F ield         | OpenFOAM: The Open Source CFD Toolbox           |
|  \\    /   O peration     | Version:  2306                                  |
|   \\  /    A nd           | Website:  www.openfoam.com                      |
|    \\/     M anipulation  |                                                 |
\*---------------------------------------------------------------------------*/
FoamFile
{
    version     2.0;
    format      ascii;
    arch        "LSB;label=32;scalar=64";
    class       volVectorField;
    location    "55";
    object      U;
}
// * * * * * * * * * * * * * * * * * * * * * * * * * * * * * * * * * * * * * //

dimensions      [0 1 -1 0 0 0 0];

internalField   nonuniform List<vector> 
8800
(
(0.984956 -0.0884527 0)
(1.00212 -0.0568271 0)
(0.999646 -0.030561 0)
(0.99999 -0.0158697 0)
(1.00006 -0.00873035 0)
(1.00008 -0.00509449 0)
(1.00005 -0.0030048 0)
(1.00002 -0.00169314 0)
(0.999998 -0.000788582 0)
(1.00006 -8.67252e-05 0)
(0.999987 0.000625431 0)
(0.999995 0.00138288 0)
(1.00002 0.00241002 0)
(1.00004 0.00400701 0)
(1.00004 0.00671561 0)
(1 0.0117401 0)
(0.999827 0.0220509 0)
(0.999163 0.0411668 0)
(1.00748 0.0768946 0)
(0.773653 0.0450711 0)
(0.361001 -0.0151716 0)
(1.04556 -0.0742025 0)
(1.08709 -0.0678927 0)
(1.04774 -0.0523069 0)
(1.02457 -0.038407 0)
(1.01238 -0.0261307 0)
(1.00649 -0.0167815 0)
(1.00362 -0.0102597 0)
(1.00219 -0.00560793 0)
(1.00152 -0.00199573 0)
(1.00139 0.00123734 0)
(1.00173 0.0045629 0)
(1.0027 0.0084717 0)
(1.00471 0.0138098 0)
(1.0088 0.0215337 0)
(1.01734 0.0323512 0)
(1.03443 0.0456894 0)
(1.06547 0.0597952 0)
(1.09408 0.072922 0)
(0.842203 0.0557152 0)
(0.217076 -0.00164686 0)
(1.07585 -0.0503617 0)
(1.09982 -0.048726 0)
(1.06463 -0.0401812 0)
(1.03996 -0.0330231 0)
(1.02377 -0.0257256 0)
(1.014 -0.0183333 0)
(1.00852 -0.0115941 0)
(1.00566 -0.00578042 0)
(1.00448 -0.000453158 0)
(1.0048 0.00469106 0)
(1.00663 0.0100202 0)
(1.01055 0.016066 0)
(1.01786 0.0229719 0)
(1.0305 0.0302267 0)
(1.05064 0.0372256 0)
(1.08034 0.0445628 0)
(1.10617 0.0517762 0)
(0.942805 0.0413358 0)
(0.216456 0.00166799 0)
(0.175896 -0.000645734 0)
(1.01866 -0.0354192 0)
(1.10557 -0.0414344 0)
(1.0781 -0.0362764 0)
(1.05284 -0.0302561 0)
(1.03557 -0.0245317 0)
(1.02356 -0.0187955 0)
(1.01564 -0.0127612 0)
(1.01098 -0.00661145 0)
(1.00893 -0.000329256 0)
(1.00946 0.00586838 0)
(1.01256 0.0118289 0)
(1.01859 0.0176412 0)
(1.02832 0.0232061 0)
(1.04265 0.0286219 0)
(1.06337 0.0342792 0)
(1.09376 0.0402453 0)
(1.09411 0.0418739 0)
(0.82878 0.0227867 0)
(0.174847 0.00066809 0)
(0.154343 -0.000487614 0)
(0.957281 -0.0255662 0)
(1.10407 -0.035112 0)
(1.08793 -0.032677 0)
(1.0614 -0.0281331 0)
(1.04352 -0.023142 0)
(1.03111 -0.0178738 0)
(1.02242 -0.0123579 0)
(1.01679 -0.00644099 0)
(1.01409 3.77167e-05 0)
(1.01474 0.00652256 0)
(1.01857 0.0124074 0)
(1.02543 0.0177047 0)
(1.03565 0.0226623 0)
(1.05032 0.0274651 0)
(1.072 0.0319433 0)
(1.10068 0.0358246 0)
(1.06909 0.0339694 0)
(0.741188 0.0143653 0)
(0.152763 0.00051252 0)
(0.139809 -0.000358885 0)
(0.900295 -0.0192243 0)
(1.09642 -0.0301724 0)
(1.09603 -0.0293007 0)
(1.06904 -0.0255584 0)
(1.05034 -0.0214673 0)
(1.0374 -0.0167437 0)
(1.02839 -0.0114914 0)
(1.02239 -0.00577345 0)
(1.01936 0.000583623 0)
(1.01998 0.0069572 0)
(1.024 0.0125996 0)
(1.03106 0.0175658 0)
(1.04158 0.0220356 0)
(1.05686 0.0259871 0)
(1.07945 0.0294741 0)
(1.10294 0.0321509 0)
(1.03717 0.0281138 0)
(0.674542 0.0102497 0)
(0.13758 0.000388135 0)
(0.12915 -0.000274493 0)
(0.850509 -0.0148544 0)
(1.08402 -0.0260757 0)
(1.10169 -0.0264144 0)
(1.07586 -0.0231199 0)
(1.05665 -0.0194866 0)
(1.04327 -0.0152852 0)
(1.03389 -0.0104077 0)
(1.02764 -0.00490395 0)
(1.0244 0.00126077 0)
(1.0249 0.00740722 0)
(1.02892 0.012769 0)
(1.03611 0.0173279 0)
(1.04691 0.0211939 0)
(1.06258 0.024516 0)
(1.08561 0.0275178 0)
(1.10212 0.0293168 0)
(1.00239 0.0235872 0)
(0.62263 0.00786877 0)
(0.126132 0.000309735 0)
(0.121013 -0.000211965 0)
(0.808114 -0.0116883 0)
(1.06867 -0.0224871 0)
(1.10519 -0.0238013 0)
(1.08209 -0.0209467 0)
(1.06244 -0.0175351 0)
(1.04879 -0.0136283 0)
(1.03914 -0.00908554 0)
(1.03262 -0.00385846 0)
(1.02916 0.00207362 0)
(1.0295 0.00795264 0)
(1.03346 0.0129639 0)
(1.04071 0.0170624 0)
(1.05163 0.0204428 0)
(1.06753 0.023367 0)
(1.09092 0.0260641 0)
(1.09842 0.0269641 0)
(0.967245 0.0200262 0)
(0.580949 0.00631737 0)
(0.117036 0.000254615 0)
(0.114699 -0.000163959 0)
(0.772365 -0.00931928 0)
(1.05179 -0.0193296 0)
(1.10752 -0.021387 0)
(1.08794 -0.018915 0)
(1.06789 -0.0156611 0)
(1.05398 -0.0119234 0)
(1.04415 -0.00759113 0)
(1.0374 -0.00261194 0)
(1.03368 0.00305491 0)
(1.0338 0.00862243 0)
(1.03765 0.0132524 0)
(1.04484 0.0169437 0)
(1.05577 0.019947 0)
(1.0719 0.0225465 0)
(1.09497 0.0249031 0)
(1.09193 0.0250048 0)
(0.933063 0.0172689 0)
(0.546501 0.00525337 0)
(0.109556 0.000215676 0)
(0.109765 -0.000125835 0)
(0.742332 -0.00748297 0)
(1.03443 -0.0165317 0)
(1.10888 -0.0191177 0)
(1.09348 -0.016963 0)
(1.07314 -0.0138112 0)
(1.05896 -0.0101745 0)
(1.04894 -0.00597253 0)
(1.04198 -0.00117266 0)
(1.03798 0.00423691 0)
(1.03783 0.00947752 0)
(1.04146 0.0137434 0)
(1.04852 0.0170752 0)
(1.05944 0.0197369 0)
(1.07578 0.0220456 0)
(1.09775 0.024034 0)
(1.08301 0.0233833 0)
(0.900433 0.0151626 0)
(0.517238 0.00450773 0)
(0.103205 0.000188455 0)
(0.105921 -9.43568e-05 0)
(0.717194 -0.00600463 0)
(1.01743 -0.014022 0)
(1.1094 -0.0169261 0)
(1.09891 -0.0150587 0)
(1.0783 -0.0119289 0)
(1.06382 -0.00833454 0)
(1.05358 -0.00420703 0)
(1.04637 0.000469268 0)
(1.04207 0.00565681 0)
(1.04158 0.0105855 0)
(1.04492 0.0145073 0)
(1.05181 0.0174948 0)
(1.0627 0.0198238 0)
(1.07923 0.0218698 0)
(1.0992 0.0234676 0)
(1.07208 0.022094 0)
(0.869489 0.0135926 0)
(0.491709 0.00398984 0)
(0.0976404 0.000170421 0)
(0.102978 -6.71949e-05 0)
(0.696306 -0.00476703 0)
(1.0014 -0.0117334 0)
(1.10921 -0.0147757 0)
(1.10417 -0.0131179 0)
(1.08344 -0.00996677 0)
(1.06864 -0.00635952 0)
(1.05814 -0.00224807 0)
(1.05064 0.00235296 0)
(1.04596 0.00736532 0)
(1.04506 0.0120136 0)
(1.04804 0.0156051 0)
(1.05471 0.0182552 0)
(1.06556 0.0202529 0)
(1.08224 0.0220398 0)
(1.09968 0.0232298 0)
(1.05941 0.0211408 0)
(0.840091 0.0124669 0)
(0.468834 0.00364312 0)
(0.0926043 0.000159629 0)
(0.100815 -4.22608e-05 0)
(0.679198 -0.00368215 0)
(0.986787 -0.00959504 0)
(1.10853 -0.0125798 0)
(1.10922 -0.0110533 0)
(1.08864 -0.00785916 0)
(1.07349 -0.00418241 0)
(1.06268 -2.79334e-05 0)
(1.05483 0.00454533 0)
(1.04968 0.00943105 0)
(1.04826 0.0138245 0)
(1.05082 0.0170903 0)
(1.05723 0.0194007 0)
(1.06802 0.0210582 0)
(1.08476 0.022574 0)
(1.09916 0.0233725 0)
(1.0452 0.0205394 0)
(0.811935 0.0117136 0)
(0.447773 0.00342945 0)
(0.0878965 0.000154588 0)
(0.0993683 -1.77323e-05 0)
(0.665565 -0.00268045 0)
(0.973955 -0.00753246 0)
(1.10766 -0.01028 0)
(1.11421 -0.00880441 0)
(1.09398 -0.00553099 0)
(1.07845 -0.00172682 0)
(1.06726 0.0025276 0)
(1.05896 0.00713255 0)
(1.05324 0.011935 0)
(1.05121 0.0160905 0)
(1.05326 0.0190309 0)
(1.05936 0.02099 0)
(1.07006 0.0222855 0)
(1.08683 0.0235335 0)
(1.09745 0.0238867 0)
(1.02953 0.0202708 0)
(0.784629 0.0112769 0)
(0.427848 0.00332289 0)
(0.0833575 0.00015418 0)
(0.0986209 8.41488e-06 0)
(0.655251 -0.00170764 0)
(0.963217 -0.00547331 0)
(1.10692 -0.00781146 0)
(1.11923 -0.00629834 0)
(1.09953 -0.00289949 0)
(1.08358 0.00109429 0)
(1.07195 0.00551154 0)
(1.0631 0.0102111 0)
(1.05669 0.0149736 0)
(1.05391 0.0189058 0)
(1.05535 0.0215114 0)
(1.06107 0.0230997 0)
(1.07166 0.0240041 0)
(1.08836 0.0249553 0)
(1.09448 0.024815 0)
(1.01241 0.0203628 0)
(0.757744 0.0111243 0)
(0.408501 0.0033083 0)
(0.0788566 0.000157839 0)
(0.0985939 3.26715e-05 0)
(0.648232 -0.000716621 0)
(0.954875 -0.00334392 0)
(1.10666 -0.00509975 0)
(1.12446 -0.00344361 0)
(1.10538 0.000139264 0)
(1.08897 0.00439113 0)
(1.07681 0.0090429 0)
(1.0673 0.0139009 0)
(1.06003 0.0186618 0)
(1.05635 0.0223755 0)
(1.05708 0.0246262 0)
(1.06234 0.0258138 0)
(1.07278 0.0263083 0)
(1.08916 0.0268925 0)
(1.09003 0.0261975 0)
(0.993715 0.0208396 0)
(0.730796 0.0112399 0)
(0.389228 0.00337804 0)
(0.0742746 0.000165197 0)
(0.0993218 7.06919e-05 0)
(0.644588 0.000302152 0)
(0.949246 -0.00106812 0)
(1.10724 -0.00206048 0)
(1.1301 -0.000146736 0)
(1.11166 0.00369388 0)
(1.09473 0.00828815 0)
(1.08193 0.013255 0)
(1.0716 0.0183386 0)
(1.0633 0.0231383 0)
(1.05854 0.0266341 0)
(1.05839 0.0285021 0)
(1.06311 0.0292533 0)
(1.07338 0.0293092 0)
(1.08908 0.0294695 0)
(1.08398 0.02807 0)
(0.973241 0.0217255 0)
(0.703257 0.0116119 0)
(0.369552 0.00352489 0)
(0.0695033 0.000175816 0)
(0.101008 0.00010393 0)
(0.644692 0.00146432 0)
(0.946669 0.00143505 0)
(1.10906 0.00140739 0)
(1.13635 0.00369136 0)
(1.11847 0.00791548 0)
(1.10095 0.0129477 0)
(1.08738 0.0183179 0)
(1.07604 0.0236995 0)
(1.06649 0.0285747 0)
(1.06042 0.0318464 0)
(1.05923 0.0332754 0)
(1.06331 0.0335442 0)
(1.07335 0.0331206 0)
(1.08791 0.0327891 0)
(1.07603 0.030523 0)
(0.950678 0.0230529 0)
(0.674569 0.0122389 0)
(0.349032 0.00374491 0)
(0.0644466 0.000189272 0)
(0.103719 0.000153099 0)
(0.648913 0.00288558 0)
(0.947652 0.00430808 0)
(1.11263 0.00541752 0)
(1.14341 0.00824766 0)
(1.12598 0.0129999 0)
(1.10778 0.0185797 0)
(1.09325 0.0244533 0)
(1.08068 0.0302037 0)
(1.06959 0.0351746 0)
(1.06195 0.0381781 0)
(1.05957 0.0390914 0)
(1.06286 0.0388247 0)
(1.07263 0.0378576 0)
(1.08545 0.0369645 0)
(1.0659 0.03365 0)
(0.925597 0.0248707 0)
(0.644124 0.013124 0)
(0.327227 0.00403499 0)
(0.0590142 0.000205143 0)
(0.107729 0.000217904 0)
(0.657822 0.00455922 0)
(0.952653 0.00771122 0)
(1.11845 0.0101502 0)
(1.15158 0.0137239 0)
(1.13438 0.0191697 0)
(1.11535 0.0254314 0)
(1.09964 0.0319269 0)
(1.08555 0.0381176 0)
(1.07259 0.0431797 0)
(1.0631 0.0458322 0)
(1.05932 0.0461506 0)
(1.06168 0.0452642 0)
(1.07112 0.0436675 0)
(1.08169 0.0421587 0)
(1.05317 0.0375546 0)
(0.89745 0.0272071 0)
(0.611259 0.0142609 0)
(0.303708 0.00438685 0)
(0.0531292 0.000222445 0)
(0.11337 0.000305964 0)
(0.672133 0.00664728 0)
(0.962345 0.0118429 0)
(1.12709 0.0158493 0)
(1.16118 0.0203791 0)
(1.14393 0.0267386 0)
(1.12385 0.0338455 0)
(1.10666 0.0410835 0)
(1.09066 0.0477605 0)
(1.07545 0.0528699 0)
(1.06377 0.0550523 0)
(1.05835 0.0546428 0)
(1.05966 0.0530408 0)
(1.06869 0.0507355 0)
(1.07646 0.0484802 0)
(1.03733 0.0423268 0)
(0.865569 0.0300895 0)
(0.575278 0.0156345 0)
(0.278082 0.00478699 0)
(0.0467384 0.000239751 0)
(0.121152 0.000431594 0)
(0.692788 0.0093792 0)
(0.977596 0.0170128 0)
(1.13919 0.0228578 0)
(1.1727 0.0286179 0)
(1.15492 0.0361807 0)
(1.13345 0.0443156 0)
(1.11434 0.0523995 0)
(1.09596 0.0595533 0)
(1.07801 0.0645757 0)
(1.06379 0.0660887 0)
(1.05648 0.0647592 0)
(1.05663 0.0623211 0)
(1.06523 0.0592205 0)
(1.06942 0.0560598 0)
(1.01773 0.0480469 0)
(0.829158 0.0335179 0)
(0.535467 0.0172063 0)
(0.250021 0.00521208 0)
(0.0398233 0.000255138 0)
(0.131802 0.000612082 0)
(0.721091 0.0131361 0)
(0.999558 0.0236883 0)
(1.15556 0.0317212 0)
(1.18673 0.0390368 0)
(1.16769 0.048156 0)
(1.14431 0.0575 0)
(1.1227 0.0664774 0)
(1.10134 0.0739884 0)
(1.08013 0.0786615 0)
(1.06301 0.0792075 0)
(1.0536 0.0767224 0)
(1.0525 0.073271 0)
(1.06048 0.0692164 0)
(1.06007 0.0649471 0)
(0.99354 0.0547636 0)
(0.787328 0.0374465 0)
(0.49116 0.0189 0)
(0.219333 0.00562419 0)
(0.0324209 0.000265841 0)
(0.146588 0.000903516 0)
(0.759052 0.0185181 0)
(1.02987 0.0326455 0)
(1.17713 0.0433674 0)
(1.20403 0.0526704 0)
(1.18256 0.0636922 0)
(1.15648 0.0743528 0)
(1.13157 0.0840978 0)
(1.10654 0.0916321 0)
(1.08152 0.0954981 0)
(1.06116 0.0946368 0)
(1.04952 0.0907021 0)
(1.04711 0.0860274 0)
(1.05406 0.080895 0)
(1.0477 0.0753398 0)
(0.963736 0.0624163 0)
(0.739163 0.0417495 0)
(0.441872 0.0205841 0)
(0.186075 0.00596561 0)
(0.0246477 0.00026817 0)
(0.167672 0.00140315 0)
(0.809886 0.0266885 0)
(1.07106 0.0454294 0)
(1.205 0.0596278 0)
(1.22524 0.0716766 0)
(1.19963 0.0844132 0)
(1.16972 0.0961931 0)
(1.14053 0.106197 0)
(1.11106 0.113085 0)
(1.08173 0.115438 0)
(1.0579 0.112577 0)
(1.04398 0.106807 0)
(1.04028 0.100709 0)
(1.04584 0.0945609 0)
(1.03155 0.0871271 0)
(0.927038 0.0708136 0)
(0.683862 0.0461912 0)
(0.387566 0.0220704 0)
(0.150752 0.00616077 0)
(0.0167401 0.000257223 0)
(0.19841 0.00251078 0)
(0.879267 0.0403031 0)
(1.12678 0.0658572 0)
(1.23961 0.0840879 0)
(1.25009 0.0987626 0)
(1.21826 0.112658 0)
(1.18316 0.124618 0)
(1.14874 0.133769 0)
(1.11421 0.138908 0)
(1.08026 0.138738 0)
(1.05292 0.133127 0)
(1.03676 0.125083 0)
(1.03185 0.117323 0)
(1.03556 0.11005 0)
(1.0105 0.100195 0)
(0.881925 0.0795575 0)
(0.621104 0.0503704 0)
(0.329339 0.0231761 0)
(0.114812 0.00616024 0)
(0.00918117 0.000225927 0)
(0.240347 0.00869505 9.10712e-20)
(0.971219 0.0673684 8.13152e-20)
(1.19475 0.100198 -2.84872e-20)
(1.27784 0.120419 0)
(1.2758 0.137483 -7.29591e-34)
(1.23637 0.150716 1.06688e-20)
(1.19534 0.161109 -1.9186e-20)
(1.15516 0.168015 0)
(1.11522 0.170342 3.92879e-34)
(1.07632 0.166872 -2.36148e-20)
(1.04518 0.158042 0)
(1.02658 0.147502 -2.79402e-20)
(1.0204 0.138112 -8.23111e-20)
(1.02188 0.130095 -3.88309e-20)
(0.981457 0.117389 -1.16524e-20)
(0.823279 0.0906782 -6.91763e-21)
(0.545311 0.055081 0)
(0.265214 0.0243333 4.82516e-21)
(0.0785755 0.00637136 5.67499e-21)
(0.00213017 0.000238332 1.00703e-19)
(0.269626 0.0239034 6.72506e-20)
(1.04722 0.109835 1.03812e-21)
(1.25079 0.149121 7.60424e-21)
(1.31193 0.169427 0)
(1.29827 0.186436 -3.71221e-20)
(1.25177 0.197479 -4.21901e-20)
(1.20481 0.205559 -1.94037e-20)
(1.15874 0.209959 -6.89998e-20)
(1.11305 0.209458 0)
(1.06867 0.202747 1.00886e-19)
(1.03307 0.190756 9.99276e-20)
(1.01151 0.177737 2.96686e-20)
(1.00315 0.166371 1.07983e-19)
(0.997932 0.155895 1.51534e-19)
(0.936911 0.138794 0)
(0.745519 0.104047 2.12687e-19)
(0.457067 0.0607681 3.04539e-19)
(0.198246 0.0254464 3.37273e-19)
(0.0433484 0.00569266 -3.83879e-19)
(-0.00466754 -0.000350957 -7.11133e-21)
(0.270922 0.0398237 0)
(1.09531 0.165011 1.20474e-20)
(1.28844 0.209248 0)
(1.33837 0.229088 -4.83518e-20)
(1.3158 0.243107 0)
(1.26337 0.250296 -8.30454e-20)
(1.21084 0.254673 3.96957e-20)
(1.15918 0.255497 -1.39066e-19)
(1.10802 0.251355 -3.13846e-21)
(1.05838 0.240856 5.22815e-20)
(1.01844 0.225414 2.1995e-19)
(0.993933 0.209773 -5.24619e-22)
(0.983103 0.196361 -7.85249e-20)
(0.971636 0.183435 -1.42963e-19)
(0.896633 0.161431 1.68797e-19)
(0.691257 0.118003 -2.983e-19)
(0.408101 0.0668382 -3.93429e-20)
(0.167278 0.0269796 0)
(0.0285504 0.00491116 -1.51887e-23)
(-0.00756654 -0.00110214 0)
(0.264713 0.0535286 1.55565e-19)
(1.1213 0.223447 -7.69435e-20)
(1.31159 0.273943 -5.97203e-20)
(1.35578 0.293978 2.28675e-20)
(1.32702 0.304136 -3.85979e-20)
(1.27012 0.306842 1.74233e-19)
(1.21298 0.306852 8.29587e-20)
(1.15645 0.303488 0)
(1.10035 0.295195 -2.6252e-19)
(1.04584 0.280505 0)
(1.00181 0.261337 -1.15622e-19)
(0.974426 0.24293 -1.42545e-19)
(0.961155 0.227444 -8.56347e-20)
(0.944846 0.21198 -1.03947e-19)
(0.862817 0.18499 0)
(0.65627 0.134203 0)
(0.384469 0.0760305 -2.55352e-19)
(0.156825 0.0305347 5.04752e-20)
(0.0240385 0.00462273 -2.94611e-20)
(-0.00895644 -0.00179626 -3.39497e-20)
(0.257313 0.0656089 -6.20225e-20)
(1.13277 0.281777 0)
(1.32427 0.339586 1.21909e-19)
(1.36512 0.360294 6.4414e-20)
(1.332 0.366656 8.93976e-20)
(1.27183 0.364893 0)
(1.21107 0.360448 8.12821e-20)
(1.15052 0.352734 1.54195e-19)
(1.09016 0.340097 1.34614e-19)
(1.03127 0.32103 2.4682e-19)
(0.983426 0.297993 0)
(0.953284 0.276728 -3.07842e-19)
(0.93765 0.259069 -1.85306e-19)
(0.91763 0.241078 -1.09471e-19)
(0.833618 0.209714 6.69279e-19)
(0.633456 0.152597 7.9268e-20)
(0.37567 0.0883697 3.70363e-19)
(0.159066 0.0364221 -1.75553e-18)
(0.0269885 0.00577221 1.03707e-18)
(-0.00868478 -0.00219555 -1.23103e-18)
(0.250268 0.07655 -2.93888e-20)
(1.13503 0.33819 1.14013e-20)
(1.32937 0.404295 -1.30838e-20)
(1.36801 0.426141 -6.5004e-20)
(1.33169 0.428933 -7.53667e-20)
(1.26907 0.42289 3.58033e-21)
(1.20546 0.414163 -8.8115e-20)
(1.1416 0.402196 1.59661e-19)
(1.07759 0.385267 -2.89939e-19)
(1.01479 0.36184 0)
(0.963447 0.334965 -1.39558e-19)
(0.930647 0.310861 -3.23408e-21)
(0.912653 0.291009 -2.02942e-19)
(0.889818 0.270603 0)
(0.807009 0.23529 -1.45456e-19)
(0.616681 0.173066 -3.43586e-19)
(0.374463 0.102981 9.12005e-19)
(0.166858 0.0446246 -8.97944e-19)
(0.0346278 0.00872233 1.27417e-18)
(-0.00692771 -0.00211355 -1.30396e-18)
(0.244391 0.0866844 -8.08223e-22)
(1.1316 0.392017 -3.65823e-21)
(1.32902 0.467072 -3.54191e-20)
(1.36586 0.490316 2.58416e-20)
(1.32715 0.489926 -3.79412e-20)
(1.26268 0.47989 0)
(1.19676 0.467145 -8.20383e-20)
(1.13013 0.451139 -1.67273e-19)
(1.06294 0.430093 -1.50779e-19)
(0.996677 0.402446 0)
(0.942155 0.371801 -1.45013e-19)
(0.90684 0.344831 -1.79543e-19)
(0.886619 0.322871 2.20374e-19)
(0.861642 0.300242 -1.33739e-19)
(0.781058 0.261385 -6.37076e-19)
(0.601784 0.194868 3.76782e-19)
(0.37524 0.118837 1.11955e-19)
(0.176408 0.054447 0)
(0.0439886 0.0131236 -1.23474e-18)
(-0.00444737 -0.00160484 -4.46234e-20)
(0.239775 0.0963359 1.9732e-21)
(1.12477 0.443062 -1.47225e-21)
(1.3247 0.52744 1.63528e-20)
(1.35989 0.552106 9.2881e-20)
(1.31933 0.548968 -1.39479e-19)
(1.25344 0.535313 1.65588e-19)
(1.18565 0.518854 1.76791e-19)
(1.11665 0.499075 -2.67339e-19)
(1.04669 0.47415 9.30619e-20)
(0.977298 0.442464 -6.0776e-19)
(0.919839 0.408105 -1.64021e-19)
(0.882216 0.378328 0)
(0.860027 0.354368 2.39191e-19)
(0.83341 0.329705 2.86648e-19)
(0.754717 0.287716 3.43067e-19)
(0.586511 0.217205 -4.1024e-19)
(0.374214 0.135591 -1.21272e-19)
(0.184355 0.0655673 1.42281e-19)
(0.0528906 0.018505 0)
(-0.00177265 -0.00076403 -9.70143e-20)
(0.236313 0.10565 -6.45474e-20)
(1.11612 0.491422 2.86933e-20)
(1.3177 0.58542 -1.4207e-20)
(1.35113 0.611163 5.57781e-20)
(1.30903 0.605666 -6.24305e-20)
(1.24205 0.588755 -8.09589e-21)
(1.17272 0.568933 -1.9324e-19)
(1.1017 0.54569 -9.67362e-20)
(1.02925 0.51715 -2.62081e-19)
(0.956976 0.481627 5.9792e-22)
(0.89678 0.443663 -5.13834e-19)
(0.857076 0.41123 4.3341e-19)
(0.833154 0.385346 -2.62966e-19)
(0.804997 0.358555 3.16193e-19)
(0.72801 0.313327 0)
(0.569707 0.239062 -2.23167e-19)
(0.370103 0.152292 -4.58422e-23)
(0.189112 0.0767435 -6.21255e-19)
(0.0597324 0.0240605 -9.08042e-20)
(0.000561395 0.000187012 0)
(0.233881 0.114769 0)
(1.10657 0.537326 3.74723e-20)
(1.30878 0.640832 -7.73743e-21)
(1.34036 0.667381 -5.02255e-20)
(1.29692 0.659809 -7.97987e-20)
(1.22909 0.639989 0)
(1.15848 0.617147 -8.76363e-20)
(1.0857 0.590767 -2.14356e-21)
(1.011 0.558911 5.61641e-19)
(0.93603 0.519776 -8.34783e-20)
(0.873256 0.478391 -3.70966e-19)
(0.831636 0.443403 2.25347e-19)
(0.806118 0.415514 -4.39177e-21)
(0.776539 0.386282 3.36168e-19)
(0.700919 0.337789 2.07378e-19)
(0.551033 0.25923 -4.82649e-19)
(0.362573 0.167792 5.69739e-19)
(0.189643 0.0869113 1.682e-19)
(0.0635677 0.0289499 6.9124e-19)
(0.00224052 0.00102348 -1.81832e-18)
(0.232417 0.123842 -2.98151e-20)
(1.09677 0.580957 3.56025e-20)
(1.29874 0.69333 -1.99734e-20)
(1.32814 0.72073 3.75673e-20)
(1.28354 0.711286 0)
(1.21505 0.68888 -7.56233e-20)
(1.14338 0.663358 2.94547e-19)
(1.06904 0.634172 2.11934e-19)
(0.992267 0.599312 0)
(0.914727 0.556829 -1.20179e-18)
(0.84948 0.512206 1.00305e-18)
(0.806031 0.474609 0)
(0.778989 0.444438 3.0712e-19)
(0.748079 0.412633 -4.4062e-21)
(0.67325 0.360261 -6.62639e-19)
(0.53025 0.277165 2.58838e-19)
(0.351824 0.181278 0)
(0.186309 0.0951751 9.06721e-19)
(0.0641383 0.0325521 0)
(0.00313586 0.00160346 -8.60277e-19)
(0.231745 0.132923 3.8244e-20)
(1.0872 0.622451 5.34676e-20)
(1.2878 0.743009 -1.7856e-20)
(1.31498 0.771216 0)
(1.26936 0.760071 -6.67199e-20)
(1.20033 0.735382 0)
(1.12777 0.707492 -2.90277e-19)
(1.05204 0.675828 -9.83052e-20)
(0.973335 0.638285 9.89832e-20)
(0.893312 0.592747 -5.94222e-19)
(0.825615 0.545021 1.0353e-19)
(0.780344 0.504639 0)
(0.75185 0.471936 -6.55471e-19)
(0.719619 0.437362 4.37141e-21)
(0.644974 0.380609 0)
(0.507634 0.29261 3.06947e-21)
(0.337887 0.192193 8.31688e-19)
(0.179458 0.101065 -7.83232e-19)
(0.062116 0.0345574 2.29944e-19)
(0.00331049 0.00183807 0)
(0.231552 0.141893 0)
(1.07817 0.661869 6.91676e-20)
(1.2763 0.790028 3.735e-20)
(1.30128 0.818885 -4.89987e-21)
(1.25472 0.806191 -2.14331e-20)
(1.18527 0.77949 -1.69739e-19)
(1.11195 0.749531 1.08836e-19)
(1.03497 0.7157 -1.16016e-19)
(0.95445 0.675793 4.41552e-19)
(0.871988 0.627515 -9.49113e-19)
(0.801779 0.576777 -7.57907e-21)
(0.75462 0.533433 -2.86923e-19)
(0.724726 0.498092 1.06296e-18)
(0.691044 0.460439 -5.12947e-21)
(0.615979 0.398612 -5.13503e-19)
(0.483059 0.305364 -9.14356e-19)
(0.321244 0.200227 0)
(0.169531 0.104353 0)
(0.057979 0.035038 2.4742e-19)
(0.00295431 0.00174598 -1.43374e-19)
(0.231936 0.150916 5.90915e-20)
(1.06959 0.699091 -1.62637e-19)
(1.26456 0.834446 -4.03536e-20)
(1.28733 0.863816 0)
(1.23991 0.849703 -3.04555e-21)
(1.17014 0.821232 -1.54462e-19)
(1.09619 0.78948 2.62191e-19)
(1.01808 0.753779 4.5621e-19)
(0.935823 0.711831 5.73384e-19)
(0.850936 0.661133 -7.74706e-19)
(0.778085 0.607486 -8.60279e-19)
(0.728895 0.561128 7.66859e-19)
(0.697575 0.523088 0)
(0.662207 0.481726 -2.33303e-19)
(0.5863 0.413966 -5.55005e-19)
(0.457111 0.315166 -6.56324e-19)
(0.302203 0.205148 -7.74764e-19)
(0.156923 0.104974 2.2818e-19)
(0.052003 0.0340301 -1.33537e-19)
(0.00224297 0.0014356 5.31945e-22)
(0.232485 0.159827 0)
(1.06166 0.73468 0)
(1.25279 0.87637 4.98747e-21)
(1.27334 0.906121 0)
(1.22516 0.890695 4.4774e-20)
(1.15514 0.860667 1.03974e-19)
(1.08066 0.82737 0)
(1.00152 0.790076 5.4052e-20)
(0.917631 0.746398 9.55809e-19)
(0.830321 0.693613 -1.77963e-18)
(0.754648 0.637238 0)
(0.703222 0.587964 -4.93013e-19)
(0.670291 0.54703 -6.07463e-21)
(0.632899 0.500955 -4.82321e-21)
(0.556001 0.426441 5.92792e-19)
(0.43017 0.321933 -4.37533e-22)
(0.281116 0.206854 -1.66719e-18)
(0.142306 0.102927 4.9048e-19)
(0.0448562 0.0316386 1.44287e-19)
(0.00131112 0.000916618 0)
(0.233082 0.1686 -2.48701e-19)
(1.05411 0.768601 -1.17893e-19)
(1.24106 0.915871 -1.40619e-19)
(1.25948 0.945878 9.32271e-20)
(1.21062 0.929241 4.86287e-20)
(1.14044 0.897859 0)
(1.06552 0.863245 1.57825e-19)
(0.985466 0.824613 -1.20321e-19)
(0.900022 0.779511 7.71133e-21)
(0.810292 0.72498 1.30962e-19)
(0.731604 0.666165 1.11179e-18)
(0.677649 0.614188 -1.7281e-19)
(0.642724 0.569933 -6.53481e-19)
(0.602912 0.51786 -2.71245e-19)
(0.525199 0.435871 3.2178e-19)
(0.402657 0.325491 -6.51885e-23)
(0.25874 0.205208 4.48592e-19)
(0.126632 0.0984097 -1.0541e-18)
(0.037336 0.0282284 1.24026e-18)
(0.00030178 0.000275486 1.78148e-19)
(0.233546 0.177108 9.65317e-20)
(1.04695 0.800957 -6.78602e-20)
(1.22951 0.953046 1.22179e-20)
(1.24588 0.983208 7.32587e-20)
(1.19643 0.965453 3.02879e-21)
(1.12615 0.932883 -1.7982e-19)
(1.0509 0.897154 4.54445e-20)
(0.970017 0.85741 -5.00767e-19)
(0.883118 0.811169 -1.05075e-18)
(0.790978 0.755245 -1.05836e-18)
(0.709102 0.694407 0)
(0.652234 0.639991 -7.57756e-19)
(0.614737 0.591781 9.4079e-19)
(0.572036 0.532312 0)
(0.493868 0.442113 -6.88357e-19)
(0.374857 0.325382 4.09574e-19)
(0.236166 0.199978 -4.81624e-19)
(0.111232 0.0918207 -5.66483e-19)
(0.0302017 0.0242445 -9.97839e-19)
(-0.000643393 -0.000403959 -7.66344e-19)
(0.234338 0.185475 -1.10697e-19)
(1.04004 0.831729 7.25446e-20)
(1.21819 0.987967 1.62657e-19)
(1.23262 1.0182 1.15244e-19)
(1.18269 0.999424 1.38567e-21)
(1.11238 0.965826 -9.50611e-20)
(1.03686 0.929149 1.51613e-19)
(0.95526 0.888509 -5.13402e-19)
(0.867002 0.841396 -6.21308e-19)
(0.772499 0.784433 1.10592e-18)
(0.687285 0.722075 2.43605e-18)
(0.627061 0.665492 0)
(0.586243 0.612613 0)
(0.54003 0.544451 -3.11724e-19)
(0.461662 0.444996 0)
(0.346782 0.320697 8.79692e-19)
(0.214591 0.190424 1.03449e-18)
(0.098058 0.0832341 0)
(0.0246945 0.0201483 0)
(-0.00138339 -0.00100083 8.22458e-19)
(0.234775 0.193396 1.28169e-19)
(1.03339 0.860905 1.05351e-19)
(1.20717 1.02075 1.19115e-19)
(1.21978 1.05097 -1.20906e-19)
(1.16944 1.03126 -1.29735e-20)
(1.09917 0.996765 9.45111e-20)
(1.02348 0.959289 -2.07281e-19)
(0.941257 0.917939 -4.98173e-22)
(0.85175 0.870196 -9.97692e-21)
(0.754949 0.81255 -9.93283e-21)
(0.666307 0.749233 1.25293e-18)
(0.602248 0.690741 0)
(0.557255 0.632579 9.49943e-19)
(0.506666 0.554698 6.64061e-19)
(0.427807 0.444533 1.60153e-18)
(0.317777 0.310221 4.7301e-19)
(0.195188 0.174253 -5.56213e-19)
(0.0910051 0.0702051 -3.25656e-19)
(0.0260013 0.0148692 0)
(-0.000245282 -0.000931489 8.8259e-19)
(0.235496 0.201321 -2.92357e-19)
(1.02698 0.888574 0)
(1.19644 1.05146 1.45295e-19)
(1.20736 1.08163 -1.06269e-19)
(1.15676 1.06106 3.61703e-20)
(1.08656 1.02578 -9.50007e-20)
(1.01079 0.987632 3.99217e-19)
(0.928042 0.945733 -4.20523e-20)
(0.837403 0.897581 0)
(0.738411 0.839582 -1.2161e-18)
(0.64631 0.77589 -2.7187e-18)
(0.57795 0.715761 1.11314e-19)
(0.527922 0.65193 1.30778e-18)
(0.471824 0.563725 0)
(0.391163 0.441335 1.07887e-18)
(0.285605 0.293104 0)
(0.176362 0.146481 0)
(0.0942933 0.0397362 -3.51755e-19)
(0.0549032 -0.00233664 0)
(0.0278613 0.0112734 2.3614e-19)
(0.235842 0.208635 -3.30642e-19)
(1.02076 0.91508 0)
(1.186 1.08029 2.45615e-19)
(1.19533 1.11039 0)
(1.14459 1.08909 -2.79129e-20)
(1.07449 1.05317 0)
(0.998733 1.01449 1.92036e-20)
(0.915522 0.972232 6.99672e-20)
(0.82384 0.923915 7.7326e-20)
(0.722722 0.865923 -1.32978e-18)
(0.627122 0.802467 8.13731e-20)
(0.553942 0.7411 8.93832e-19)
(0.497918 0.671441 1.27305e-18)
(0.434732 0.572406 1.71703e-19)
(0.349841 0.437006 8.43941e-19)
(0.245559 0.270452 0)
(0.146832 0.103621 1.17044e-18)
(0.0796337 -0.00890484 -6.81673e-19)
(0.0418457 0.047374 7.82179e-19)
(-0.0595768 0.434694 -9.28132e-19)
(0.236152 0.215746 2.76179e-19)
(1.01448 0.940197 4.29383e-19)
(1.17576 1.10756 0)
(1.18354 1.13772 9.90404e-21)
(1.13274 1.11592 9.3685e-20)
(1.0627 1.07961 9.22647e-20)
(0.98699 1.04066 1.3609e-19)
(0.903288 0.998375 0)
(0.810534 0.950293 5.12018e-19)
(0.707219 0.89289 -6.93749e-20)
(0.607831 0.830429 0)
(0.528993 0.7684 0)
(0.465436 0.692693 1.13985e-18)
(0.393222 0.581644 -5.30609e-19)
(0.300722 0.433703 -8.5436e-19)
(0.193017 0.246071 0)
(0.0850255 0.105807 5.83168e-19)
(0.00695511 0.442466 -6.69253e-19)
(0.0320684 1.89283 -3.68366e-19)
(0.0629356 2.80992 -4.85776e-19)
(0.236222 0.222079 -2.09089e-19)
(1.00824 0.964088 -5.54504e-19)
(1.16575 1.13325 1.48367e-19)
(1.172 1.16346 1.14747e-19)
(1.12126 1.14134 0)
(1.05128 1.10482 4.17477e-20)
(0.975765 1.06583 1.82363e-19)
(0.891528 1.02373 -3.36833e-20)
(0.797752 0.976195 7.63011e-20)
(0.692282 0.919876 1.26576e-18)
(0.589024 0.859053 1.36921e-18)
(0.504052 0.797197 9.99608e-19)
(0.431399 0.715766 1.14511e-18)
(0.348965 0.59055 -1.24402e-18)
(0.24975 0.434966 -1.28837e-18)
(0.128124 0.28457 0)
(0.0457605 0.834092 0)
(0.0998748 2.5535 3.21447e-19)
(0.102482 3.2016 0)
(0.10493 3.38794 7.096e-19)
(0.239335 0.227913 0)
(1.00262 0.987014 0)
(1.15569 1.15722 0)
(1.16047 1.18746 3.62252e-20)
(1.1098 1.16509 8.95994e-20)
(1.03998 1.12866 3.88231e-21)
(0.964959 1.08989 1.15573e-19)
(0.880186 1.04819 -3.27349e-20)
(0.785446 1.00147 6.36626e-19)
(0.677923 0.946734 -1.84582e-20)
(0.570814 0.888145 2.70174e-18)
(0.47946 0.827302 -1.15183e-19)
(0.395981 0.74171 1.38553e-19)
(0.304416 0.597088 1.79908e-19)
(0.188621 0.448853 -6.25392e-21)
(0.102572 0.96569 3.54399e-21)
(0.140645 2.72293 -1.69315e-18)
(0.148041 3.29344 -6.29298e-19)
(0.13689 3.42615 3.18005e-19)
(0.124251 3.44807 -3.49406e-19)
(0.158531 0.17942 1.2077e-19)
(0.992517 1.01188 0)
(1.14532 1.17967 -2.99644e-19)
(1.1494 1.21011 -3.15978e-19)
(1.09908 1.18788 2.38657e-19)
(1.02966 1.15173 6.46203e-21)
(0.954488 1.11286 -1.16503e-19)
(0.869365 1.07182 3.58737e-19)
(0.77376 1.02626 -5.17869e-19)
(0.66441 0.973619 0)
(0.553553 0.917827 1.32154e-18)
(0.455756 0.858439 -8.14138e-19)
(0.359938 0.77371 0)
(0.253333 0.604101 1.61684e-19)
(0.147872 0.76728 3.94832e-19)
(0.156088 2.49705 -4.63362e-19)
(0.21183 3.32403 5.12331e-19)
(0.192158 3.43921 2.77791e-19)
(0.159338 3.46059 3.07118e-19)
(0.137794 3.47073 4.94039e-19)
(0.279831 0.266841 -2.12215e-19)
(0.976698 1.02195 0)
(1.1274 1.20541 3.33917e-19)
(1.13501 1.24158 3.59208e-19)
(1.08212 1.22118 -2.79012e-19)
(1.01208 1.18549 -5.37705e-20)
(0.935907 1.14818 1.00923e-19)
(0.850295 1.10841 2.81404e-20)
(0.753419 1.06508 4.93343e-19)
(0.64146 1.01657 1.08734e-18)
(0.52559 0.966916 7.46366e-20)
(0.416986 0.910711 7.22036e-19)
(0.296416 0.817015 1.28263e-19)
(0.214899 0.943278 -1.6315e-19)
(0.229174 2.35006 -3.66801e-19)
(0.288463 3.32778 3.45322e-19)
(0.272113 3.46851 -3.89781e-19)
(0.236565 3.49017 -2.26718e-19)
(0.199888 3.51731 -1.84382e-19)
(0.149286 3.51082 -1.77551e-20)
(0.269062 0.264456 0)
(0.974732 1.04517 1.00093e-19)
(1.1193 1.22909 -7.03687e-20)
(1.12469 1.26533 -4.43346e-20)
(1.07154 1.24449 -2.01234e-19)
(1.00151 1.20902 6.31106e-20)
(0.925045 1.17191 -4.88394e-20)
(0.839256 1.13296 2.51308e-20)
(0.74189 1.09113 -5.13301e-19)
(0.628731 1.04554 -2.7535e-20)
(0.510151 1.00025 -2.39218e-18)
(0.396567 0.946961 1.02939e-19)
(0.28335 0.884444 -1.20556e-19)
(0.254747 1.49388 -1.51697e-19)
(0.327575 3.10426 3.46827e-20)
(0.34743 3.46739 1.32741e-21)
(0.306681 3.52223 5.70681e-19)
(0.269742 3.5484 2.7794e-19)
(0.221293 3.57129 -6.69496e-20)
(0.164005 3.56691 -8.40591e-20)
(0.253306 0.262502 2.55181e-19)
(0.971301 1.07098 6.90863e-19)
(1.11075 1.25485 -2.03162e-19)
(1.11378 1.29046 -1.68039e-19)
(1.06039 1.26919 0)
(0.990519 1.23375 1.51631e-19)
(0.914047 1.1969 -4.1031e-20)
(0.82835 1.15875 2.18975e-20)
(0.730811 1.11849 -5.72037e-20)
(0.616974 1.07607 -9.81717e-19)
(0.49649 1.03526 -1.10269e-18)
(0.380063 0.98526 -8.39029e-19)
(0.281758 1.0156 -9.18179e-19)
(0.323036 2.21177 9.41144e-19)
(0.413026 3.37923 7.72286e-19)
(0.391012 3.52502 0)
(0.344794 3.56885 0)
(0.306693 3.60832 -5.37588e-20)
(0.256767 3.66638 0)
(0.175978 3.64276 -5.36917e-20)
(0.242774 0.264408 -3.87821e-19)
(0.965744 1.09772 -5.94171e-19)
(1.1008 1.28187 0)
(1.10155 1.31637 1.17892e-20)
(1.04801 1.29451 -2.33072e-19)
(0.97844 1.259 2.68317e-19)
(0.902283 1.22244 -8.76272e-21)
(0.816886 1.18499 1.20459e-20)
(0.719416 1.14625 -3.61091e-19)
(0.605318 1.10695 4.90087e-20)