/*--------------------------------*- C++ -*----------------------------------*\
| =========                 |                                                 |
| \\      /  F ield         | OpenFOAM: The Open Source CFD Toolbox           |
|  \\    /   O peration     | Version:  2306                                  |
|   \\  /    A nd           | Website:  www.openfoam.com                      |
|    \\/     M anipulation  |                                                 |
\*---------------------------------------------------------------------------*/
FoamFile
{
    version     2.0;
    format      ascii;
    arch        "LSB;label=32;scalar=64";
    class       surfaceScalarField;
    location    "45";
    object      phi;
}
// * * * * * * * * * * * * * * * * * * * * * * * * * * * * * * * * * * * * * //

dimensions      [0 3 -1 0 0 0 0];

oriented        oriented;

internalField   nonuniform List<scalar> 
17370
(
-0.091099
0.0935448
0.286565
-0.0749537
0.0569533
0.364776
-0.040936
0.0299515
0.427153
-0.0211954
0.0155937
0.504853
-0.011342
0.00864107
0.602103
-0.00650801
0.00505656
0.720509
-0.00384138
0.00297428
0.863774
-0.00221082
0.00163835
1.03602
-0.00111128
0.000693592
1.24292
-0.000285205
-0.000105933
1.49158
0.000490459
-0.000900297
1.4916
0.00130146
-0.00180265
1.24319
0.00235026
-0.00309021
1.03638
0.00394284
-0.00514966
0.864113
0.00659687
-0.00872451
0.721185
0.0114177
-0.0156583
0.603455
0.0212494
-0.0299942
0.508184
0.0409691
-0.0569775
0.432177
0.0749724
-0.0935556
0.365359
0.0911115
0.197899
-0.127345
0.0881407
0.0392044
-0.364735
0.353786
-0.0726339
0.0835835
-0.446565
0.454366
-0.0817193
0.073918
-0.52097
0.529523
-0.0658094
0.0572559
-0.612848
0.621015
-0.0495041
0.0413366
-0.726999
0.733787
-0.0344081
0.0276198
-0.867514
0.872445
-0.0222805
0.0173501
-1.03855
1.0419
-0.0136361
0.0102875
-1.24471
1.24712
-0.00773436
0.00532508
-1.49284
1.49485
-0.00336042
0.00134729
-1.49269
1.49451
0.000471761
-0.00228987
-1.2441
1.24602
0.00426495
-0.00617896
-1.0376
1.04009
0.00852075
-0.0110066
-0.86616
0.869816
0.0142829
-0.0179395
-0.724479
0.72978
0.0228191
-0.0281192
-0.608889
0.615777
0.0348659
-0.041754
-0.514991
0.5227
0.0498753
-0.0575839
-0.439772
0.447834
0.0660864
-0.0741477
-0.375159
0.377
0.0818942
-0.0837357
-0.25692
0.223426
0.0727399
-0.0392453
-0.0686471
0.0589149
0.00973217
-0.0520893
0.0587902
-0.374537
0.367836
-0.0579073
0.054083
-0.453826
0.45765
-0.0487263
0.044388
-0.527739
0.532077
-0.0401651
0.0363835
-0.621099
0.62488
-0.0321622
0.0280952
-0.734873
0.73894
-0.023629
0.0196413
-0.874043
0.878031
-0.0155079
0.0119933
-1.04339
1.04691
-0.00842796
0.0053659
-1.24866
1.25172
-0.00213348
-0.000864843
-1.49694
1.49994
0.00384294
-0.0070163
-1.49743
1.5006
0.00999351
-0.0134447
-1.2501
1.25355
0.0168464
-0.0208554
-1.04573
1.04974
0.0247381
-0.0291033
-0.877323
0.881689
0.0330889
-0.0372269
-0.739318
0.743456
0.0409346
-0.0450803
-0.62635
0.630496
0.0493534
-0.0546471
-0.534943
0.540236
0.0584046
-0.0592032
-0.457926
0.458725
0.0523993
-0.0320309
-0.336406
0.316037
0.00978421
-0.06851
0.0587258
-0.0531542
0.0491023
0.00405193
-0.033184
0.0436842
-0.35836
0.34786
-0.0474073
0.0468243
-0.459503
0.460086
-0.0438508
0.0405833
-0.536016
0.539284
-0.0368747
0.0335413
-0.628435
0.631769
-0.0299796
0.0268333
-0.742249
0.745395
-0.0234892
0.0203257
-0.881566
0.884729
-0.0167314
0.0133548
-1.05039
1.05376
-0.00962255
0.00618651
-1.25502
1.25845
-0.00236302
-0.00128433
-1.50332
1.50697
0.00490179
-0.00863837
-1.50414
1.50788
0.0119564
-0.0155299
-1.25717
1.26075
0.0187475
-0.0221632
-1.05351
1.05693
0.0251725
-0.0283656
-0.885298
0.888492
0.0313897
-0.0348296
-0.746949
0.750389
0.0380575
-0.0416551
-0.634516
0.638113
0.0448264
-0.0476922
-0.54447
0.547336
0.0481639
-0.0442852
-0.4569
0.453021
0.0335994
-0.0162505
-0.296678
0.279329
0.0041145
-0.0529089
0.0487944
-0.0459784
0.0434503
0.00252812
-0.0229467
0.0333238
-0.337212
0.326835
-0.0391147
0.0401063
-0.459793
0.458802
-0.0388948
0.036599
-0.541952
0.544248
-0.0339617
0.031403
-0.634759
0.637318
-0.0284022
0.0255509
-0.748457
0.751308
-0.0223254
0.0193367
-0.887726
0.890715
-0.0160252
0.0129206
-1.05693
1.06003
-0.00938073
0.0059804
-1.26186
1.26526
-0.00205894
-0.00175691
-1.51073
1.51455
0.00553484
-0.00934093
-1.51169
1.5155
0.012586
-0.0159183
-1.26422
1.26756
0.0188148
-0.0218914
-1.06009
1.06317
0.0246736
-0.0276921
-0.891638
0.894656
0.0303744
-0.0332075
-0.75358
0.756413
0.0356227
-0.0381124
-0.641124
0.643613
0.0402823
-0.041328
-0.549161
0.550207
0.0401654
-0.0341255
-0.447835
0.441795
0.0234774
-0.0102749
-0.264162
0.250959
0.00260481
-0.0456013
0.0429965
-0.0413497
0.0395598
0.00178991
-0.0168852
0.0261754
-0.316957
0.307667
-0.0328
0.0349465
-0.457211
0.455065
-0.0345329
0.0328573
-0.546246
0.547922
-0.0306622
0.0285629
-0.639611
0.64171
-0.0261472
0.0237765
-0.753917
0.756287
-0.0209586
0.0182108
-0.893564
0.896312
-0.0150292
0.012005
-1.06305
1.06607
-0.00855647
0.00525744
-1.26857
1.27187
-0.00143226
-0.00230888
-1.51832
1.52206
0.0060007
-0.00968082
-1.51925
1.52293
0.0127839
-0.0159706
-1.27082
1.27401
0.018731
-0.0216116
-1.06619
1.06907
0.0240903
-0.0266353
-0.897458
0.900003
0.028784
-0.0309829
-0.758868
0.761067
0.0329004
-0.0349079
-0.645816
0.647824
0.0364019
-0.0365917
-0.550776
0.550966
0.034184
-0.0271977
-0.435195
0.428209
0.017545
-0.0074126
-0.239439
0.229306
0.00188341
-0.0408115
0.0389281
-0.0380181
0.0366704
0.00134766
-0.0129154
0.0209152
-0.299028
0.291028
-0.0277048
0.0306508
-0.452491
0.449545
-0.0308774
0.0297713
-0.549345
0.550451
-0.0277891
0.0258809
-0.643744
0.645652
-0.0236916
0.0215711
-0.758508
0.760629
-0.0190841
0.0166296
-0.898852
0.901307
-0.0137205
0.0108761
-1.06896
1.0718
-0.00756019
0.00435933
-1.27509
1.27829
-0.000645504
-0.00296702
-1.52572
1.52933
0.0065187
-0.0100522
-1.52654
1.53007
0.0130103
-0.0160019
-1.27714
1.28013
0.0185179
-0.0210497
-1.07181
1.07434
0.0231641
-0.0253018
-0.902318
0.904456
0.0271353
-0.0290456
-0.763095
0.765005
0.0307247
-0.0324843
-0.649685
0.651445
0.0333281
-0.0327893
-0.5508
0.550261
0.0294717
-0.0221891
-0.42102
0.413737
0.0137255
-0.00572345
-0.220342
0.21234
0.00146137
-0.0372836
0.0358222
-0.035493
0.0344527
0.00104034
-0.0101092
0.016885
-0.283667
0.276891
-0.0234228
0.0268332
-0.446352
0.442941
-0.0276449
0.0269717
-0.551337
0.55201
-0.0252299
0.0234654
-0.647528
0.649292
-0.0214231
0.0194358
-0.762677
0.764665
-0.0170979
0.0148028
-0.903608
0.905903
-0.0121025
0.0094524
-1.07448
1.07713
-0.00633087
0.00328042
-1.28138
1.28443
0.000288056
-0.00375863
-1.53285
1.53632
0.00715644
-0.0105015
-1.53352
1.53686
0.013252
-0.0159725
-1.28301
1.28573
0.0182188
-0.0204554
-1.07673
1.07897
0.0223294
-0.0242305
-0.90648
0.908381
0.0258572
-0.0275504
-0.766794
0.768487
0.0290303
-0.0304631
-0.653058
0.654491
0.030805
-0.0295604
-0.549381
0.548136
0.0256393
-0.0184556
-0.406482
0.399298
0.0110996
-0.00459668
-0.205159
0.198656
0.0011786
-0.0345203
0.0333417
-0.0335386
0.0327259
0.000812677
-0.00802914
0.0137348
-0.270683
0.264977
-0.0197973
0.0234155
-0.439423
0.435804
-0.0247153
0.0242965
-0.552593
0.553011
-0.0228321
0.0211836
-0.651047
0.652695
-0.0192435
0.0173505
-0.766596
0.768489
-0.0151181
0.0129245
-0.908077
0.910271
-0.0103429
0.00781963
-1.07964
1.08217
-0.00486143
0.00196941
-1.28735
1.29024
0.00141845
-0.00471639
-1.53968
1.54298
0.00792461
-0.0110417
-1.54009
1.54321
0.0135677
-0.0160375
-1.28835
1.29082
0.0180675
-0.0200816
-1.08111
1.08313
0.0217582
-0.0234506
-0.910194
0.911886
0.0248953
-0.0263995
-0.770077
0.771581
0.0276927
-0.0287617
-0.655717
0.656786
0.0287448
-0.0268469
-0.546571
0.544673
0.0225515
-0.0156642
-0.39226
0.385372
0.00923967
-0.00381066
-0.192742
0.187313
0.000981073
-0.0322761
0.031295
-0.0320111
0.0313744
0.000636728
-0.00642557
0.0112164
-0.259759
0.254969
-0.0166962
0.0203252
-0.432186
0.428557
-0.0219608
0.0217774
-0.553354
0.553538
-0.0205568
0.0189755
-0.654356
0.655938
-0.0171007
0.015267
-0.77034
0.772174
-0.0131066
0.0109857
-0.912347
0.914468
-0.00849055
0.00605484
-1.08457
1.087
-0.00320761
0.000441803
-1.29301
1.29578
0.00277525
-0.00588358
-1.54615
1.54925
0.00888156
-0.0117681
-1.5462
1.54909
0.0140901
-0.0163438
-1.2932
1.29545
0.0181798
-0.0199848
-1.08506
1.08687
0.0214738
-0.0229706
-0.913502
0.914998
0.0242502
-0.0255827
-0.773002
0.774334
0.0267348
-0.027407
-0.657637
0.658309
0.0270339
-0.0246034
-0.542529
0.540098
0.0200946
-0.013577
-0.378682
0.372164
0.00790119
-0.0032524
-0.182315
0.177667
0.000841362
-0.0303966
0.0295553
-0.0308173
0.0303228
0.00049448
-0.00513539
0.00913677
-0.250602
0.2466
-0.0139875
0.017478
-0.425011
0.421521
-0.0193114
0.0193329
-0.553668
0.553647
-0.0183237
0.0167911
-0.65756
0.659093
-0.0149535
0.0131483
-0.773976
0.775781
-0.0110219
0.0089397
-0.916477
0.918559
-0.00649929
0.00412756
-1.08932
1.09169
-0.00136653
-0.00129774
-1.29843
1.30109
0.00437121
-0.00731113
-1.55224
1.55518
0.0101168
-0.0127892
-1.55186
1.55453
0.0149131
-0.0169496
-1.29763
1.29967
0.0185904
-0.0201892
-1.0886
1.0902
0.0215009
-0.022818
-0.916429
0.917746
0.0239454
-0.0251143
-0.775594
0.776763
0.0260801
-0.0263939
-0.658774
0.659088
0.0256516
-0.0227841
-0.537466
0.534599
0.0181704
-0.0120262
-0.365854
0.35971
0.00693726
-0.00285715
-0.173337
0.169257
0.000743949
-0.028775
0.028031
-0.0298957
0.0295217
0.000374044
-0.00405285
0.00735885
-0.242973
0.239667
-0.011566
0.0148058
-0.418176
0.414936
-0.0167093
0.0168987
-0.5536
0.553411
-0.0159863
0.0145409
-0.660657
0.662102
-0.0127144
0.0109084
-0.777563
0.779369
-0.00878351
0.00671235
-0.920531
0.922602
-0.0042981
0.00196534
-1.09394
1.09627
0.000727228
-0.00331232
-1.30365
1.30623
0.00626625
-0.0090556
-1.558
1.56079
0.0116822
-0.0141463
-1.55709
1.55955
0.0160734
-0.0178936
-1.30162
1.30344
0.0193394
-0.0207313
-1.09173
1.09312
0.0218643
-0.0230026
-0.919004
0.920143
0.0239809
-0.0249824
-0.777875
0.778876
0.0257005
-0.0257337
-0.659258
0.659291
0.0246047
-0.0213677
-0.53156
0.528323
0.016708
-0.0108963
-0.353762
0.34795
0.00625488
-0.00258395
-0.165415
0.161744
0.000678616
-0.0273328
0.0266541
-0.029207
0.0289401
0.000266914
-0.00310194
0.00577767
-0.236698
0.234022
-0.00933856
0.0122437
-0.411888
0.408983
-0.0141058
0.0143954
-0.553241
0.552951
-0.0135477
0.0121669
-0.663603
0.664984
-0.010337
0.00850819
-0.781158
0.782987
-0.00635568
0.00426473
-0.924562
0.926653
-0.00184062
-0.000480705
-1.09849
1.10081
0.00315073
-0.00568
-1.30871
1.31124
0.00853497
-0.0111916
-1.56346
1.56612
0.0136502
-0.0159096
-1.5619
1.56415
0.0176408
-0.019242
-1.30518
1.30678
0.0204902
-0.021671
-1.09445
1.09563
0.0226185
-0.0235725
-0.921226
0.92218
0.0243998
-0.025227
-0.779809
0.780636
0.0256884
-0.0254584
-0.659171
0.658941
0.0239259
-0.0203442
-0.52494
0.521359
0.0156535
-0.0101081
-0.342312
0.336767
0.0057936
-0.00240632
-0.15825
0.154863
0.000638655
-0.0260101
0.0253714
-0.0287294
0.0285638
0.000165578
-0.00221946
0.00430142
-0.231661
0.229579
-0.00720925
0.00970765
-0.406309
0.403811
-0.0114193
0.0117309
-0.552735
0.552423
-0.0109167
0.00956527
-0.666454
0.667806
-0.00770855
0.00583071
-0.784802
0.78668
-0.00361876
0.00147809
-0.928632
0.930773
0.000985176
-0.00333328
-1.10303
1.10538
0.00599778
-0.00849464
-1.31367
1.31616
0.011271
-0.0138061
-1.56866
1.57119
0.0161008
-0.0181561
-1.56629
1.56835
0.0196872
-0.0210608
-1.3083
1.30967
0.0221017
-0.0230581
-1.09676
1.09772
0.0238038
-0.0245475
-0.923082
0.923826
0.025199
-0.0258605
-0.781384
0.782045
0.0260243
-0.0254734
-0.65849
0.65794
0.0235493
-0.0196605
-0.51767
0.513782
0.01494
-0.00959146
-0.331372
0.326023
0.00550399
-0.00230242
-0.151606
0.148404
0.000618245
-0.0247592
0.024141
-0.028455
0.0283918
6.32502e-05
-0.00135795
0.00285866
-0.227803
0.226303
-0.00509623
0.00712128
-0.401582
0.399557
-0.00857691
0.00882715
-0.552245
0.551994
-0.00799861
0.00663963
-0.669284
0.670643
-0.00471789
0.00276209
-0.788547
0.790502
-0.000459045
-0.00175956
-0.932794
0.935012
0.00429585
-0.00669132
-1.10761
1.11
0.00938259
-0.0118702
-1.31856
1.32104
0.0145852
-0.0170037
-1.5736
1.57602
0.0191301
-0.020968
-1.57026
1.5721
0.0222834
-0.0234078
-1.31095
1.31208
0.0242185
-0.0249237
-1.09861
1.09932
0.0254411
-0.0259544
-0.924532
0.925045
0.0264294
-0.0269093
-0.782579
0.783059
0.0267847
-0.025865
-0.657119
0.656199
0.0235419
-0.0193354
-0.509806
0.505599
0.0145523
-0.00931751
-0.320798
0.315564
0.0053648
-0.00226369
-0.145297
0.142196
0.000615611
-0.0235434
0.0229277
-0.0283869
0.028434
-4.70084e-05
-0.000469985
0.00138053
-0.22511
0.224199
-0.00291472
0.00439843
-0.397834
0.396351
-0.00549703
0.00560631
-0.551941
0.551832
-0.00471469
0.00330325
-0.672174
0.673585
-0.00129496
-0.000769248
-0.792446
0.79451
0.00320219
-0.00553375
-0.937111
0.939443
0.00818478
-0.0106652
-1.11229
1.11477
0.0134188
-0.0159236
-1.32343
1.32593
0.0186004
-0.0209162
-1.57831
1.58063
0.0228762
-0.0244892
-1.57379
1.5754
0.0255742
-0.0264334
-1.3131
1.31396
0.0269953
-0.0274255
-1.09997
1.1004
0.027692
-0.027948
-0.92553
0.925786
0.0282171
-0.0284181
-0.783273
0.783474
0.028044
-0.0266656
-0.654976
0.653597
0.0239086
-0.0193614
-0.501336
0.496789
0.0144704
-0.00926385
-0.310428
0.305221
0.00536023
-0.00228309
-0.139158
0.136081
0.000628754
-0.0223279
0.0216991
-0.0285373
0.0287002
-0.000162925
0.000470172
-0.00018871
-0.22361
0.223328
-0.000591429
0.00145545
-0.395203
0.394339
-0.00208353
0.00197159
-0.551994
0.552106
-0.000958502
-0.000570035
-0.67522
0.676748
0.00271172
-0.00492701
-0.796565
0.79878
0.00753646
-0.0100246
-0.941656
0.944144
0.012832
-0.0154324
-1.11714
1.11974
0.0182815
-0.0208288
-1.32833
1.33088
0.0234847
-0.0257015
-1.58282
1.58503
0.0274838
-0.0288456
-1.57685
1.57821
0.0296722
-0.0302214
-1.3147
1.31524
0.0304988
-0.0306251
-1.10077
1.1009
0.0306236
-0.0306036
-0.926004
0.925984
0.0306377
-0.0305066
-0.783318
0.783187
0.0298072
-0.0278974
-0.651947
0.650037
0.0246749
-0.0197512
-0.492209
0.487285
0.0146923
-0.00942208
-0.300085
0.294814
0.00548349
-0.00235749
-0.133039
0.129913
0.000656792
-0.0210815
0.0204247
-0.0289448
0.0292536
-0.000308801
0.00150129
-0.00187335
-0.223399
0.223771
0.00195502
-0.00182697
-0.393818
0.39369
0.00180482
-0.00225731
-0.552622
0.553075
0.00347186
-0.00516501
-0.678557
0.680251
0.00750027
-0.00991251
-0.800983
0.803395
0.0127465
-0.015433
-0.946507
0.949193
0.0184417
-0.0212016
-1.12224
1.125
0.024183
-0.0267951
-1.33332
1.33593
0.02944
-0.0315477
-1.5871
1.58921
0.0331293
-0.0341986
-1.57937
1.58044
0.0347393
-0.0349371
-1.31564
1.31584
0.0348912
-0.0346748
-1.10092
1.1007
0.0343647
-0.034025
-0.925883
0.925543
0.0338064
-0.0332561
-0.78261
0.782059
0.032154
-0.0296423
-0.647921
0.645409
0.0259024
-0.0205375
-0.482344
0.476979
0.0152309
-0.00979458
-0.289583
0.284147
0.00573415
-0.00248629
-0.126794
0.123546
0.000699521
-0.019775
0.0190755
-0.029633
0.0301165
-0.000483592
0.00279681
-0.00393999
-0.224544
0.225687
0.00491232
-0.00559241
-0.393913
0.394593
0.00628342
-0.00717486
-0.55406
0.554951
0.0086646
-0.0105854
-0.682288
0.684209
0.0131896
-0.0158639
-0.805792
0.808466
0.0189929
-0.0219429
-0.951756
0.954706
0.0252222
-0.0281967
-1.12766
1.13063
0.0313584
-0.0340624
-1.33844
1.34114
0.0367017
-0.038686
-1.59115
1.59313
0.0400325
-0.0407674
-1.58128
1.58201
0.0409586
-0.0407698
-1.31585
1.31566
0.0403589
-0.0397527
-1.10032
1.09971
0.0390924
-0.0383825
-0.925057
0.924347
0.0378385
-0.0367866
-0.780993
0.779941
0.0351751
-0.0319819
-0.642757
0.639564
0.0276446
-0.0217503
-0.471602
0.465708
0.0161017
-0.0103877
-0.278718
0.273004
0.00611414
-0.00266934
-0.120279
0.116834
0.000756508
-0.0183793
0.0176227
-0.0306751
0.0313772
-0.000702109
0.00429823
-0.00633123
-0.22726
0.229293
0.00838902
-0.00997709
-0.395693
0.397281
0.011499
-0.0129583
-0.556541
0.558
0.014861
-0.0171025
-0.686547
0.688789
0.0200716
-0.0230904
-0.811122
0.814141
0.026599
-0.029882
-0.95754
0.960823
0.0334953
-0.0367291
-1.13351
1.13674
0.0401041
-0.0429166
-1.34373
1.34654
0.0455536
-0.0473951
-1.59493
1.59678
0.0484668
-0.0488096
-1.58248
1.58282
0.0485747
-0.0479358
-1.31522
1.31458
0.0470993
-0.0460423
-1.09885
1.09779
0.0449886
-0.0438566
-0.92341
0.922278
0.0428442
-0.0412793
-0.778344
0.776779
0.039024
-0.0350484
-0.636281
0.632305
0.0300149
-0.0234696
-0.459802
0.453257
0.0173535
-0.0112251
-0.267258
0.261129
0.00663307
-0.00290874
-0.11334
0.109616
0.000827804
-0.0168663
0.0160385
-0.0321535
0.0331424
-0.000988889
0.00618806
-0.00931616
-0.231775
0.234904
0.0126179
-0.0152611
-0.399426
0.402069
0.0177483
-0.0199038
-0.560347
0.562503
0.0223755
-0.0250703
-0.691541
0.694236
0.0285397
-0.0320091
-0.817141
0.820611
0.0359934
-0.0396836
-0.963997
0.967687
0.0436995
-0.0472402
-1.13988
1.14342
0.0508567
-0.0537747
-1.34922
1.35214
0.0563661
-0.0579898
-1.59839
1.60001
0.0586931
-0.0585433
-1.58285
1.5827
0.0578198
-0.0566244
-1.31359
1.3124
0.055295
-0.0537108
-1.09637
1.09478
0.0522041
-0.0505806
-0.920818
0.919195
0.0490402
-0.0468633
-0.774625
0.772448
0.0438692
-0.0389775
-0.628267
0.623375
0.0331076
-0.0257461
-0.446695
0.439334
0.0190086
-0.0123086
-0.254928
0.248228
0.00728377
-0.00319643
-0.105815
0.101728
0.000909431
-0.0152097
0.0143002
-0.0341991
0.0355829
-0.00138381
0.00867371
-0.0131253
-0.238456
0.242907
0.0178972
-0.0217594
-0.405454
0.409316
0.0253694
-0.028366
-0.565795
0.568792
0.0315814
-0.0348855
-0.697549
0.700854
0.0390106
-0.0430525
-0.824061
0.828103
0.047629
-0.0518169
-0.971286
0.975474
0.0563115
-0.0601987
-1.14686
1.15075
0.0640621
-0.0670529
-1.35489
1.35788
0.0695283
-0.070842
-1.60134
1.60266
0.0710731
-0.0703106
-1.58217
1.58141
0.0689944
-0.0671252
-1.31074
1.30887
0.065217
-0.0630361
-1.09272
1.09053
0.0610062
-0.0588472
-0.917137
0.914978
0.0566762
-0.0537873
-0.769634
0.766745
0.049912
-0.0439253
-0.618435
0.612448
0.0370422
-0.0286599
-0.431953
0.423571
0.021111
-0.0136507
-0.241411
0.233951
0.00806193
-0.00352343
-0.0975387
0.0930002
0.000996326
-0.0133914
0.0123951
-0.0370098
0.0389591
-0.00194925
0.0120527
-0.0181877
-0.247743
0.253878
0.0247293
-0.0300107
-0.41423
0.419512
0.0349333
-0.0389491
-0.57325
0.577266
0.0431124
-0.0472247
-0.7049
0.709013
0.0522102
-0.0569811
-0.832133
0.836904
0.0622905
-0.0670666
-0.979589
0.984366
0.0720875
-0.0763109
-1.15452
1.15874
0.0803534
-0.0833116
-1.36064
1.36359
0.0855136
-0.086349
-1.60358
1.60442
0.0859354
-0.084397
-1.58016
1.57862
0.082354
-0.0797064
-1.30647
1.30382
0.0771308
-0.0742837
-1.08773
1.08488
0.0716965
-0.0689182
-0.912244
0.909466
0.0660475
-0.062291
-0.763161
0.759404
0.05737
-0.0500894
-0.606413
0.599133
0.0419802
-0.0323157
-0.415167
0.405502
0.0237128
-0.0152607
-0.226327
0.217875
0.00895786
-0.00387846
-0.0883377
0.0832583
0.00108319
-0.0114044
0.0103212
-0.0409013
0.0437162
-0.00281487
0.01694
-0.0252842
-0.260334
0.268678
0.0339992
-0.040982
-0.426399
0.433382
0.0474817
-0.0527518
-0.583181
0.588451
0.0581637
-0.0633762
-0.714015
0.719228
0.069458
-0.0750953
-0.841664
0.847302
0.0812068
-0.0865599
-0.989057
0.99441
0.0920164
-0.0964347
-1.16276
1.16718
0.100448
-0.103148
-1.36619
1.36889
0.1048
-0.104886
-1.6047
1.60479
0.103579
-0.101043
-1.57647
1.57394
0.0981113
-0.0945443
-1.30054
1.29698
0.0912061
-0.0876132
-1.08127
1.07767
0.084418
-0.0809432
-0.905908
0.902433
0.0773736
-0.0725934
-0.754813
0.750032
0.0664496
-0.0576168
-0.591768
0.582935
0.0480099
-0.03674
-0.395815
0.384545
0.0267918
-0.017087
-0.209234
0.199529
0.00992263
-0.00423404
-0.0780521
0.0723635
0.00116103
-0.00925302
0.00809199
-0.0464303
0.050705
-0.00427472
0.0245153
-0.0358515
-0.27735
0.288687
0.047366
-0.0565986
-0.442975
0.452208
0.0650517
-0.0717938
-0.596198
0.60294
0.0787593
-0.0854375
-0.72535
0.732028
0.0926954
-0.0991375
-0.85288
0.859322
0.105889
-0.1116
-0.999571
1.00528
0.117188
-0.121482
-1.17122
1.17552
0.125084
-0.127158
-1.37103
1.3731
0.127851
-0.126826
-1.60413
1.60311
0.124309
-0.120502
-1.57064
1.56683
0.11649
-0.111834
-1.29268
1.28803
0.107614
-0.103206
-1.07316
1.06875
0.0993854
-0.095149
-0.897941
0.893705
0.0908469
-0.0848432
-0.744217
0.738214
0.0772115
-0.0664861
-0.57392
0.563195
0.0550526
-0.0418088
-0.373254
0.36001
0.0301985
-0.0189911
-0.189678
0.178471
0.0108547
-0.0045409
-0.0665971
0.0602833
0.00121471
-0.00696221
0.00574749
-0.0546515
0.0619864
-0.00733491
0.0378878
-0.0536202
-0.300895
0.316628
0.0690588
-0.0813372
-0.465526
0.477804
0.0918375
-0.0999658
-0.612753
0.620881
0.108491
-0.116419
-0.739265
0.747194
0.124574
-0.131411
-0.865514
0.872352
0.138247
-0.143753
-1.01055
1.01605
0.148842
-0.152414
-1.17914
1.18271
0.154969
-0.155829
-1.37431
1.37517
0.154991
-0.15238
-1.60107
1.59846
0.148279
-0.14292
-1.56211
1.55675
0.137626
-0.131729
-1.28258
1.27668
0.126499
-0.12115
-1.06326
1.05791
0.116619
-0.111643
-0.888153
0.883177
0.106402
-0.0988309
-0.730935
0.723364
0.0893658
-0.0763154
-0.552073
0.539023
0.0626563
-0.0471115
-0.346717
0.331172
0.0336167
-0.0207884
-0.16732
0.154491
0.0116507
-0.0047556
-0.0540642
0.0471691
0.00122501
-0.00458916
0.00336415
-0.0688467
0.0728938
-0.00404706
0.0288566
-0.0424916
-0.33492
0.348556
0.0561913
-0.067369
-0.495366
0.506544
0.077333
-0.0866793
-0.632479
0.641826
0.0971297
-0.106506
-0.754652
0.764028
0.116834
-0.125961
-0.878311
0.887438
0.135582
-0.144014
-1.02063
1.02906
0.152627
-0.159765
-1.18517
1.19231
0.166481
-0.171363
-1.37481
1.37969
0.174941
-0.176179
-1.59456
1.5958
0.175009
-0.171946
-1.55025
1.54719
0.167891
-0.162619
-1.26987
1.2646
0.157668
-0.151847
-1.05137
1.04555
0.146862
-0.141151
-0.876336
0.870625
0.134681
-0.124209
-0.714113
0.703641
0.110623
-0.0924222
-0.525238
0.507037
0.0740302
-0.0536057
-0.315335
0.29491
0.0367809
-0.021715
-0.142128
0.127062
0.0116128
-0.00451193
-0.0408649
0.0337641
0.00108882
-0.0022382
0.00114938
-0.0801567
0.0781533
0.00200345
0.0071975
-0.0161547
-0.364989
0.373946
0.0265648
-0.0344981
-0.522418
0.530351
0.0424538
-0.0504035
-0.653534
0.661484
0.0600232
-0.0688536
-0.773036
0.781866
0.0781634
-0.0866063
-0.896045
0.904488
0.0954702
-0.102894
-1.03721
1.04463
0.11064
-0.116678
-1.19923
1.20527
0.12226
-0.125958
-1.38419
1.38789
0.127934
-0.127717
-1.59605
1.59583
0.125074
-0.120491
-1.54312
1.53853
0.114911
-0.108052
-1.2586
1.25174
0.10164
-0.0945199
-1.03856
1.03144
0.0879994
-0.0806473
-0.861133
0.853781
0.0734316
-0.0642239
-0.689176
0.679969
0.0540635
-0.0417274
-0.4871
0.474763
0.0305416
-0.0198675
-0.274374
0.2637
0.0123629
-0.00666762
-0.112691
0.106996
0.00335586
-0.00129446
-0.027064
0.0250026
0.000366414
-5.21319e-05
-0.000314282
-0.081508
0.0785968
0.00291118
-0.00182888
-0.00331597
-0.385289
0.390434
0.0103586
-0.0162327
-0.542376
0.54825
0.022272
-0.0291718
-0.671467
0.678366
0.037524
-0.0452099
-0.789793
0.797478
0.053542
-0.0609427
-0.912216
0.919617
0.0684655
-0.0751167
-1.05189
1.05854
0.0818387
-0.0871496
-1.21086
1.21617
0.0915861
-0.0942424
-1.39088
1.39353
0.0954159
-0.0942958
-1.59482
1.5937
0.0908176
-0.0854494
-1.53322
1.52785
0.0792812
-0.0719726
-1.24458
1.23727
0.064695
-0.0567328
-1.02332
1.01535
0.0493
-0.0410335
-0.844192
0.835926
0.0337651
-0.025872
-0.666959
0.659066
0.0182188
-0.0101262
-0.460558
0.452465
0.00451028
-0.000800244
-0.252206
0.248496
-0.000792832
0.00117892
-0.100548
0.100162
-0.000901848
0.000413818
-0.0225144
0.0230024
-0.000109042
0.000722499
-0.000613458
-0.0802513
0.0775186
0.00273272
-0.00532085
0.00285482
-0.39883
0.401296
0.00163831
-0.00614788
-0.557299
0.561809
0.0113532
-0.017183
-0.686312
0.692142
0.024376
-0.0310126
-0.804534
0.81117
0.0381817
-0.0445673
-0.926514
0.9329
0.0514329
-0.0571069
-1.06478
1.07045
0.0630251
-0.0672522
-1.22108
1.22531
0.0710484
-0.0731987
-1.39597
1.39812
0.0737411
-0.07194
-1.59215
1.59035
0.0682456
-0.0627169
-1.52193
1.5164
0.0564101
-0.0486011
-1.22966
1.22185
0.0411771
-0.0329796
-1.00666
0.998465
0.0251921
-0.0170275
-0.826054
0.81789
0.00971478
-0.00277987
-0.647628
0.640694
-0.00287524
0.0074859
-0.4428
0.43819
-0.00928726
0.00899512
-0.24225
0.242542
-0.00761922
0.00538326
-0.098581
0.100817
-0.00339394
0.00148471
-0.0228946
0.0248038
-0.000386742
0.000652951
-0.000266209
-0.0787941
0.0764022
0.00239188
-0.00632827
0.00541474
-0.40789
0.408803
-0.00211455
-0.00116261
-0.569397
0.572674
0.0054884
-0.0108278
-0.698828
0.704167
0.0169146
-0.0227852
-0.817107
0.822978
0.0290442
-0.0346356
-0.938862
0.944453
0.040577
-0.0456864
-1.07602
1.08113
0.0507601
-0.0547194
-1.22943
1.23339
0.0580233
-0.0598135
-1.39995
1.40174
0.0600565
-0.0580535
-1.58839
1.58638
0.0542283
-0.0484339
-1.51017
1.50437
0.0421286
-0.0345399
-1.21395
1.20637
0.0272759
-0.0191942
-0.989818
0.981736
0.0118792
-0.00415166
-0.80861
0.800883
-0.00239163
0.00826367
-0.630632
0.62476
-0.012499
0.0153711
-0.431061
0.428188
-0.0156218
0.0135623
-0.239535
0.241595
-0.0108615
0.00760764
-0.101816
0.10507
-0.00474231
0.00209127
-0.0261298
0.0287808
-0.000563472
-9.57484e-05
0.00065922
-0.0774866
0.0754545
0.00203212
-0.00613234
0.0056817
-0.414165
0.414616
-0.00372098
0.00106084
-0.578781
0.581441
0.00318291
-0.00778168
-0.709516
0.714115
0.0130604
-0.0181972
-0.828055
0.833191
0.0238128
-0.0288649
-0.949725
0.954778
0.0343741
-0.0389282
-1.08599
1.09055
0.0435916
-0.0472501
-1.2371
1.24076
0.0502532
-0.0518504
-1.40331
1.4049
0.0519525
-0.0502861
-1.58431
1.58264
0.0465223
-0.0411172
-1.49818
1.49278
0.0351471
-0.02805
-1.19871
1.19161
0.0215727
-0.0140615
-0.973666
0.966155
0.00727486
-0.000122601
-0.792604
0.785452
-0.00593727
0.01152
-0.615981
0.610399
-0.0151022
0.0174257
-0.422656
0.420332
-0.017049
0.0145679
-0.240258
0.242739
-0.0116409
0.00811435
-0.107131
0.110658
-0.00505374
0.00229494
-0.0306655
0.0334243
-0.000669445
-0.00110958
0.00177903
-0.0765348
0.0749656
0.00156923
-0.0052076
0.00506145
-0.418899
0.419045
-0.0034613
0.00142527
-0.587011
0.589047
0.00256552
-0.00674583
-0.71883
0.72301
0.0117838
-0.0162483
-0.837925
0.842389
0.0212356
-0.0257757
-0.959826
0.964366
0.0310828
-0.0353105
-1.09517
1.0994
0.0395674
-0.0431401
-1.24429
1.24786
0.0464196
-0.0479969
-1.40657
1.40815
0.0483229
-0.0468286
-1.58066
1.57917
0.0437887
-0.0387853
-1.48734
1.48234
0.0336958
-0.0276253
-1.18465
1.17858
0.0218077
-0.0152466
-0.958899
0.952338
0.00890989
-0.00186499
-0.777629
0.770584
-0.00396842
0.00965573
-0.602271
0.596583
-0.0132358
0.0151549
-0.415611
0.413692
-0.0150586
0.0131315
-0.242044
0.243971
-0.0105198
0.00733243
-0.112721
0.115908
-0.00458821
0.00212281
-0.0352552
0.0377206
-0.000645157
-0.00221197
0.00285713
-0.076097
0.0748769
0.00122011
-0.00411653
0.00407906
-0.422721
0.422759
-0.00264346
0.000712928
-0.594224
0.596154
0.00315802
-0.00692908
-0.727243
0.731014
0.011282
-0.0156158
-0.846791
0.851125
0.020273
-0.0249991
-0.968742
0.973468
0.0296548
-0.0337744
-1.10376
1.10788
0.0382489
-0.0416751
-1.25136
1.25479
0.0446021
-0.0467183
-1.40969
1.41181
0.0474259
-0.0465073
-1.57785
1.57694
0.0440436
-0.0401424
-1.4778
1.4739
0.0358824
-0.0306456
-1.17252
1.16728
0.0255407
-0.0194497
-0.945741
0.93965
0.013401
-0.00667582
-0.763139
0.756414
0.000540323
0.00492198
-0.588904
0.583442
-0.00835236
0.0103466
-0.409256
0.407262
-0.0106667
0.00939675
-0.243236
0.244505
-0.00761008
0.00535668
-0.117258
0.119511
-0.00339571
0.00159255
-0.0390726
0.0408758
-0.000501265
-0.00318263
0.00368389
-0.076185
0.0751753
0.00100968
-0.00285129
0.00256791
-0.426191
0.426474
-0.00130155
-0.000713262
-0.600839
0.602854
0.00427632
-0.0079282
-0.735116
0.738768
0.01212
-0.0160758
-0.855243
0.859199
0.0208845
-0.0248741
-0.97765
0.98164
0.0295553
-0.0335553
-1.11218
1.11618
0.0379857
-0.041674
-1.25823
1.26192
0.044977
-0.0469993
-1.41375
1.41577
0.0482456
-0.0480069
-1.57609
1.57586
0.0465329
-0.043334
-1.47013
1.46693
0.0397984
-0.0351491
-1.16231
1.15766
0.0304495
-0.0245385
-0.933283
0.927372
0.018727
-0.0120311
-0.749069
0.742373
0.00611352
-0.000573477
-0.576427
0.570887
-0.00299558
0.00489767
-0.402796
0.400894
-0.00560282
0.00518448
-0.24317
0.243588
-0.00433707
0.00306236
-0.119983
0.121258
-0.00195847
0.000966279
-0.0415071
0.0424993
-0.000319729
-0.00384258
0.0041623
-0.0765515
0.0758595
0.000692062
-0.00173364
0.00105089
-0.429788
0.430471
-1.87223e-05
-0.00233856
-0.606665
0.609022
0.00555802
-0.00908926
-0.742487
0.746018
0.0131182
-0.0172193
-0.863013
0.867114
0.0214484
-0.0256309
-0.985857
0.990039
0.0303166
-0.0341517
-1.12063
1.12446
0.0387171
-0.0424088
-1.26544
1.26913
0.0458395
-0.0484805
-1.41825
1.42089
0.0503742
-0.0506282
-1.57579
1.57604
0.0496227
-0.0473062
-1.46406
1.46174
0.044365
-0.0400156
-1.15292
1.14857
0.0354156
-0.0298484
-0.921251
0.915684
0.0238606
-0.0175833
-0.735144
0.728867
0.0120047
-0.00668973
-0.564568
0.559253
0.00317663
-0.000712882
-0.396269
0.393805
-0.00041611
0.000909892
-0.24177
0.241276
-0.000937238
0.000763256
-0.120776
0.12095
-0.000592796
0.000362814
-0.0424364
0.0426663
-0.000152368
-0.00415686
0.00430923
-0.0773255
0.0767921
0.000533439
-0.000803718
0.000243785
-0.433615
0.434175
0.00161342
-0.00371928
-0.6128
0.614906
0.00707716
-0.0104959
-0.749375
0.752793
0.0143816
-0.0181033
-0.870889
0.874611
0.0224797
-0.0263749
-0.994243
0.998138
0.0310371
-0.0353245
-1.12876
1.13305
0.0395582
-0.043602
-1.27289
1.27693
0.0474941
-0.050295
-1.42348
1.42628
0.0526673
-0.0538061
-1.5766
1.57774
0.0533153
-0.0516052
-1.45935
1.45764
0.0487694
-0.0446951
-1.14419
1.14012
0.040335
-0.0348302
-0.909599
0.904094
0.029264
-0.0233042
-0.721961
0.716002
0.0181027
-0.0129914
-0.553208
0.548097
0.00932536
-0.00647525
-0.389323
0.386473
0.00451035
-0.00310271
-0.238652
0.237245
0.00208081
-0.00117404
-0.11951
0.118603
0.000517236
-7.48211e-05
-0.0419289
0.0414865
-4.88207e-05
-0.00411033
0.00415915
-0.0783586
0.0780139
0.000344629
0.000209674
-0.00107332
-0.437509
0.438373
0.00273803
-0.00514612
-0.618488
0.620896
0.00844562
-0.0117193
-0.756049
0.759323
0.015694
-0.0192783
-0.878314
0.881898
0.0235151
-0.0275455
-1.00252
1.00655
0.0321232
-0.0363815
-1.1372
1.14146
0.0408397
-0.0449197
-1.28091
1.28499
0.04902
-0.0525985
-1.42939
1.43297
0.0554592
-0.0569103
-1.57885
1.58031
0.0570561
-0.0555316
-1.45579
1.45427
0.0530766
-0.0493355
-1.13589
1.13215
0.0449259
-0.039648
-0.898245
0.892967
0.0344098
-0.028698
-0.709618
0.703907
0.0238824
-0.0188653