/*--------------------------------*- C++ -*----------------------------------*\
| =========                 |                                                 |
| \\      /  F ield         | OpenFOAM: The Open Source CFD Toolbox           |
|  \\    /   O peration     | Version:  2306                                  |
|   \\  /    A nd           | Website:  www.openfoam.com                      |
|    \\/     M anipulation  |                                                 |
\*---------------------------------------------------------------------------*/
FoamFile
{
    version     2.0;
    format      ascii;
    arch        "LSB;label=32;scalar=64";
    class       volScalarField;
    location    "16";
    object      p;
}
// * * * * * * * * * * * * * * * * * * * * * * * * * * * * * * * * * * * * * //

dimensions      [0 2 -2 0 0 0 0];

internalField   nonuniform List<scalar> 
8800
(
0.406752
0.358715
0.320359
0.291744
0.271154
0.256438
0.245867
0.23838
0.233526
0.231377
0.232434
0.2364
0.242845
0.251992
0.264596
0.282069
0.306432
0.339985
0.382387
0.439497
0.239229
0.246447
0.254913
0.258366
0.256496
0.251025
0.244368
0.238262
0.233521
0.230602
0.230157
0.232439
0.236703
0.242464
0.249177
0.255645
0.259659
0.259065
0.252929
0.243902
0.215852
0.22206
0.226322
0.229759
0.23234
0.233226
0.232198
0.230087
0.228011
0.226963
0.227717
0.229869
0.232448
0.234416
0.234722
0.23301
0.230011
0.226246
0.221636
0.217837
0.210615
0.213344
0.216165
0.218591
0.220349
0.221772
0.222752
0.223011
0.222746
0.22258
0.223085
0.223924
0.224391
0.224048
0.223006
0.221585
0.219633
0.216956
0.214418
0.212886
0.205319
0.206768
0.20875
0.211033
0.212992
0.214448
0.215559
0.216454
0.217104
0.217575
0.217918
0.218005
0.217703
0.217041
0.21603
0.214497
0.212464
0.210281
0.208797
0.207989
0.20035
0.201271
0.20274
0.204632
0.206595
0.20839
0.209858
0.211019
0.211971
0.212705
0.213056
0.212958
0.212475
0.211586
0.210236
0.208538
0.206726
0.205064
0.204056
0.203552
0.195738
0.196381
0.197664
0.199419
0.201259
0.20313
0.204931
0.206449
0.207605
0.208443
0.208904
0.208845
0.208199
0.207018
0.20551
0.203904
0.202253
0.20077
0.199963
0.199636
0.191768
0.192168
0.19327
0.194869
0.196495
0.198044
0.199548
0.201067
0.202488
0.203626
0.204142
0.203982
0.20335
0.202463
0.201393
0.200101
0.19866
0.197362
0.196739
0.196565
0.189034
0.189257
0.190091
0.191434
0.192902
0.194416
0.19595
0.197393
0.19875
0.199945
0.200677
0.200805
0.200469
0.199728
0.198741
0.197648
0.196473
0.19549
0.195079
0.194999
0.187024
0.187161
0.18765
0.188506
0.189534
0.190684
0.191942
0.193373
0.194854
0.196247
0.197192
0.197526
0.1974
0.197036
0.196509
0.195876
0.195236
0.194732
0.194519
0.194466
0.184584
0.184682
0.184974
0.185479
0.186221
0.187131
0.188269
0.189594
0.191088
0.192653
0.193906
0.19461
0.194878
0.194869
0.194627
0.194428
0.194232
0.194055
0.193956
0.193911
0.181367
0.181441
0.18169
0.182146
0.182706
0.183573
0.184731
0.186166
0.187861
0.189718
0.191325
0.192351
0.19289
0.193108
0.193237
0.193267
0.193231
0.193161
0.193108
0.193071
0.177534
0.17758
0.177819
0.178289
0.178944
0.179763
0.180947
0.182472
0.184364
0.186565
0.188629
0.19011
0.19106
0.191649
0.191996
0.19219
0.192241
0.192224
0.192214
0.192191
0.173265
0.173295
0.173523
0.174033
0.174783
0.175761
0.177102
0.17885
0.181072
0.183749
0.186367
0.188348
0.189704
0.190607
0.191167
0.191478
0.19159
0.191628
0.191655
0.19164
0.168599
0.168626
0.16886
0.169404
0.170237
0.171401
0.172922
0.174964
0.17762
0.180919
0.184231
0.186818
0.188649
0.189876
0.190689
0.19119
0.191437
0.191567
0.19163
0.191616
0.163391
0.163419
0.163673
0.164257
0.165188
0.16651
0.168329
0.1708
0.174058
0.178153
0.182329
0.185651
0.188039
0.189692
0.190787
0.191481
0.191888
0.192118
0.19221
0.192194
0.157391
0.157421
0.157732
0.158379
0.159453
0.16101
0.163218
0.166257
0.170295
0.175407
0.180652
0.184833
0.187888
0.190032
0.191481
0.192425
0.193009
0.193339
0.193461
0.19344
0.150327
0.150361
0.150733
0.151553
0.152817
0.154714
0.157448
0.161227
0.166272
0.172673
0.179248
0.184525
0.188381
0.191083
0.192929
0.194152
0.194927
0.195363
0.195516
0.195487
0.141905
0.141954
0.14242
0.143407
0.145028
0.147415
0.150832
0.155581
0.161926
0.169957
0.178187
0.184783
0.18958
0.192954
0.195272
0.196818
0.197802
0.19835
0.19854
0.198504
0.131743
0.131811
0.132413
0.133677
0.135738
0.138786
0.143138
0.14918
0.157198
0.167271
0.177526
0.185701
0.191638
0.195822
0.198702
0.200632
0.201862
0.202544
0.20278
0.202732
0.11929
0.11938
0.120168
0.121831
0.124528
0.128485
0.134123
0.141865
0.152028
0.164651
0.177371
0.187447
0.194748
0.199897
0.203447
0.205836
0.207362
0.208201
0.20849
0.208431
0.103764
0.103885
0.104949
0.1072
0.11081
0.116055
0.12344
0.13344
0.146367
0.162156
0.177845
0.190178
0.199101
0.205403
0.209765
0.212714
0.214607
0.215634
0.215984
0.215909
0.084039
0.0842175
0.0857032
0.088842
0.0937976
0.100896
0.110725
0.123769
0.140235
0.159895
0.179097
0.194067
0.204892
0.212571
0.217919
0.221565
0.223924
0.225207
0.225627
0.225529
0.0582848
0.0585637
0.0607733
0.0653934
0.0724826
0.0823905
0.0957214
0.112836
0.133756
0.158048
0.181309
0.199289
0.212304
0.221606
0.228162
0.23269
0.235651
0.237266
0.237783
0.237652
0.0233777
0.0238989
0.0275996
0.0349797
0.0456975
0.0599949
0.0783239
0.100797
0.12719
0.156866
0.184672
0.205981
0.221452
0.232638
0.240663
0.246332
0.250111
0.252179
0.252812
0.252634
-0.0266537
-0.024969
-0.0174309
-0.00442347
0.0126001
0.0336368
0.0588549
0.0881004
0.120945
0.156629
0.189327
0.214183
0.232312
0.245616
0.2554
0.262538
0.267485
0.27028
0.271114
0.270865
-0.101343
-0.092044
-0.0749032
-0.0517754
-0.0252984
0.00470409
0.0383204
0.0753561
0.115368
0.157633
0.195698
0.224547
0.245801
0.261732
0.273855
0.28319
0.290086
0.294335
0.295802
0.295795
-0.180798
-0.160542
-0.133038
-0.0995318
-0.0633677
-0.024305
0.0177688
0.0627598
0.110345
0.159936
0.204417
0.238359
0.263759
0.283253
0.298561
0.310777
0.320407
0.327422
0.330178
0.330351
-0.244522
-0.221547
-0.185802
-0.144029
-0.0993232
-0.0518501
-0.00170725
0.0509563
0.10582
0.162337
0.212705
0.251095
0.279928
0.302202
0.319817
0.333947
0.345075
0.353153
0.355709
0.356132
-0.295945
-0.270757
-0.230311
-0.182587
-0.131331
-0.076983
-0.0198713
0.0396807
0.10121
0.164065
0.219643
0.261723
0.293118
0.317189
0.336045
0.351069
0.362824
0.371104
0.3741
0.374565
-0.337789
-0.311788
-0.267872
-0.215776
-0.159377
-0.0995158
-0.0365549
0.0289853
0.0964418
0.164978
0.22512
0.270185
0.303417
0.328594
0.348094
0.363464
0.375363
0.383591
0.386785
0.387228
-0.373375
-0.346946
-0.300586
-0.244872
-0.184315
-0.119826
-0.0518965
0.0188431
0.0915867
0.165235
0.229454
0.277146
0.311932
0.33796
0.357839
0.373259
0.385078
0.393206
0.39655
0.396985
-0.404665
-0.378034
-0.329782
-0.271157
-0.207099
-0.138626
-0.0663297
0.00906462
0.0866143
0.16504
0.233137
0.283271
0.319424
0.34613
0.366267
0.381696
0.393434
0.401419
0.404819
0.405246
-0.433124
-0.406323
-0.356518
-0.295456
-0.228374
-0.156426
-0.080247
-0.00063539
0.0813714
0.164306
0.236081
0.288595
0.326131
0.353571
0.374039
0.38956
0.401243
0.409093
0.412495
0.41293
-0.45959
-0.43262
-0.381557
-0.318314
-0.248639
-0.17365
-0.0940081
-0.0105577
0.0755785
0.162809
0.238327
0.293383
0.332457
0.360754
0.381641
0.397317
0.409014
0.416719
0.420062
0.420566
-0.484742
-0.457546
-0.405311
-0.340208
-0.268252
-0.190555
-0.107819
-0.0208842
0.069141
0.160621
0.23998
0.297756
0.338561
0.367889
0.38933
0.405259
0.417015
0.424646
0.427885
0.428395
-0.508844
-0.481405
-0.42802
-0.361432
-0.287397
-0.207299
-0.121788
-0.0316455
0.0620494
0.157658
0.240934
0.301681
0.344489
0.375082
0.397258
0.413567
0.425466
0.433056
0.436159
0.436616
-0.532238
-0.50442
-0.450214
-0.382121
-0.306246
-0.224015
-0.135993
-0.0429277
0.0541611
0.153764
0.241097
0.305106
0.350233
0.382364
0.405492
0.422332
0.434461
0.442056
0.445011
0.445371
-0.554952
-0.526775
-0.471855
-0.402358
-0.324865
-0.240745
-0.150497
-0.054807
0.045428
0.148892
0.240352
0.30791
0.355733
0.389719
0.41404
0.431583
0.444043
0.451669
0.454497
0.4547
-0.577048
-0.548473
-0.492936
-0.42218
-0.343274
-0.257501
-0.165294
-0.067256
0.0358576
0.142969
0.238558
0.309921
0.360829
0.397062
0.422858
0.441288
0.454176
0.461839
0.46454
0.464582
-0.598619
-0.569681
-0.513413
-0.441597
-0.361474
-0.274244
-0.180322
-0.0802224
0.0254561
0.135948
0.23559
0.310938
0.365298
0.404225
0.431864
0.451406
0.464822
0.472519
0.475047
0.474934
-0.619684
-0.590293
-0.53333
-0.460583
-0.379391
-0.290915
-0.195522
-0.0936557
0.0142704
0.127817
0.231336
0.310752
0.368895
0.411013
0.440965
0.461886
0.475882
0.483534
0.485789
0.485541
-0.640072
-0.610251
-0.552657
-0.4791
-0.396982
-0.307443
-0.210825
-0.107461
0.0023813
0.118611
0.225711
0.309153
0.371323
0.417151
0.450047
0.472751
0.487331
0.49473
0.496592
0.496195
-0.659749
-0.629541
-0.571367
-0.49709
-0.414186
-0.323763
-0.226125
-0.121543
-0.0101141
0.108387
0.218678
0.305954
0.372226
0.422214
0.45888
0.484146
0.499388
0.506
0.507104
0.506568
-0.678773
-0.6481
-0.589427
-0.514516
-0.430937
-0.339787
-0.24133
-0.135788
-0.0231035
0.0972391
0.21024
0.301033
0.371259
0.425625
0.466966
0.496196
0.512853
0.517818
0.517005
0.51628
-0.696989
-0.665939
-0.606783
-0.531315
-0.447179
-0.355437
-0.256347
-0.15008
-0.0364529
0.0853039
0.200457
0.294307
0.368155
0.426667
0.473319
0.508451
0.529025
0.53289
0.527665
0.52529
-0.714491
-0.683056
-0.623459
-0.547515
-0.462946
-0.370761
-0.271229
-0.164478
-0.050229
0.0725154
0.189223
0.285546
0.362624
0.424547
0.47631
0.519087
0.547611
0.556481
0.547527
0.530744
-0.731229
-0.699452
-0.639586
-0.563291
-0.478515
-0.386077
-0.286375
-0.179457
-0.0649755
0.058205
0.175828
0.273858
0.353853
0.418064
0.472742
0.522652
0.558662
0.567974
0.552765
0.533392
-0.747059
-0.715209
-0.655009
-0.578417
-0.493644
-0.401069
-0.301566
-0.194686
-0.0803555
0.0427059
0.160512
0.259102
0.341476
0.406902
0.45831
0.508047
0.540939
0.537559
0.469402
0.429263
-0.761589
-0.731391
-0.669316
-0.592322
-0.507668
-0.41527
-0.316532
-0.20993
-0.0961273
0.0262041
0.14335
0.241242
0.324837
0.391942
0.433408
0.464294
0.48133
0.438401
0.363369
0.315559
-0.808788
-0.74572
-0.682277
-0.606223
-0.521699
-0.429837
-0.331266
-0.225385
-0.112554
0.00838453
0.123944
0.22009
0.301763
0.374559
0.389058
0.394075
0.366889
0.302133
0.217622
0.170999
-0.774084
-0.758452
-0.700777
-0.626515
-0.542112
-0.450916
-0.35353
-0.248936
-0.138008
-0.0199164
0.0915984
0.183623
0.25692
0.321939
0.328504
0.211246
0.0980049
0.0195254
-0.0615195
-0.0155697
-0.802556
-0.774269
-0.716066
-0.641662
-0.557877
-0.46722
-0.369988
-0.266431
-0.157111
-0.0416046
0.0660657
0.153367
0.219265
0.253398
0.20238
0.0401755
-0.106439
-0.211944
-0.326312
-0.252983
-0.823701
-0.792684
-0.733512
-0.658797
-0.575293
-0.484945
-0.388148
-0.285797
-0.17839
-0.0660022
0.037126
0.118164
0.17447
0.178619
0.0602023
-0.149775
-0.330054
-0.47144
-0.639504
-0.565575
-0.843869
-0.811611
-0.751529
-0.676244
-0.592766
-0.502724
-0.406704
-0.305675
-0.200341
-0.0913904
0.00648744
0.0805364
0.123212
0.0890211
-0.0990076
-0.344623
-0.575328
-0.784842
-1.02176
-1.00066
-0.862965
-0.830711
-0.770036
-0.69428
-0.610809
-0.521142
-0.425993
-0.326379
-0.223328
-0.118167
-0.0261123
0.0405305
0.0660539
-0.0109301
-0.253442
-0.52788
-0.805502
-1.04763
-1.37597
-1.69732
-0.882019
-0.850121
-0.789238
-0.713235
-0.629777
-0.540454
-0.446108
-0.347913
-0.247214
-0.146003
-0.0599279
-0.00116982
0.00640316
-0.122031
-0.391894
-0.675729
-0.963388
-1.19051
-1.30729
-1.5179
-0.901655
-0.870132
-0.809368
-0.733353
-0.650033
-0.561137
-0.467678
-0.37104
-0.272985
-0.176129
-0.0965717
-0.0468055
-0.0629943
-0.248193
-0.516308
-0.787598
-1.0296
-1.17303
-1.20259
-1.23169
-0.922177
-0.890966
-0.830505
-0.754631
-0.671607
-0.583271
-0.490896
-0.396068
-0.301041
-0.209109
-0.136678
-0.0969924
-0.144056
-0.367356
-0.629435
-0.877153
-1.06708
-1.14177
-1.15971
-1.16329
-0.943731
-0.912694
-0.852641
-0.776987
-0.69435
-0.606749
-0.515644
-0.422886
-0.331264
-0.244877
-0.180028
-0.152792
-0.230192
-0.481355
-0.731603
-0.965933
-1.11538
-1.13601
-1.13799
-1.13809
-0.96619
-0.935344
-0.875591
-0.800323
-0.718151
-0.631422
-0.541761
-0.451317
-0.363405
-0.283209
-0.226301
-0.2131
-0.319469
-0.591931
-0.826114
-1.04314
-1.13736
-1.1361
-1.13007
-1.12702
-0.989303
-0.958713
-0.899181
-0.824381
-0.742817
-0.657068
-0.569014
-0.481098
-0.397129
-0.323628
-0.275265
-0.274927
-0.416673
-0.696746
-0.912606
-1.06973
-1.14168
-1.11967
-1.11211
-1.10918
-1.01244
-0.982468
-0.923242
-0.84889
-0.767996
-0.68336
-0.597015
-0.51181
-0.431929
-0.365423
-0.326451
-0.341499
-0.520499
-0.790049
-0.998791
-1.03476
-1.05941
-1.09571
-1.10281
-1.10278
-1.03506
-1.00547
-0.947351
-0.873427
-0.793207
-0.709816
-0.625239
-0.542805
-0.467115
-0.407536
-0.378859
-0.412277
-0.641004
-0.879028
-1.12873
-1.23742
-1.20773
-1.17032
-1.15793
-1.15654
-1.05665
-1.02775
-0.970555
-0.897351
-0.817941
-0.7357
-0.652975
-0.573196
-0.501649
-0.448404
-0.430425
-0.479282
-0.788176
-1.01181
-1.19827
-1.31566
-1.37752
-1.46709
-1.4516
-1.41841
-1.07611
-1.04828
-0.992129
-0.919766
-0.841318
-0.760303
-0.679279
-0.601815
-0.53403
-0.485981
-0.479493
-0.545195
-0.930616
-1.19834
-1.03131
-0.887313
-1.35459
-1.76183
-1.76365
-1.75051
-1.09233
-1.06599
-1.01127
-0.939802
-0.862266
-0.782492
-0.703078
-0.627502
-0.562231
-0.518556
-0.522871
-0.602303
-1.07771
-1.61129
-1.95008
-2.21864
-2.36693
-2.14563
-1.90379
-1.89864
-1.10417
-1.07971
-1.02676
-0.956311
-0.879686
-0.801134
-0.723071
-0.648807
-0.584135
-0.542422
-0.54994
-0.658177
-1.25494
-2.19208
-3.39896
-4.03468
-4.11158
-3.65548
-3.09104
-2.83124
-1.11021
-1.08816
-1.03738
-0.968007
-0.892393
-0.814978
-0.737992
-0.664325
-0.598082
-0.550955
-0.552082
-0.666177
-1.25429
-2.1377
-3.14912
-3.65459
-3.71739
-3.46716
-3.10379
-2.91372
-1.10975
-1.09036
-1.04184
-0.97371
-0.898985
-0.822808
-0.747005
-0.673398
-0.603078
-0.543217
-0.517895
-0.53183
-0.8467
-1.21003
-1.55305
-1.71905
-1.56884
-1.30078
-1.03767
-0.900827
-1.0999
-1.0833
-1.03805
-0.971554
-0.898097
-0.823647
-0.749526
-0.675743
-0.600352
-0.519583
-0.439157
-0.376958
-0.230096
-0.0462086
0.293109
0.672477
1.0254
1.31906
1.49898
1.5622
-1.07939
-1.06561
-1.02389
-0.959704
-0.888345
-0.816665
-0.745587
-0.673307
-0.593655
-0.49234
-0.363874
-0.217102
0.0610544
0.613747
1.23785
1.83753
2.31607
2.61125
2.75307
2.79205
-1.04606
-1.0351
-0.997263
-0.936216
-0.868771
-0.801898
-0.736727
-0.670833
-0.594803
-0.481781
-0.318291
-0.108053
0.142284
0.62928
1.26376
1.82848
2.24246
2.48177
2.59181
2.62253
-0.996999
-0.988595
-0.955536
-0.900457
-0.839226
-0.780213
-0.725576
-0.674731
-0.614636
-0.51177
-0.33027
-0.0943315
0.141735
0.474699
0.962279
1.38478
1.70458
1.89504
1.99171
2.02053
-0.930896
-0.924623
-0.898232
-0.852115
-0.80081
-0.753568
-0.715025
-0.688481
-0.671729
-0.636653
-0.506413
-0.246557
0.0294
0.253115
0.586719
0.902055
1.14903
1.30604
1.3908
1.41561
-0.853976
-0.848842
-0.829309
-0.794914
-0.756653
-0.724548
-0.707577
-0.720421
-0.789424
-0.942207
-1.01623
-0.746456
-0.365118
-0.106341
0.174532
0.432784
0.630679
0.751506
0.807238
0.815302
-0.76357
-0.761201
-0.749837
-0.728884
-0.706279
-0.691462
-0.698067
-0.7563
-0.940188
-1.34765
-1.70229
-1.38725
-0.868657
-0.542912
-0.20655
0.0617975
0.251645
0.363903
0.415996
0.428077
-0.671461
-0.67114
-0.665506
-0.65503
-0.645175
-0.644484
-0.668707
-0.757597
-1.01071
-1.56279
-2.05221
-1.70944
-1.17169
-0.786383
-0.4319
-0.170691
-0.0107593
0.0673237
0.0978173
0.101506
-0.575133
-0.575493
-0.573108
-0.568291
-0.565739
-0.572185
-0.602083
-0.692317
-0.933482
-1.44077
-1.85637
-1.6076
-1.17147
-0.783023
-0.474202
-0.277675
-0.180384
-0.139385
-0.123539
-0.121282
-0.469731
-0.47055
-0.469435
-0.46714
-0.46682
-0.473276
-0.496556
-0.562478
-0.732196
-1.07437
-1.32721
-1.16144
-0.8474
-0.557786
-0.363638
-0.267854
-0.231452
-0.21939
-0.214836
-0.213617
-0.358286
-0.359076
-0.358773
-0.357579
-0.357225
-0.360096
-0.371505
-0.404812
-0.489428
-0.653786
-0.754808
-0.621649
-0.422563
-0.279942
-0.21207
-0.196014
-0.197337
-0.201352
-0.202752
-0.202612
-0.251634
-0.252279
-0.252606
-0.252092
-0.251245
-0.25052
-0.251746
-0.259331
-0.281516
-0.318561
-0.301237
-0.250004
-0.141916
-0.101362
-0.101075
-0.114501
-0.127485
-0.135972
-0.139502
-0.140224
-0.159416
-0.159887
-0.160704
-0.160908
-0.160067
-0.157586
-0.153305
-0.147194
-0.138897
-0.12279
-0.0803252
-0.0424548
-0.0102059
-0.00942093
-0.0273681
-0.0454624
-0.0589154
-0.0670718
-0.0707958
-0.0718759
-0.0871128
-0.0874459
-0.0884751
-0.0891619
-0.0886407
-0.086001
-0.0803065
-0.0699786
-0.0527365
-0.0251222
0.0110165
0.0316657
0.038004
0.0308819
0.0152545
0.00101869
-0.00930503
-0.0155618
-0.0185796
-0.0196016
-0.0348078
-0.0350386
-0.0360814
-0.0370857
-0.0370233
-0.0349439
-0.0298493
-0.0200665
-0.00359158
0.0207474
0.0454407
0.057206
0.0562304
0.0488223
0.037974
0.0281596
0.0208916
0.0163942
0.0141832
0.0133877
0.000472974
0.000308019
-0.000628397
-0.00177709
-0.00218315
-0.000941255
0.00289823
0.0105953
0.0233762
0.0412612
0.0570216
0.0635888
0.0616986
0.0559154
0.0487038
0.0420881
0.0369684
0.0337239
0.0321422
0.0315646
0.022701
0.0225754
0.0217891
0.0206593
0.0199795
0.0204529
0.0228759
0.0282375
0.0372284
0.0493886
0.0592046
0.062709
0.0612073
0.0571936
0.0523603
0.0477932
0.0441202
0.0417327
0.0405954
0.0401874
0.0356444
0.03554
0.0349144
0.033906
0.033142
0.0331793
0.0345612
0.0379219
0.0437307
0.0515739
0.0576608
0.059522
0.0583658
0.0555008
0.0521091
0.0488559
0.0461466
0.0443463
0.0435168
0.043231
0.0423671
0.042271
0.0417715
0.0408969
0.0401365
0.0398876
0.0405725
0.0425987
0.0461756
0.0509867
0.0546024
0.0554041
0.0543676
0.052269
0.0498268
0.0474416
0.0454081
0.0440398
0.0434301
0.0432291
0.0450584
0.0449672
0.0445516
0.0437903
0.0430634
0.042635
0.0427919
0.0438213
0.0458882
0.0487075
0.0507266
0.0509423
0.0500062
0.0484003
0.0465675
0.0447821
0.0432436
0.0422042
0.0417553
0.0416123
0.0451409
0.0450568
0.0447026
0.0440422
0.0433645
0.0428566
0.0427123
0.0430994
0.0441187
0.0456117
0.0466236
0.0464842
0.0456017
0.0443141
0.0429034
0.0415414
0.0403661
0.0395753
0.039243
0.0391399
0.0435118
0.0434374
0.043132
0.0425554
0.0419275
0.0413823
0.0410512
0.0410515
0.0414408
0.0420928
0.0424274
0.042063
0.0412459
0.0401956
0.0390884
0.0380353
0.0371321
0.0365291
0.0362812
0.0362058
0.0407427
0.0406795
0.0404204
0.0399228
0.0393547
0.0388143
0.0383868
0.0381455
0.038131
0.0382658
0.0382055
0.0377315
0.0369865
0.0361162
0.0352356
0.0344144
0.033717
0.0332554
0.0330688
0.0330131
0.0372202
0.0371685
0.0369545
0.0365342
0.0360362
0.0355317
0.035078
0.0347211
0.0344836
0.034312
0.0340172
0.0334908
0.0328199
0.032096
0.0313902
0.0307452
0.0302038
0.0298486
0.0297071
0.0296657
0.033212
0.0331705
0.032998
0.0326507
0.0322252
0.0317744
0.0313343
0.0309335
0.0305871
0.0302576
0.0298493
0.0293215
0.0287295
0.0281288
0.0275616
0.027053
0.0266311
0.0263569
0.0262495
0.0262187
0.0289015
0.0288688
0.0287331
0.0284532
0.0281005
0.0277142
0.0273156
0.0269217
0.0265411
0.0261474
0.0257033
0.0252084
0.0246984
0.0242039
0.0237491
0.0233481
0.0230191
0.0228078
0.0227264
0.0227035
0.0244133
0.0243877
0.0242832
0.0240636
0.0237798
0.0234606
0.023118
0.0227616
0.0223955
0.0220026
0.0215758
0.0211363
0.0207078
0.0203069
0.0199466
0.0196335
0.0193791
0.0192174
0.0191561
0.0191391
0.0198285
0.0198089
0.0197301
0.0195623
0.0193413
0.0190876
0.0188077
0.0185066
0.0181866
0.0178348
0.0174601
0.017091
0.0167444
0.0164283
0.0161491
0.0159092
0.0157159
0.0155941
0.0155484
0.0155358
0.0151946
0.01518
0.0151224
0.0149988
0.0148339
0.0146422
0.0144275
0.0141918
0.0139354
0.01365
0.0133494
0.0130619
0.0127984
0.0125612
0.0123532
0.0121753
0.0120328
0.0119435
0.0119102
0.011901
0.010537
0.0105266
0.0104865
0.0104004
0.0102856
0.0101528
0.0100039
0.00983931
0.00965848
0.00945654
0.00924497
0.00904519
0.00886395
0.00870186
0.00855926
0.00843626
0.00833673
0.00827413
0.00825081
0.0082442
0.00586473
0.0058579
0.00583376
0.00578216
0.00571549
0.00564111
0.00555875
0.00546806
0.00536814
0.0052566
0.00513956
0.00502918
0.0049296
0.00484068
0.00476214
0.00469271
0.00463416
0.00459645
0.00458214
0.00457726
0.00118796
0.00118897
0.0011948
0.00119152
0.0011778
0.00116065
0.0011413
0.00111984
0.00109574
0.00106775
0.00103693
0.00100748
0.000981354
0.000958366
0.000938326
0.000920561
0.000905066
0.000895535
0.000897829
0.000901785
-0.766105
-0.51693
-0.257594
-0.0486784
0.120621
0.257299
0.373319
0.470651
0.512341
0.496785
-0.338528
-0.180216
-0.0187075
0.120299
0.238225
0.337196
0.417537
0.474637
0.505175
0.517196
-0.0587258
0.0455466
0.152954
0.249045
0.331938
0.401474
0.456669
0.4973
0.526066
0.543127
0.135399
0.206957
0.282398
0.351146
0.410839
0.461299
0.502507
0.535267
0.560757
0.578501
0.282068
0.333191
0.388228
0.439187
0.484337
0.523457
0.556618
0.584072
0.605776
0.623375
0.399922
0.437668
0.481566
0.521755
0.558426
0.591093
0.619418
0.643112
0.661398
0.678829
0.500655
0.532378
0.570017
0.605204
0.637712
0.66708
0.69265
0.713771
0.729231
0.746633
0.594421
0.625604
0.661755
0.69577
0.726994
0.754974
0.779003
0.798271
0.811508
0.828992
0.692945
0.727553
0.765281
0.800145
0.831193
0.858212
0.880828
0.898453
0.910301
0.928152
0.809828
0.848862
0.887891
0.92286
0.952743
0.97795
0.998684
1.01473
1.02633
1.04473
0.955804
0.995716
1.03155
1.06237
1.08831
1.11069
1.12997
1.14571
1.15852
1.1767
1.13099
1.16342
1.18951
1.21205
1.23232
1.25125
1.26903
1.28571
1.30155
1.31979
1.31899
1.33672
1.35247
1.36923
1.38551
1.40016
1.41329
1.42734
1.44449
1.4642
1.501
1.51195
1.52416
1.535
1.5443
1.55396
1.56497
1.57663
1.58662
1.60181
1.7121
1.71415
1.69901
1.68381
1.67752
1.68325
1.70187
1.73233
1.7645
1.79526
2.018
1.88097
1.80477
1.7628
1.74537
1.74941
1.77683
1.83296
1.93642
2.15172
0.303016
0.299648
0.293742
0.283966
0.271064
0.258693
0.248441
0.240544
0.234899
0.231567
0.231052
0.233553
0.238437
0.24547
0.25472
0.266258
0.279278
0.291189
0.298596
0.303287
0.220964
0.226859
0.233805
0.239093
0.241993
0.241731
0.238895
0.235025
0.231482
0.229139
0.228813
0.230771
0.234194
0.238309
0.242052
0.24388
0.242633
0.238432
0.232452
0.225365
0.213193
0.215542
0.218959
0.221966
0.224287
0.226186
0.227241
0.227076
0.226081
0.225107
0.225084
0.226258
0.227779
0.228756
0.228537
0.227143
0.225138
0.22262
0.21933
0.21631
0.20795
0.209031
0.210991
0.21353
0.215655
0.21719
0.218388
0.2193
0.219775
0.219963
0.220251
0.22071
0.220919
0.220585
0.219777
0.218626
0.216946
0.214635
0.212326
0.210851
0.202786
0.203415
0.204652
0.206625
0.208691
0.21053
0.211957
0.213076
0.214026
0.214799
0.215303
0.215415
0.215148
0.214559
0.213624
0.212211
0.210379
0.208425
0.206822
0.205979
0.198
0.198407
0.199349
0.201007
0.202898
0.204829
0.20666
0.208167
0.209311
0.21018
0.210777
0.210983
0.210707
0.20992
0.20861
0.206972
0.205241
0.203566
0.202284
0.201712
0.193623
0.193867
0.194635
0.196156
0.197895
0.199595
0.201286
0.202964
0.204476
0.205672
0.206437
0.206584
0.206111
0.205156
0.203942
0.202583
0.201092
0.199559
0.198445
0.198053
0.190247
0.190361
0.190938
0.192249
0.193816
0.195374
0.196874
0.198309
0.199696
0.200982
0.201909
0.202199
0.201967
0.201367
0.200479
0.199354
0.198069
0.196762
0.195878
0.195644
0.188015
0.188068
0.188437
0.189362
0.190588
0.1919
0.193333
0.194819
0.196297
0.197682
0.198779
0.199302
0.199238
0.198765
0.198006
0.197165
0.196248
0.195372
0.194833
0.194702
0.185906
0.185946
0.186166
0.18668
0.187434
0.188336
0.18938
0.190625
0.192033
0.193526
0.19485
0.195655
0.195944
0.195909
0.195702
0.195295
0.194918
0.194558
0.19433
0.194251
0.183063
0.18309
0.18325
0.183608
0.184124
0.184957
0.185963
0.18724
0.188737
0.1904
0.192014
0.193172
0.193768
0.193957
0.19395
0.193897
0.193801
0.193688
0.193589
0.193539
0.179512
0.179526
0.179664
0.180017
0.180558
0.181231
0.182225
0.183523
0.185153
0.187072
0.189053
0.190612
0.19158
0.192152
0.192457
0.192635
0.192716
0.192695
0.192654
0.192631
0.175446
0.175444
0.175566
0.175944
0.176559
0.17732
0.178381
0.179821
0.181654
0.183897
0.186351
0.188421
0.189834
0.190759
0.191354
0.191685
0.191842
0.19187
0.191875
0.191876
0.170987
0.170981
0.171086
0.171473
0.172129
0.173065
0.174315
0.175934
0.17808
0.180784
0.183842
0.186506
0.188399
0.189687
0.190564
0.191112
0.191379
0.191499
0.191564
0.19158
0.166086
0.166071
0.166198
0.166603
0.167317
0.168345
0.169768
0.17171
0.174288
0.177603
0.181417
0.184833
0.187357
0.189081
0.190252
0.191013
0.191458
0.191707
0.191836
0.191861
0.160521
0.160502
0.160656
0.161094
0.161879
0.163058
0.164747
0.167096
0.170264
0.17437
0.179146
0.183474
0.186614
0.18891
0.190474
0.191506
0.19216
0.192552
0.192744
0.192777
0.154037
0.154014
0.154199
0.154731
0.15563
0.157035
0.159084
0.161973
0.165905
0.171027
0.17701
0.182442
0.186479
0.189365
0.191358
0.192699
0.193578
0.194117
0.194371
0.194415
0.146334
0.146303
0.146534
0.147175
0.148314
0.150058
0.152592
0.156203
0.161131
0.167551
0.175044
0.181845
0.18692
0.19053
0.193034
0.194733
0.19586
0.196555
0.196878
0.196934
0.13708
0.137038
0.137343
0.138173
0.139606
0.141811
0.145042
0.149616
0.155832
0.163903
0.17328
0.181756
0.188049
0.192541
0.195662
0.197784
0.199198
0.200073
0.200477
0.200545
0.125822
0.12577
0.126182
0.127274
0.129132
0.131976
0.136135
0.141979
0.14988
0.160056
0.171764
0.18227
0.190037
0.195583
0.199442
0.202071
0.203826
0.204919
0.20542
0.205501
0.111917
0.111858
0.112432
0.113893
0.116346
0.120081
0.125503
0.133068
0.14318
0.156016
0.170584
0.183529
0.193057
0.19986
0.204603
0.207845
0.210015
0.21137
0.211993
0.212089
0.0944051
0.0943428
0.0951672
0.0971783
0.100508
0.105536
0.112755
0.122671
0.135666
0.151836
0.169863
0.185695
0.197296
0.205588
0.211392
0.215381
0.218063
0.219739
0.220516
0.220632
0.07182
0.0717701
0.0730164
0.0758986
0.0805942
0.0875767
0.0974036
0.110553
0.127317
0.147627
0.169761
0.18894
0.20294
0.21298
0.220059
0.224965
0.228293
0.230383
0.231346
0.231488
0.0418267
0.0418492
0.0438722
0.0482478
0.0552224
0.06531
0.0790052
0.0966283
0.118256
0.143584
0.170471
0.193426
0.210135
0.222192
0.230799
0.236854
0.24102
0.243657
0.244862
0.245032
0.000120914
0.000389983
0.00413478
0.0116482
0.022821
0.0380625
0.0574982
0.0811498
0.10883
0.140025
0.172217
0.199285
0.218952
0.23327
0.243675
0.251173
0.256468
0.259877
0.261405
0.2616
-0.0612092
-0.0595147
-0.0506303
-0.0364074
-0.017382
0.00604262
0.0334953
0.0647905
0.0996061
0.137341
0.175194
0.206553
0.229314
0.246055
0.258473
0.267717
0.274474
0.278949
0.281001
0.281272
-0.134908
-0.131835
-0.115083
-0.0900764
-0.0605447
-0.027634
0.0085673
0.0480436
0.0905422
0.135553
0.180085
0.216928
0.243978
0.26431
0.279856
0.291885
0.301248
0.30742
0.309754
0.310505
-0.210334
-0.201495
-0.176738
-0.14165
-0.102466
-0.0603992
-0.0155458
0.0320568
0.08222
0.134516
0.185782
0.228154
0.259461
0.283298
0.301897
0.316645
0.328316
0.336277
0.340308
0.341671
-0.268335
-0.258294
-0.228642
-0.186897
-0.140351
-0.0906327
-0.0381416
0.0169171
0.0742519
0.133378
0.190828
0.238032
0.272813
0.299263
0.319865
0.336158
0.348985
0.358183
0.363141
0.364691
-0.315285
-0.304712
-0.271673
-0.225254
-0.173214
-0.117519
-0.0587605
0.00272576
0.0664478
0.131752
0.194733
0.24606
0.283518
0.311698
0.333403
0.350412
0.363739
0.37342
0.378632
0.380259
-0.354089
-0.343487
-0.308423
-0.258344
-0.201918
-0.141415
-0.0774266
-0.0104506
0.058859
0.129685
0.197598
0.252442
0.292041
0.321489
0.34391
0.361266
0.374701
0.384383
0.389582
0.391258
-0.387731
-0.377176
-0.340589
-0.287624
-0.227619
-0.163065
-0.0946076
-0.0228427
0.0514582
0.127276
0.199731
0.257858
0.299397
0.329909
0.352823
0.37032
0.383723
0.393378
0.398575
0.400184
-0.417744
-0.407263
-0.369564
-0.31425
-0.251267
-0.183215
-0.110823
-0.0347763
0.04407
0.124553
0.201327
0.262538
0.305877
0.337363
0.360736
0.378402
0.391812
0.401427
0.406653
0.408117
-0.44534
-0.434883
-0.396287
-0.339
-0.273414
-0.202349
-0.126496
-0.0465952
0.0364266
0.121278
0.202165
0.266479
0.311724
0.344302
0.368239
0.386135
0.399607
0.409199
0.414413
0.415761
-0.471261
-0.460815
-0.421428
-0.362384
-0.294582
-0.220868
-0.141946
-0.0585721
0.0282774
0.117277
0.202322
0.269898
0.317223
0.351039
0.375658
0.393887
0.407479
0.41706
0.422273
0.423516
-0.495967
-0.485486
-0.445357
-0.384831
-0.315075
-0.238982
-0.157328
-0.0708266
0.0195837
0.112589
0.201782
0.272774
0.322416
0.357696
0.383179
0.401875
0.415679
0.4253
0.430477
0.431667
-0.519803
-0.509248
-0.468433
-0.406622
-0.335065
-0.256871
-0.172771
-0.0834176
0.0102944
0.107083
0.200396
0.275035
0.327304
0.364342
0.390909
0.410231
0.424357
0.434072
0.439163
0.440331
-0.542964
-0.532254
-0.490756
-0.427858
-0.354679
-0.274634
-0.188347
-0.0964303
0.000281413
0.100654
0.198084
0.276578
0.3318
0.370932
0.39885
0.418983
0.433552
0.443433
0.448439
0.449576
-0.565461
-0.554576
-0.512571
-0.448574
-0.373966
-0.292293
-0.204085
-0.109896
-0.0104536
0.0932763
0.19474
0.277263
0.335763
0.377348
0.406946
0.428124
0.443279
0.453379
0.458319
0.459353
-0.587424
-0.57633
-0.533833
-0.468786
-0.392952
-0.309856
-0.219961
-0.123763
-0.0218763
0.0849288
0.190265
0.276924
0.339032
0.383475
0.415125
0.437612
0.453505
0.463878
0.468731
0.469628
-0.60879
-0.597489
-0.554474
-0.4885
-0.411609
-0.327269
-0.235906
-0.137974
-0.033956
0.0756093
0.184592
0.275387
0.341376
0.389133
0.423279
0.44739
0.464167
0.474828
0.47957
0.480272
-0.629573
-0.618042
-0.574483
-0.507709
-0.429884
-0.344474
-0.251865
-0.152458
-0.0466147
0.0653659
0.177679
0.272494
0.342511
0.394013
0.431217
0.457407
0.47523
0.486079
0.490547
0.49103
-0.649623
-0.637925
-0.593841
-0.526361
-0.447723
-0.361399
-0.267765
-0.167125
-0.0597579
0.0542765
0.169524
0.268119
0.342179
0.397742
0.438664
0.467637
0.486808
0.497621
0.501495
0.501664
-0.669033
-0.657102
-0.612524
-0.544424
-0.465086
-0.377994
-0.283501
-0.181879
-0.0732802
0.0424467
0.160167
0.262178
0.340137
0.399891
0.445166
0.477984
0.499295
0.509759
0.512193
0.511776
-0.687682
-0.675513
-0.630507
-0.561845
-0.481894
-0.394175
-0.298991
-0.196597
-0.0870574
0.0299734
0.149698
0.254633
0.336188
0.399968
0.449971
0.48796
0.513242
0.523951
0.523316
0.520951
-0.705601
-0.693239
-0.647742
-0.578578
-0.49811
-0.40988
-0.314156
-0.211194
-0.100967
0.0170174
0.138248