/*--------------------------------*- C++ -*----------------------------------*\
| =========                 |                                                 |
| \\      /  F ield         | OpenFOAM: The Open Source CFD Toolbox           |
|  \\    /   O peration     | Version:  2306                                  |
|   \\  /    A nd           | Website:  www.openfoam.com                      |
|    \\/     M anipulation  |                                                 |
\*---------------------------------------------------------------------------*/
FoamFile
{
    version     2.0;
    format      ascii;
    arch        "LSB;label=32;scalar=64";
    class       volVectorField;
    location    "16";
    object      U;
}
// * * * * * * * * * * * * * * * * * * * * * * * * * * * * * * * * * * * * * //

dimensions      [0 1 -1 0 0 0 0];

internalField   nonuniform List<vector> 
8800
(
(0.984954 -0.0884429 0)
(1.00211 -0.0568063 0)
(0.999667 -0.0305267 0)
(1.00001 -0.0158105 0)
(1.00006 -0.00867007 0)
(1.00006 -0.00503919 0)
(1.00004 -0.00294742 0)
(1.00001 -0.00167108 0)
(0.999999 -0.000807943 0)
(1.00005 -0.000138445 0)
(0.999992 0.000539023 0)
(1.00001 0.00128873 0)
(1.00002 0.00231208 0)
(1.00006 0.00392141 0)
(1.00006 0.00663894 0)
(1.00004 0.0116565 0)
(0.999906 0.0219933 0)
(0.999188 0.0411408 0)
(1.00743 0.0768878 0)
(0.773651 0.0450675 0)
(0.361125 -0.0151584 0)
(1.04566 -0.0741285 0)
(1.08714 -0.0677845 0)
(1.04784 -0.0522135 0)
(1.02464 -0.0383212 0)
(1.01233 -0.025978 0)
(1.00636 -0.0165985 0)
(1.00347 -0.0101566 0)
(1.00205 -0.00561055 0)
(1.00144 -0.00211503 0)
(1.00133 0.000992372 0)
(1.00166 0.00423009 0)
(1.0026 0.00810243 0)
(1.00463 0.0134049 0)
(1.00878 0.0211529 0)
(1.01745 0.0320832 0)
(1.03463 0.0454663 0)
(1.06562 0.0595838 0)
(1.09415 0.072826 0)
(0.842479 0.0556472 0)
(0.217415 -0.00163332 0)
(1.07613 -0.0501364 0)
(1.09992 -0.0484137 0)
(1.06462 -0.0397904 0)
(1.03986 -0.032569 0)
(1.02364 -0.0253305 0)
(1.01386 -0.0180843 0)
(1.00839 -0.0115072 0)
(1.00555 -0.00588369 0)
(1.00443 -0.000778815 0)
(1.00474 0.00417623 0)
(1.00659 0.00938111 0)
(1.01054 0.0153658 0)
(1.01786 0.0222247 0)
(1.03055 0.0294233 0)
(1.05077 0.0365012 0)
(1.08059 0.0439489 0)
(1.1066 0.0513078 0)
(0.943649 0.0410909 0)
(0.21708 0.00164389 0)
(0.176612 -0.000623052 0)
(1.01961 -0.0349235 0)
(1.10596 -0.0407648 0)
(1.07835 -0.0355548 0)
(1.05281 -0.0294958 0)
(1.03535 -0.0238279 0)
(1.02331 -0.0182591 0)
(1.01543 -0.012503 0)
(1.01081 -0.00671078 0)
(1.00883 -0.000784065 0)
(1.00938 0.00507544 0)
(1.01252 0.0107735 0)
(1.01858 0.0164176 0)
(1.02835 0.0219219 0)
(1.04284 0.0273232 0)
(1.06382 0.0330412 0)
(1.09448 0.0391351 0)
(1.09521 0.0409506 0)
(0.83116 0.0223355 0)
(0.176054 0.000634789 0)
(0.155653 -0.00046518 0)
(0.95956 -0.0246807 0)
(1.10445 -0.0338326 0)
(1.08776 -0.0314664 0)
(1.0611 -0.0271497 0)
(1.04302 -0.0222545 0)
(1.03059 -0.0171366 0)
(1.02193 -0.0119352 0)
(1.01631 -0.00648708 0)
(1.01365 -0.000576529 0)
(1.0144 0.00536704 0)
(1.01835 0.0108474 0)
(1.02529 0.0159318 0)
(1.03558 0.0208452 0)
(1.05046 0.0257022 0)
(1.07236 0.0301315 0)
(1.10142 0.0339314 0)
(1.07129 0.0323755 0)
(0.746159 0.0136385 0)
(0.154823 0.0004784 0)
(0.142075 -0.000324183 0)
(0.905579 -0.0176779 0)
(1.09756 -0.027758 0)
(1.09562 -0.0267049 0)
(1.06831 -0.0231566 0)
(1.04949 -0.0194671 0)
(1.0364 -0.0152853 0)
(1.02727 -0.0107056 0)
(1.0213 -0.00573455 0)
(1.0184 -0.000200458 0)
(1.01912 0.00539427 0)
(1.02328 0.0104052 0)
(1.03054 0.0148933 0)
(1.04135 0.0189953 0)
(1.0569 0.022656 0)
(1.07968 0.0259566 0)
(1.10422 0.0287475 0)
(1.042 0.0254382 0)
(0.684041 0.00910215 0)
(0.140916 0.000340079 0)
(0.132836 -0.000238028 0)
(0.860948 -0.012402 0)
(1.08661 -0.0221415 0)
(1.10093 -0.0222868 0)
(1.07424 -0.0194235 0)
(1.05439 -0.0165302 0)
(1.04062 -0.0133563 0)
(1.03115 -0.00949718 0)
(1.02508 -0.00494053 0)
(1.02215 0.000248487 0)
(1.02274 0.0054396 0)
(1.02679 0.0100242 0)
(1.03416 0.01388 0)
(1.04541 0.0169913 0)
(1.06177 0.0196265 0)
(1.08549 0.0221991 0)
(1.10412 0.0240099 0)
(1.01177 0.0194415 0)
(0.639086 0.00617813 0)
(0.13128 0.000258066 0)
(0.126751 -0.000152726 0)
(0.827165 -0.00777562 0)
(1.0737 -0.0162255 0)
(1.10352 -0.0176758 0)
(1.07897 -0.0160805 0)
(1.05925 -0.0138495 0)
(1.0459 -0.011085 0)
(1.03648 -0.0077635 0)
(1.03007 -0.00381892 0)
(1.02675 0.000810045 0)
(1.02737 0.00546874 0)
(1.03165 0.0093997 0)
(1.03905 0.012551 0)
(1.04989 0.015107 0)
(1.06585 0.0171484 0)
(1.08961 0.0186758 0)
(1.10126 0.018983 0)
(0.984046 0.0136038 0)
(0.608301 0.00380191 0)
(0.124708 0.000177753 0)
(0.123646 -4.59451e-05 0)
(0.804565 -0.00391671 0)
(1.06015 -0.0102506 0)
(1.10298 -0.0124637 0)
(1.0816 -0.0117539 0)
(1.06199 -0.0103214 0)
(1.04849 -0.00834348 0)
(1.0392 -0.00575552 0)
(1.03298 -0.00249896 0)
(1.02974 0.00148958 0)
(1.0301 0.00550108 0)
(1.03399 0.00866525 0)
(1.04101 0.010966 0)
(1.05181 0.0125607 0)
(1.06778 0.0136039 0)
(1.09074 0.014342 0)
(1.09506 0.0135358 0)
(0.960977 0.008274 0)
(0.58973 0.00192597 0)
(0.121018 7.73355e-05 0)
(0.122814 1.95593e-05 0)
(0.791343 -0.00176111 0)
(1.04895 -0.00605015 0)
(1.10161 -0.00801386 0)
(1.08329 -0.00784615 0)
(1.06415 -0.00689075 0)
(1.05115 -0.00563596 0)
(1.04208 -0.00377741 0)
(1.03602 -0.00117427 0)
(1.0328 0.00225631 0)
(1.03288 0.00566565 0)
(1.03634 0.00813813 0)
(1.04295 0.00963572 0)
(1.0531 0.0104144 0)
(1.06869 0.0109011 0)
(1.09043 0.0106985 0)
(1.08824 0.00953998 0)
(0.944016 0.00510205 0)
(0.579435 0.00100142 0)
(0.119444 1.94309e-05 0)
(0.122853 2.65439e-05 0)
(0.782915 -0.00106043 0)
(1.03991 -0.00452368 0)
(1.09991 -0.00672297 0)
(1.08411 -0.00690975 0)
(1.06568 -0.0062626 0)
(1.05301 -0.00498628 0)
(1.04446 -0.00304002 0)
(1.03881 -0.000255311 0)
(1.03565 0.00311121 0)
(1.03542 0.00636435 0)
(1.03824 0.00878584 0)
(1.04412 0.0102095 0)
(1.05385 0.0108131 0)
(1.06843 0.0107839 0)
(1.08892 0.0102306 0)
(1.08129 0.0084448 0)
(0.930675 0.00413492 0)
(0.572439 0.000814914 0)
(0.11857 1.83078e-05 0)
(0.123069 2.57203e-05 0)
(0.776366 -0.000636335 0)
(1.03057 -0.00382436 0)
(1.0967 -0.00702972 0)
(1.08435 -0.00775821 0)
(1.06696 -0.00740673 0)
(1.05509 -0.0059165 0)
(1.04707 -0.00339585 0)
(1.0415 5.00374e-05 0)
(1.03815 0.00405808 0)
(1.0376 0.00787998 0)
(1.04001 0.0107243 0)
(1.04516 0.01251 0)
(1.05384 0.0132772 0)
(1.06762 0.0129159 0)
(1.08624 0.0118074 0)
(1.07245 0.00874256 0)
(0.918082 0.00381993 0)
(0.566365 0.000794549 0)
(0.117664 3.15633e-05 0)
(0.123422 2.93829e-05 0)
(0.771571 -0.000124688 0)
(1.02042 -0.00276366 0)
(1.09059 -0.00681791 0)
(1.08357 -0.00902438 0)
(1.0686 -0.00874983 0)
(1.05806 -0.00695248 0)
(1.05073 -0.00382406 0)
(1.04535 0.000286511 0)
(1.04181 0.00520287 0)
(1.04083 0.00983649 0)
(1.04262 0.0132515 0)
(1.04694 0.0154253 0)
(1.05433 0.0163106 0)
(1.06611 0.0158636 0)
(1.0804 0.0135182 0)
(1.06023 0.00866712 0)
(0.905757 0.00339002 0)
(0.560917 0.000768876 0)
(0.116616 4.34312e-05 0)
(0.124054 3.98631e-05 0)
(0.769099 0.000465656 0)
(1.01141 -0.00110234 0)
(1.08237 -0.00483411 0)
(1.08138 -0.00766257 0)
(1.06983 -0.00783959 0)
(1.06126 -0.00605851 0)
(1.05459 -0.00279205 0)
(1.04944 0.00153603 0)
(1.04566 0.00680974 0)
(1.04416 0.011668 0)
(1.04517 0.0151228 0)
(1.04855 0.0170582 0)
(1.05413 0.0174337 0)
(1.06334 0.0165466 0)
(1.07156 0.0130416 0)
(1.04647 0.00752683 0)
(0.89501 0.00283795 0)
(0.55623 0.000738525 0)
(0.115496 4.89988e-05 0)
(0.125069 5.46883e-05 0)
(0.769281 0.00103617 0)
(1.00573 0.000708907 0)
(1.07526 -0.00163349 0)
(1.07827 -0.00382477 0)
(1.07111 -0.00421442 0)
(1.06432 -0.00272754 0)
(1.05844 0.000225939 0)
(1.05359 0.00425508 0)
(1.04952 0.00904836 0)
(1.04731 0.0132236 0)
(1.04751 0.015859 0)
(1.04948 0.0171476 0)
(1.05338 0.0169103 0)
(1.05871 0.0148099 0)
(1.06206 0.0110027 0)
(1.03424 0.00616179 0)
(0.886553 0.0025182 0)
(0.552041 0.00077908 0)
(0.114309 5.5635e-05 0)
(0.126513 7.31142e-05 0)
(0.771594 0.00156947 0)
(1.00402 0.00227068 0)
(1.07123 0.00139849 0)
(1.07653 0.000316424 0)
(1.07212 0.000383953 0)
(1.06699 0.0018737 0)
(1.06188 0.00452823 0)
(1.05716 0.00806709 0)
(1.05265 0.0119371 0)
(1.04954 0.014982 0)
(1.04884 0.0164073 0)
(1.04926 0.0164353 0)
(1.05103 0.015187 0)
(1.0536 0.0127208 0)
(1.05369 0.00922984 0)
(1.02477 0.0054036 0)
(0.879786 0.00257939 0)
(0.547773 0.00091455 0)
(0.112954 6.77349e-05 0)
(0.128426 9.33324e-05 0)
(0.775974 0.00208479 0)
(1.00531 0.00347783 0)
(1.07051 0.00389978 0)
(1.07664 0.00402179 0)
(1.07371 0.00487863 0)
(1.06965 0.00671823 0)
(1.06504 0.00935426 0)
(1.06017 0.0124976 0)
(1.05499 0.0154975 0)
(1.05081 0.017368 0)
(1.04885 0.0175014 0)
(1.04775 0.0165268 0)
(1.04784 0.0144736 0)
(1.0485 0.0117782 0)
(1.04674 0.00864127 0)
(1.01739 0.00549876 0)
(0.873603 0.00299109 0)
(0.542859 0.00113473 0)
(0.111303 8.57095e-05 0)
(0.13089 0.000117474 0)
(0.782209 0.00266093 0)
(1.00902 0.00471662 0)
(1.07248 0.0060459 0)
(1.0787 0.00734473 0)
(1.07632 0.00907352 0)
(1.0727 0.0115064 0)
(1.06815 0.0144227 0)
(1.06279 0.0174363 0)
(1.05663 0.0198279 0)
(1.05111 0.0206737 0)
(1.04773 0.0196896 0)
(1.04528 0.0176752 0)
(1.04405 0.0150819 0)
(1.04343 0.0121847 0)
(1.04064 0.00919894 0)
(1.01088 0.00629499 0)
(0.867142 0.00366598 0)
(0.536893 0.00141335 0)
(0.109247 0.000106204 0)
(0.13405 0.000152952 0)
(0.790472 0.00340868 0)
(1.01506 0.00617663 0)
(1.07666 0.0083873 0)
(1.08249 0.0105478 0)
(1.08014 0.0132565 0)
(1.07643 0.0165255 0)
(1.07148 0.019954 0)
(1.06523 0.02308 0)
(1.05773 0.025133 0)
(1.0506 0.0251615 0)
(1.04562 0.0232379 0)
(1.04196 0.0202725 0)
(1.03966 0.0170252 0)
(1.03811 0.0137752 0)
(1.03464 0.0106378 0)
(1.0043 0.00756195 0)
(0.859694 0.00454285 0)
(0.529536 0.00177769 0)
(0.106676 0.000132213 0)
(0.138167 0.000207518 0)
(0.801277 0.00446052 0)
(1.02329 0.00813009 0)
(1.08285 0.0111847 0)
(1.08805 0.0142346 0)
(1.08535 0.018017 0)
(1.08105 0.0222124 0)
(1.07519 0.0263193 0)
(1.0676 0.0297912 0)
(1.05835 0.0316897 0)
(1.04933 0.0309907 0)
(1.04259 0.0281341 0)
(1.03771 0.0242568 0)
(1.03442 0.0202184 0)
(1.03212 0.0163838 0)
(1.0281 0.0128216 0)
(0.996878 0.00929944 0)
(0.850577 0.00565603 0)
(0.520427 0.00221695 0)
(0.103494 0.000163457 0)
(0.143598 0.000285059 0)
(0.815319 0.00593005 0)
(1.03405 0.0107731 0)
(1.09123 0.0147895 0)
(1.0956 0.018903 0)
(1.09212 0.0238498 0)
(1.08676 0.0291145 0)
(1.07948 0.0341042 0)
(1.07006 0.0380765 0)
(1.05856 0.0398717 0)
(1.04723 0.0384134 0)
(1.03856 0.034522 0)
(1.03233 0.0296148 0)
(1.02804 0.0246121 0)
(1.02504 0.0199671 0)
(1.02046 0.0157388 0)
(0.988044 0.011541 0)
(0.839318 0.0070594 0)
(0.50907 0.00275982 0)
(0.0995632 0.000202392 0)
(0.150843 0.000395148 0)
(0.83345 0.00799444 0)
(1.0479 0.0143123 0)
(1.10219 0.0194445 0)
(1.10545 0.0248702 0)
(1.10081 0.0312388 0)
(1.09393 0.0378489 0)
(1.08465 0.0439178 0)
(1.07274 0.0484535 0)
(1.05836 0.0500888 0)
(1.04428 0.0477237 0)
(1.03341 0.0426039 0)
(1.02564 0.0364495 0)
(1.02023 0.0302698 0)
(1.01645 0.0245909 0)
(1.01122 0.0194756 0)
(0.977278 0.0143969 0)
(0.82533 0.00884303 0)
(0.494966 0.00343893 0)
(0.0947368 0.000251185 0)
(0.160697 0.000568442 0)
(0.857061 0.0110188 0)
(1.06581 0.0192212 0)
(1.1164 0.0257344 0)
(1.11814 0.0328867 0)
(1.11183 0.0410169 0)
(1.10279 0.0492082 0)
(1.09075 0.0564268 0)
(1.07562 0.0614697 0)
(1.05767 0.0627607 0)
(1.04031 0.0592297 0)
(1.02695 0.052612 0)
(1.01738 0.0449432 0)
(1.01067 0.0373375 0)
(1.00596 0.030389 0)
(0.999912 0.0241613 0)
(0.964025 0.0179774 0)
(0.808186 0.0110858 0)
(0.477605 0.0042656 0)
(0.0888662 0.000303968 0)
(0.174431 0.000858221 0)
(0.888242 0.0157292 0)
(1.08927 0.0264092 0)
(1.13497 0.0346986 0)
(1.13431 0.0440858 0)
(1.12545 0.0543542 0)
(1.11328 0.0642537 0)
(1.09758 0.0725335 0)
(1.07839 0.0778038 0)
(1.05619 0.0783457 0)
(1.03508 0.0732538 0)
(1.01889 0.0648164 0)
(1.00727 0.0553561 0)
(0.999035 0.0460656 0)
(0.99318 0.0375985 0)
(0.986071 0.0300261 0)
(0.94767 0.0225019 0)
(0.787096 0.0139268 0)
(0.456498 0.00529574 0)
(0.0818043 0.000361676 0)
(0.194302 0.00136705 0)
(0.930304 0.0233058 0)
(1.12038 0.0373211 0)
(1.15936 0.0480716 0)
(1.15468 0.0603094 0)
(1.14184 0.0729394 0)
(1.12519 0.0843881 0)
(1.10473 0.0932946 0)
(1.08062 0.0981698 0)
(1.05352 0.0972979 0)
(1.02822 0.0901072 0)
(1.00893 0.0794906 0)
(0.995008 0.0679903 0)
(0.985002 0.056806 0)
(0.977742 0.0466021 0)
(0.969201 0.0374605 0)
(0.927397 0.0283338 0)
(0.761055 0.0176405 0)
(0.430744 0.00665371 0)
(0.0733418 0.000432484 0)
(0.223764 0.00253941 0)
(0.989218 0.0369136 0)
(1.16136 0.0558794 0)
(1.19058 0.0696775 0)
(1.17935 0.0848336 0)
(1.16057 0.0992547 0)
(1.1379 0.111305 0)
(1.11149 0.11975 0)
(1.08169 0.123183 0)
(1.04921 0.119972 0)
(1.01945 0.110026 0)
(0.996865 0.0968641 0)
(0.98043 0.0831394 0)
(0.968391 0.0699677 0)
(0.959375 0.0579426 0)
(0.948826 0.0471159 0)
(0.902276 0.0360999 0)
(0.72879 0.022636 0)
(0.399958 0.00852824 0)
(0.0637069 0.000484391 0)
(0.264727 0.00930988 -2.86312e-20)
(1.06801 0.0648009 -2.27998e-20)
(1.21054 0.0882385 6.52275e-21)
(1.22609 0.105312 0)
(1.20587 0.12154 2.89756e-35)
(1.17954 0.135708 -8.62925e-23)
(1.14979 0.14659 -1.88652e-21)
(1.11673 0.15317 0)
(1.08073 0.15415 8.39829e-35)
(1.0424 0.147925 -6.61485e-21)
(1.00769 0.134875 0)
(0.981292 0.119079 -9.72857e-21)
(0.961779 0.103182 -2.98851e-20)
(0.947071 0.0881922 -1.44956e-20)
(0.935536 0.0747085 -4.5844e-21)
(0.92195 0.0625874 -2.77857e-21)
(0.869981 0.0499631 0)
(0.687094 0.0325621 1.98839e-21)
(0.362726 0.0142464 2.35223e-21)
(0.054728 0.00179334 4.10601e-20)
(0.290576 0.0258171 -5.0301e-20)
(1.13118 0.110398 9.94724e-22)
(1.25327 0.136346 -3.02536e-21)
(1.25806 0.154304 0)
(1.22962 0.168934 5.54919e-21)
(1.19595 0.181276 3.72185e-21)
(1.15919 0.190242 -9.35819e-22)
(1.1194 0.194673 -1.01216e-20)
(1.07681 0.193226 0)
(1.03189 0.184291 2.80757e-20)
(0.991073 0.168595 3.15499e-20)
(0.959537 0.150681 1.02477e-20)
(0.935611 0.133182 4.08762e-20)
(0.916929 0.116886 6.0553e-20)
(0.901558 0.102333 0)
(0.883236 0.0894211 9.03845e-20)
(0.826861 0.0752895 1.32094e-19)
(0.643349 0.0536784 1.46252e-19)
(0.336672 0.0277084 -1.69286e-19)
(0.0507068 0.0043469 -3.0674e-21)
(0.286453 0.042057 0)
(1.16743 0.168863 -1.52487e-20)
(1.28565 0.197793 0)
(1.28307 0.213213 2.56527e-20)
(1.2482 0.224261 0)
(1.20818 0.233146 1.4848e-20)
(1.16514 0.238842 2.69194e-22)
(1.11917 0.24011 -1.34739e-20)
(1.07049 0.235538 -3.09033e-21)
(1.01947 0.223511 1.34497e-20)
(0.973092 0.20521 7.41079e-20)
(0.936993 0.185564 -5.59742e-22)
(0.909248 0.167104 -3.08228e-20)
(0.887229 0.150451 -6.02314e-20)
(0.868886 0.135881 7.32309e-20)
(0.848297 0.123077 -1.31657e-19)
(0.794027 0.10857 -1.80605e-20)
(0.628738 0.0826527 0)
(0.345897 0.0461906 3.05081e-22)
(0.0577212 0.0082256 0)
(0.276765 0.0559195 -3.70813e-19)
(1.18408 0.230296 1.55324e-19)
(1.30612 0.263918 8.47635e-20)
(1.29938 0.276767 -1.65634e-20)
(1.26008 0.283905 2.54512e-20)
(1.21532 0.28874 -3.50739e-20)
(1.16726 0.290575 -1.2853e-21)
(1.1161 0.288148 0)
(1.06216 0.280022 -5.02799e-20)
(1.00581 0.264586 0)
(0.954674 0.243588 -3.76113e-20)
(0.914855 0.222326 -5.38257e-20)
(0.884219 0.203163 -3.4637e-20)
(0.85992 0.186436 -4.49827e-20)
(0.839848 0.172165 0)
(0.818674 0.159822 0)
(0.769254 0.145348 -1.21689e-19)
(0.622408 0.115779 2.42195e-20)
(0.35593 0.0676811 -1.40467e-20)
(0.0640743 0.0126449 -1.62345e-20)
(0.267236 0.0682626 2.71834e-19)
(1.18842 0.291134 0)
(1.31709 0.330679 -2.35767e-19)
(1.30806 0.341451 -6.16474e-20)
(1.26566 0.34485 -4.82139e-20)
(1.2175 0.345687 0)
(1.16557 0.343633 -8.60172e-21)
(1.11021 0.337411 1.06297e-20)
(1.05187 0.325567 2.11235e-20)
(0.991041 0.30657 6.86039e-20)
(0.935993 0.282702 0)
(0.893392 0.259645 -1.17263e-19)
(0.860885 0.239545 -7.55248e-20)
(0.835356 0.222513 -4.55891e-20)
(0.814554 0.208394 3.00748e-19)
(0.793722 0.196437 3.69576e-20)
(0.748904 0.181754 1.76664e-19)
(0.614634 0.148148 -8.50414e-19)
(0.35884 0.0879145 5.0154e-19)
(0.0669082 0.0166896 -5.99806e-19)
(0.258951 0.0793407 2.85643e-19)
(1.18505 0.349387 -5.39914e-20)
(1.321 0.396254 4.12063e-20)
(1.31063 0.405382 1.13053e-19)
(1.26606 0.405297 7.05548e-20)
(1.2153 0.402445 3.28289e-21)
(1.1604 0.396659 8.17263e-21)
(1.1017 0.386725 5.90522e-21)
(1.03968 0.371226 -4.65184e-20)
(0.975113 0.348603 0)
(0.91693 0.321649 -4.99906e-20)
(0.872144 0.296485 -2.98299e-21)
(0.838274 0.275102 -8.46862e-20)
(0.81199 0.257409 0)
(0.790979 0.242989 -6.56266e-20)
(0.770899 0.230829 -1.5972e-19)
(0.729818 0.215269 4.42177e-19)
(0.603729 0.177183 -4.38641e-19)
(0.355794 0.105384 6.19699e-19)
(0.067124 0.020041 -6.38097e-19)
(0.25228 0.0896006 -8.51706e-22)
(1.17702 0.404539 6.571e-20)
(1.31969 0.459533 1.96188e-19)
(1.30862 0.467492 -6.88178e-20)
(1.26247 0.464285 4.01455e-20)
(1.20972 0.458056 0)
(1.15243 0.448805 2.0564e-20)
(1.09096 0.435351 -2.55775e-21)
(1.02586 0.416292 -2.04066e-20)
(0.957961 0.390049 0)
(0.896999 0.359872 -4.83865e-20)
(0.850459 0.332301 -6.90503e-20)
(0.815685 0.309244 9.27002e-20)
(0.789097 0.290402 -5.96515e-20)
(0.768226 0.275185 -2.89187e-19)
(0.748946 0.262354 1.78015e-19)
(0.710558 0.245529 5.64006e-20)
(0.589853 0.202665 0)
(0.348604 0.120194 -6.02659e-19)
(0.065866 0.022779 -2.18553e-20)
(0.247066 0.0993614 4.65246e-20)
(1.16632 0.456455 -7.53358e-20)
(1.31458 0.519913 -1.07071e-19)
(1.30318 0.52714 -2.12138e-19)
(1.2558 0.521228 1.93446e-19)
(1.20148 0.511969 -1.06241e-19)
(1.14226 0.499547 -4.3502e-20)
(1.07847 0.482822 -2.40874e-21)
(1.01069 0.460381 2.27045e-20)
(0.939853 0.430576 -1.67012e-19)
(0.876512 0.397057 -6.01325e-20)
(0.828564 0.366824 0)
(0.793082 0.341723 1.01445e-19)
(0.766317 0.321307 1.25796e-19)
(0.745645 0.3049 1.55205e-19)
(0.727052 0.291027 -1.94288e-19)
(0.690466 0.272468 -5.8462e-20)
(0.573489 0.224818 6.89863e-20)
(0.338384 0.13232 0)
(0.0636291 0.0248728 -4.76429e-20)
(0.243064 0.108751 -5.38176e-19)
(1.15433 0.505295 3.44408e-19)
(1.30678 0.577282 1.17545e-19)
(1.29513 0.584064 -1.61401e-19)
(1.24684 0.575744 1.15023e-19)
(1.1913 0.563811 -7.68487e-21)
(1.1305 0.548555 4.33384e-20)
(1.06473 0.528861 -1.96114e-21)
(0.994628 0.503264 -3.69702e-20)
(0.921228 0.470021 3.11167e-22)
(0.855538 0.433097 -1.78143e-19)
(0.806184 0.399947 1.76867e-19)
(0.770017 0.372466 -1.13928e-19)
(0.743128 0.350122 1.42169e-19)
(0.722737 0.332154 0)
(0.704797 0.316959 -1.05549e-19)
(0.669408 0.296272 -2.55558e-21)
(0.55516 0.243638 -3.0189e-19)
(0.325923 0.142181 -4.43628e-20)
(0.0605733 0.0263205 0)
(0.240083 0.117858 0)
(1.14181 0.551312 3.7283e-19)
(1.29703 0.631648 2.73232e-19)
(1.28522 0.63805 1.81665e-19)
(1.23624 0.627651 1.11411e-19)
(1.17971 0.613379 0)
(1.11762 0.595606 3.82552e-20)
(1.05019 0.573247 -2.44325e-21)
(0.977968 0.544773 7.79222e-20)
(0.902041 0.50829 -2.0017e-20)
(0.834028 0.467957 -1.30832e-19)
(0.783232 0.431658 8.81592e-20)
(0.746385 0.401489 -3.87912e-21)
(0.719361 0.376925 1.49657e-19)
(0.699282 0.357089 9.82371e-20)
(0.681925 0.340258 -2.30053e-19)
(0.647294 0.31715 2.7834e-19)
(0.535057 0.259428 8.28655e-20)
(0.311594 0.14974 3.4022e-19)
(0.0568845 0.0271134 -8.9908e-19)
(0.237953 0.126844 -1.37466e-19)
(1.12929 0.594693 2.14616e-19)
(1.28592 0.682859 -1.69359e-19)
(1.27408 0.689091 -2.10059e-19)
(1.22448 0.676892 0)
(1.16717 0.660547 9.04018e-20)
(1.104 0.640558 -1.11823e-19)
(1.03508 0.61584 -6.29191e-21)
(0.960901 0.584803 0)
(0.882528 0.545331 -3.14125e-19)
(0.812177 0.501668 3.56941e-19)
(0.759741 0.462107 0)
(0.722138 0.428968 1.35139e-19)
(0.694932 0.401874 -3.92086e-21)
(0.675114 0.379908 -3.10916e-19)
(0.65817 0.36111 1.22119e-19)
(0.623933 0.33526 0)
(0.513307 0.272249 4.4972e-19)
(0.295547 0.154967 0)
(0.0526441 0.027262 -4.28992e-19)
(0.2365 0.135688 1.52928e-19)
(1.11701 0.635634 2.44749e-19)
(1.27412 0.731063 -1.77376e-19)
(1.26205 0.737262 0)
(1.21199 0.723463 1.51766e-19)
(1.15405 0.705295 0)
(1.08996 0.683362 1.43704e-19)
(1.01973 0.656591 1.79192e-20)
(0.943759 0.62332 6.30078e-21)
(0.862989 0.58119 -1.54993e-19)
(0.790069 0.534376 3.4348e-20)
(0.735691 0.491523 0)
(0.697099 0.455201 -2.87492e-19)
(0.669622 0.42527 4.0624e-21)
(0.649916 0.400873 0)
(0.633251 0.379808 4.84032e-21)
(0.599136 0.350769 4.10521e-19)
(0.489731 0.282043 -3.94535e-19)
(0.277773 0.157792 1.15684e-19)
(0.0478592 0.0267645 0)
(0.235355 0.144287 0)
(1.1051 0.674339 2.73218e-19)
(1.26188 0.776309 2.07207e-19)
(1.24948 0.782626 -4.30215e-21)
(1.19908 0.767393 9.42509e-20)
(1.14066 0.747629 2.12685e-19)
(1.0758 0.724014 -4.67876e-20)
(1.00443 0.695485 9.29432e-21)
(0.926779 0.660304 4.32096e-20)
(0.843591 0.615866 -2.40149e-19)
(0.767893 0.566158 -6.17175e-21)
(0.711191 0.520058 -1.16703e-19)
(0.671096 0.480367 4.71851e-19)
(0.643157 0.447296 -4.88351e-21)
(0.623541 0.420112 -2.45897e-19)
(0.607103 0.396455 -4.49502e-19)
(0.572847 0.363773 0)
(0.464229 0.288832 0)
(0.258239 0.158079 1.27593e-19)
(0.0426363 0.0255501 -7.34409e-20)
(0.234769 0.152727 1.89395e-19)
(1.09372 0.710775 -5.96887e-19)
(1.24941 0.818795 -2.21561e-19)
(1.23665 0.82525 0)
(1.18602 0.808735 -2.97414e-21)
(1.12723 0.787581 2.53467e-19)
(1.06176 0.762524 -1.53077e-19)
(0.989385 0.732512 -7.90551e-20)
(0.910144 0.695755 3.9459e-20)
(0.824555 0.649403 -1.82719e-19)
(0.745884 0.597126 -3.00804e-19)
(0.68649 0.547867 3.10952e-19)
(0.644376 0.504654 0)
(0.615572 0.468084 -1.10735e-19)
(0.595932 0.437826 -2.70466e-19)
(0.57962 0.411173 -3.26303e-19)
(0.544873 0.374284 -3.96186e-19)
(0.43659 0.292507 1.18318e-19)
(0.236796 0.155458 -6.90795e-20)
(0.0369449 0.023582 8.6393e-22)
(0.234219 0.160959 0)
(1.08321 0.744853 0)
(1.23686 0.858641 4.80921e-21)
(1.22376 0.865221 0)
(1.17301 0.847577 -3.51977e-19)
(1.11395 0.825208 -2.22508e-19)
(1.04798 0.798916 0)
(0.974738 0.767683 -1.73558e-20)
(0.894047 0.729676 3.92083e-20)
(0.806077 0.681823 -4.19019e-19)
(0.724232 0.627419 0)
(0.661753 0.575256 -1.99005e-19)
(0.617226 0.528518 -5.99272e-21)
(0.586957 0.488196 -4.9499e-21)
(0.566957 0.454341 2.88995e-19)
(0.550593 0.424177 -7.85239e-22)
(0.514931 0.382273 -8.62055e-19)
(0.40637 0.292824 2.58514e-19)
(0.213511 0.149974 7.64453e-20)
(0.0308384 0.0208752 0)
(0.23368 0.168903 -6.93391e-19)
(1.07316 0.777113 -3.66325e-19)
(1.22437 0.89597 -5.51544e-19)
(1.21099 0.902634 7.75461e-19)
(1.16018 0.883986 -6.57609e-19)
(1.10094 0.860572 0)
(1.03461 0.833239 -1.27599e-19)
(0.960642 0.801024 3.31802e-20)
(0.878623 0.762078 7.3179e-21)
(0.788328 0.713148 3.34609e-20)
(0.703144 0.657095 3.74595e-19)
(0.637143 0.602411 -6.77967e-20)
(0.589662 0.55226 -2.91143e-19)
(0.557294 0.50794 -1.31886e-19)
(0.536518 0.469925 1.61312e-19)
(0.519841 0.435523 -6.59759e-22)
(0.482924 0.387686 2.37153e-19)
(0.3734 0.289514 -5.61433e-19)
(0.187888 0.141134 6.66599e-19)
(0.0244301 0.0175275 9.49304e-20)
(0.233033 0.176479 2.53941e-19)
(1.06353 0.80758 -1.99977e-19)
(1.21211 0.930894 1.14876e-20)
(1.19844 0.937622 4.36459e-19)
(1.14764 0.918075 1.52886e-19)
(1.08832 0.893749 4.41945e-19)
(1.02176 0.865546 -5.55014e-20)
(0.947187 0.832557 1.56111e-19)
(0.863982 0.792958 2.55301e-21)
(0.771455 0.743372 -2.23875e-19)
(0.682828 0.686213 0)
(0.612911 0.629483 -3.05656e-19)
(0.561738 0.576168 4.22793e-19)
(0.526459 0.527654 0)
(0.504286 0.484865 -3.45257e-19)
(0.487016 0.445104 2.14586e-19)
(0.448591 0.389973 -2.56521e-19)
(0.338088 0.282139 -3.08468e-19)
(0.160984 0.129267 -5.4356e-19)
(0.0179402 0.0136258 -4.17679e-19)
(0.232542 0.183794 -2.78196e-19)
(1.05419 0.836263 2.13491e-19)
(1.20012 0.963513 5.10919e-19)
(1.1862 0.970279 5.98288e-19)
(1.13547 0.949938 -3.19734e-19)
(1.07617 0.924826 3.03165e-19)
(1.00947 0.895889 -1.72829e-19)
(0.934439 0.862324 1.89059e-19)
(0.850194 0.822336 1.42657e-20)
(0.755568 0.772488 2.08888e-19)
(0.663485 0.714781 7.89909e-19)
(0.589339 0.656577 0)
(0.533778 0.600546 0)
(0.49452 0.547933 -1.52437e-19)
(0.469908 0.499656 0)
(0.451404 0.452835 4.67878e-19)
(0.411393 0.388224 5.61858e-19)
(0.30075 0.269716 0)
(0.133936 0.114445 0)
(0.0119201 0.00956795 4.55952e-19)
(0.231791 0.190575 3.05886e-19)
(1.04515 0.863178 2.54403e-19)
(1.18847 0.993952 3.66108e-19)
(1.17432 1.00074 -5.31973e-19)
(1.12374 0.97968 -3.55065e-19)
(1.06452 0.95388 -3.99932e-19)
(0.997807 0.924335 2.55102e-19)
(0.922444 0.890358 8.94013e-22)
(0.837316 0.850213 -9.35052e-21)
(0.740751 0.800469 -1.19912e-20)
(0.64528 0.742776 3.98615e-19)
(0.566685 0.683732 0)
(0.506192 0.625634 4.25789e-19)
(0.461715 0.569421 3.20589e-19)
(0.432968 0.515291 8.22811e-19)
(0.411725 0.458859 2.52242e-19)
(0.369979 0.380579 -3.11385e-19)
(0.262455 0.24966 -1.82745e-19)
(0.110358 0.0963781 0)
(0.0076694 0.00592684 4.96558e-19)
(0.231234 0.197242 -6.70053e-19)
(1.03641 0.888442 0)
(1.17717 1.0223 4.07223e-19)
(1.16284 1.02909 -4.34287e-19)
(1.11248 1.0074 3.99922e-19)
(1.05341 0.981002 5.80959e-19)
(0.98679 0.950946 -5.86709e-19)
(0.911219 0.916698 7.38252e-21)
(0.825366 0.876595 0)
(0.727059 0.827267 -1.85168e-19)
(0.628348 0.770132 -8.18595e-19)
(0.545216 0.710927 4.10643e-20)
(0.479399 0.651501 5.76599e-19)
(0.428573 0.592704 0)
(0.393281 0.533052 5.54152e-19)
(0.366106 0.46449 0)
(0.32023 0.365182 0)
(0.222444 0.214109 -2.0426e-19)
(0.102702 0.0654899 0)
(0.0251164 0.0111468 1.34185e-19)
(0.230369 0.203265 -7.29841e-19)
(1.02793 0.912343 0)
(1.16622 1.04875 6.56598e-19)
(1.15175 1.05556 0)
(1.10166 1.03335 -2.15876e-19)
(1.04279 1.00647 0)
(0.976349 0.976022 -4.32733e-20)
(0.900666 0.941672 -3.20034e-20)
(0.814234 0.901831 -4.13101e-21)
(0.714355 0.853252 -1.74317e-19)
(0.612581 0.797249 2.08971e-20)
(0.524854 0.73868 3.39743e-19)
(0.453336 0.678646 5.56566e-19)
(0.395072 0.618687 8.00101e-20)
(0.350204 0.555349 4.32223e-19)
(0.311774 0.473411 0)
(0.251034 0.344541 6.806e-19)
(0.158289 0.149843 -4.02679e-19)
(0.0603968 0.0678525 4.58678e-19)
(-0.0557982 0.388998 -5.42076e-19)
(0.229479 0.209023 5.93457e-19)
(1.01947 0.934815 9.57735e-19)
(1.15552 1.07362 0)
(1.1409 1.08056 9.15249e-21)
(1.09111 1.05806 5.84669e-19)
(1.03242 1.03092 -1.11491e-18)
(0.966217 1.00031 -2.55979e-19)
(0.890444 0.966167 0)
(0.80348 0.926961 -7.34539e-20)
(0.702089 0.879686 -3.81914e-21)
(0.597214 0.825564 0)
(0.504641 0.768735 0)
(0.426893 0.708955 4.86579e-19)
(0.360478 0.649316 -2.49811e-19)
(0.302253 0.586295 -4.29386e-19)
(0.245383 0.494032 0)
(0.140037 0.331191 3.40095e-19)
(0.0326269 0.446394 -4.00187e-19)
(0.0452679 1.75705 -2.10272e-19)
(0.0823085 2.7411 -2.7998e-19)
(0.22839 0.21401 -4.30053e-19)
(1.01124 0.955953 -1.20299e-18)
(1.14508 1.09692 3.75743e-19)
(1.13031 1.10396 3.64402e-19)
(1.08089 1.08136 0)
(1.02234 1.05409 -7.95466e-19)
(0.956557 1.02352 -4.26188e-19)
(0.8807 0.989771 2.07873e-20)
(0.79332 0.951479 -1.00998e-20)
(0.690582 0.905945 1.19338e-19)
(0.582788 0.854338 3.54086e-19)
(0.485496 0.800443 3.43815e-19)
(0.401294 0.741898 4.7498e-19)
(0.327266 0.68274 -5.66562e-19)
(0.255569 0.626866 -6.31622e-19)
(0.173398 0.534283 0)
(0.0784209 0.811298 0)
(0.133009 2.45222 1.76184e-19)
(0.14023 3.15774 0)
(0.141306 3.3701 3.77865e-19)
(0.230145 0.218885 0)
(1.00376 0.975923 0)
(1.13465 1.11851 0)
(1.11977 1.12554 1.00978e-19)
(1.07071 1.10303 5.19004e-19)
(1.01234 1.07585 -6.04421e-19)
(0.947271 1.04555 -3.04055e-19)
(0.871374 1.01238 2.33857e-20)
(0.783706 0.975239 -1.57279e-19)
(0.679845 0.931868 -2.01161e-20)
(0.56943 0.883418 6.24682e-19)
(0.467759 0.833537 -4.03664e-20)
(0.377028 0.77798 5.27352e-20)
(0.296608 0.716383 8.01812e-20)
(0.217779 0.67309 3.33391e-21)
(0.141572 0.916492 3.20288e-21)
(0.182441 2.57641 -8.64765e-19)
(0.205005 3.26427 -3.25062e-19)
(0.187259 3.42376 1.45737e-19)
(0.168064 3.45098 -1.46795e-19)
(0.149178 0.171436 2.35871e-19)
(0.990227 0.997802 0)
(1.12406 1.13856 -7.3476e-19)
(1.10995 1.14588 -9.36197e-19)
(1.06117 1.12372 1.08e-18)
(1.00319 1.09675 6.41905e-19)
(0.938219 1.06647 3.51449e-19)
(0.862525 1.03408 -3.90238e-19)
(0.774763 0.998341 1.62117e-19)
(0.670196 0.95741 0)
(0.557701 0.912618 2.58415e-19)
(0.452217 0.867386 -2.50405e-19)
(0.354985 0.818632 0)
(0.269165 0.754556 6.78859e-20)
(0.203131 0.854871 1.6434e-19)
(0.187509 2.21299 -2.06765e-19)
(0.276786 3.30022 2.24971e-19)
(0.253925 3.44515 1.06387e-19)
(0.212017 3.47261 1.19027e-19)
(0.184172 3.48513 1.39871e-19)
(0.267232 0.252615 -4.25304e-19)
(0.971095 1.00263 0)
(1.10417 1.16025 7.38908e-19)
(1.09634 1.17606 9.59823e-19)
(1.04595 1.15394 -1.09775e-18)
(0.988058 1.12753 -6.74687e-19)
(0.922839 1.09864 -5.40315e-19)
(0.847228 1.06755 -2.91335e-20)
(0.759039 1.03422 -2.26416e-19)
(0.65296 0.997695 -3.93379e-20)
(0.537093 0.960125 8.68641e-21)
(0.426208 0.924044 1.86391e-19)
(0.318911 0.891027 4.16898e-20)
(0.244776 0.986749 -6.08721e-20)
(0.280898 2.11934 -1.41631e-19)
(0.356064 3.29728 8.93747e-20)
(0.345769 3.48592 -7.37327e-20)
(0.30285 3.51316 -4.08149e-20)
(0.259353 3.54491 3.0296e-20)
(0.197066 3.53573 8.51018e-22)
(0.254789 0.248661 0)
(0.966952 1.02223 1.93323e-19)
(1.09567 1.18117 -1.46895e-19)
(1.08635 1.1969 -1.07274e-19)
(1.03641 1.1749 -7.22333e-19)
(0.978892 1.1487 6.59829e-19)
(0.913749 1.12002 3.63566e-19)
(0.838524 1.08979 -3.04608e-20)
(0.750631 1.05809 2.77543e-19)
(0.644456 1.02467 -2.78552e-20)
(0.527581 0.992333 -2.87417e-19)
(0.414663 0.963264 2.63419e-20)
(0.309674 0.952532 -3.52177e-20)
(0.29239 1.3717 -4.89153e-20)
(0.393845 2.96053 3.72666e-20)
(0.437728 3.47166 1.94775e-21)
(0.386355 3.55565 -1.17967e-19)
(0.342976 3.5841 -1.34369e-19)
(0.283666 3.61102 1.72043e-19)
(0.213671 3.6038 6.20045e-20)
(0.237841 0.245185 4.70396e-19)
(0.96082 1.04396 1.30851e-18)
(1.08647 1.20371 -4.20606e-19)
(1.07594 1.21905 -4.08468e-19)
(1.02643 1.19693 0)
(0.969327 1.17075 9.65096e-19)
(0.904561 1.14232 5.5417e-19)
(0.830019 1.11292 -3.1934e-20)
(0.742778 1.08288 2.89999e-20)
(0.637064 1.05273 1.73819e-19)
(0.519975 1.02582 -6.36675e-20)
(0.406865 1.00484 -1.68506e-19)
(0.317083 1.05141 -2.21199e-19)
(0.374012 1.93723 2.43658e-19)
(0.495749 3.33567 8.5111e-20)
(0.498447 3.55049 0)
(0.436297 3.60475 0)
(0.393183 3.6602 1.69491e-19)
(0.31149 3.73245 0)
(0.227165 3.69614 3.00297e-19)
(0.225876 0.245039 -6.88413e-19)
(0.952553 1.06626 -1.09191e-18)
(1.07583 1.22713 0)
(1.06435 1.24186 1.02822e-20)
(1.01531 1.21936 -7.04887e-19)
(0.958759 1.19306 1.43477e-18)
(0.894712 1.16487 3.7248e-19)
(0.821096 1.13619 -3.91764e-20)
(0.734793 1.10771 3.03967e-19)
(0.629983 1.08073 -1.69455e-20)