0.490941 	1.71964 	0.00539197 	3.00065 	-5.31382e-20
0.561075 	1.71964 	0.00539197 	3.00065 	-5.31382e-20
0.63121 	1.71964 	0.00539197 	3.00065 	-5.31382e-20
0.701344 	1.71964 	0.00539197 	3.00065 	-5.31382e-20
0.771478 	1.71964 	0.00539197 	3.00065 	-5.31382e-20
0.841613 	1.71964 	0.00539197 	3.00065 	-5.31382e-20
0.911747 	1.71964 	0.00539197 	3.00065 	-5.31382e-20
0.981881 	1.71964 	0.00539197 	3.00065 	-5.31382e-20
1.05202 	1.71964 	0.00539197 	3.00065 	-5.31382e-20
1.12215 	1.71964 	0.00539197 	3.00065 	-5.31382e-20
1.19228 	1.71964 	0.00539197 	3.00065 	-5.31382e-20
1.26242 	1.71964 	0.00539197 	3.00065 	-5.31382e-20
1.33255 	1.68019 	0.0145337 	3.01419 	-5.43862e-20
1.40269 	1.68019 	0.0145337 	3.01419 	-5.43862e-20
1.47282 	1.68019 	0.0145337 	3.01419 	-5.43862e-20
1.54296 	1.68019 	0.0145337 	3.01419 	-5.43862e-20
1.61309 	1.68019 	0.0145337 	3.01419 	-5.43862e-20
1.68323 	1.68019 	0.0145337 	3.01419 	-5.43862e-20
1.75336 	1.68019 	0.0145337 	3.01419 	-5.43862e-20
1.82349 	1.68019 	0.0145337 	3.01419 	-5.43862e-20
1.89363 	1.68019 	0.0145337 	3.01419 	-5.43862e-20
1.96376 	1.68019 	0.0145337 	3.01419 	-5.43862e-20
2.0339 	1.68019 	0.0145337 	3.01419 	-5.43862e-20
2.10403 	1.68019 	0.0145337 	3.01419 	-5.43862e-20
2.17417 	1.61947 	0.0137548 	3.03213 	1.13311e-19
2.2443 	1.61947 	0.0137548 	3.03213 	1.13311e-19
2.31443 	1.61947 	0.0137548 	3.03213 	1.13311e-19
2.38457 	1.61947 	0.0137548 	3.03213 	1.13311e-19
2.4547 	1.61947 	0.0137548 	3.03213 	1.13311e-19
2.52484 	1.61947 	0.0137548 	3.03213 	1.13311e-19
2.59497 	1.61947 	0.0137548 	3.03213 	1.13311e-19
2.66511 	1.61947 	0.0137548 	3.03213 	1.13311e-19
2.73524 	1.61947 	0.0137548 	3.03213 	1.13311e-19
2.80538 	1.61947 	0.0137548 	3.03213 	1.13311e-19
2.87551 	1.61947 	0.0137548 	3.03213 	1.13311e-19
2.94564 	1.61947 	0.0137548 	3.03213 	1.13311e-19
3.01578 	1.54552 	0.0168661 	3.05863 	-1.31609e-20
3.08591 	1.54552 	0.0168661 	3.05863 	-1.31609e-20
3.15605 	1.54552 	0.0168661 	3.05863 	-1.31609e-20
3.22618 	1.54552 	0.0168661 	3.05863 	-1.31609e-20
3.29632 	1.54552 	0.0168661 	3.05863 	-1.31609e-20
3.36645 	1.54552 	0.0168661 	3.05863 	-1.31609e-20
3.43659 	1.54552 	0.0168661 	3.05863 	-1.31609e-20
3.50672 	1.54552 	0.0168661 	3.05863 	-1.31609e-20
3.57685 	1.54552 	0.0168661 	3.05863 	-1.31609e-20
3.64699 	1.54552 	0.0168661 	3.05863 	-1.31609e-20
3.71712 	1.54552 	0.0168661 	3.05863 	-1.31609e-20
3.78726 	1.53833 	0.00709495 	3.05565 	2.57829e-20
3.85739 	1.45933 	-0.000752075 	3.08402 	-1.89899e-19
3.92753 	1.45933 	-0.000752075 	3.08402 	-1.89899e-19
3.99766 	1.45933 	-0.000752075 	3.08402 	-1.89899e-19
4.06779 	1.45933 	-0.000752075 	3.08402 	-1.89899e-19
4.13793 	1.45933 	-0.000752075 	3.08402 	-1.89899e-19
4.20806 	1.45933 	-0.000752075 	3.08402 	-1.89899e-19
4.2782 	1.45933 	-0.000752075 	3.08402 	-1.89899e-19
4.34833 	1.45933 	-0.000752075 	3.08402 	-1.89899e-19
4.41847 	1.45933 	-0.000752075 	3.08402 	-1.89899e-19
4.4886 	1.45933 	-0.000752075 	3.08402 	-1.89899e-19
4.55874 	1.45933 	-0.000752075 	3.08402 	-1.89899e-19
4.62887 	1.45933 	-0.000752075 	3.08402 	-1.89899e-19
4.699 	1.45933 	-0.000752075 	3.08402 	-1.89899e-19
4.76914 	1.38063 	0.0055331 	3.10679 	3.69442e-19
4.83927 	1.38063 	0.0055331 	3.10679 	3.69442e-19
4.90941 	1.38063 	0.0055331 	3.10679 	3.69442e-19
4.97954 	1.38063 	0.0055331 	3.10679 	3.69442e-19
5.04968 	1.38063 	0.0055331 	3.10679 	3.69442e-19
5.11981 	1.38063 	0.0055331 	3.10679 	3.69442e-19
5.18994 	1.38063 	0.0055331 	3.10679 	3.69442e-19
5.26008 	1.38063 	0.0055331 	3.10679 	3.69442e-19
5.33021 	1.38063 	0.0055331 	3.10679 	3.69442e-19
5.40035 	1.38063 	0.0055331 	3.10679 	3.69442e-19
5.47048 	1.38063 	0.0055331 	3.10679 	3.69442e-19
5.54062 	1.38063 	0.0055331 	3.10679 	3.69442e-19
5.61075 	1.30602 	-0.00207246 	3.13343 	-1.79317e-19
5.68089 	1.30602 	-0.00207246 	3.13343 	-1.79317e-19
5.75102 	1.30602 	-0.00207246 	3.13343 	-1.79317e-19
5.82115 	1.30602 	-0.00207246 	3.13343 	-1.79317e-19
5.89129 	1.30602 	-0.00207246 	3.13343 	-1.79317e-19
5.96142 	1.30602 	-0.00207246 	3.13343 	-1.79317e-19
6.03156 	1.30602 	-0.00207246 	3.13343 	-1.79317e-19
6.10169 	1.30602 	-0.00207246 	3.13343 	-1.79317e-19
6.17183 	1.30602 	-0.00207246 	3.13343 	-1.79317e-19
6.24196 	1.30602 	-0.00207246 	3.13343 	-1.79317e-19
6.3121 	1.30602 	-0.00207246 	3.13343 	-1.79317e-19
6.38223 	1.30602 	-0.00207246 	3.13343 	-1.79317e-19
6.45236 	1.23481 	0.00521976 	3.15343 	0
6.5225 	1.23481 	0.00521976 	3.15343 	0
6.59263 	1.23481 	0.00521976 	3.15343 	0
6.66277 	1.23481 	0.00521976 	3.15343 	0
6.7329 	1.23481 	0.00521976 	3.15343 	0
6.80304 	1.23481 	0.00521976 	3.15343 	0
6.87317 	1.23481 	0.00521976 	3.15343 	0
6.9433 	1.23481 	0.00521976 	3.15343 	0
7.01344 	1.23481 	0.00521976 	3.15343 	0
7.08357 	1.23481 	0.00521976 	3.15343 	0
7.15371 	1.23481 	0.00521976 	3.15343 	0
7.22384 	1.23481 	0.00521976 	3.15343 	0
7.29398 	1.16683 	-0.00135382 	3.17769 	0
7.36411 	1.16683 	-0.00135382 	3.17769 	0
7.43425 	1.16683 	-0.00135382 	3.17769 	0
7.50438 	1.16683 	-0.00135382 	3.17769 	0
7.57451 	1.16683 	-0.00135382 	3.17769 	0
7.64465 	1.16683 	-0.00135382 	3.17769 	0
7.71478 	1.16683 	-0.00135382 	3.17769 	0
7.78492 	1.16683 	-0.00135382 	3.17769 	0
7.85505 	1.16683 	-0.00135382 	3.17769 	0
7.92519 	1.16683 	-0.00135382 	3.17769 	0
7.99532 	1.16683 	-0.00135382 	3.17769 	0
8.06545 	1.16683 	-0.00135382 	3.17769 	0
8.13559 	1.16683 	-0.00135382 	3.17769 	0
8.20572 	1.09967 	0.00735131 	3.19612 	3.63698e-22
8.27586 	1.09967 	0.00735131 	3.19612 	3.63698e-22
8.34599 	1.09967 	0.00735131 	3.19612 	3.63698e-22
8.41613 	1.09967 	0.00735131 	3.19612 	3.63698e-22
8.48626 	1.09967 	0.00735131 	3.19612 	3.63698e-22
8.5564 	1.09967 	0.00735131 	3.19612 	3.63698e-22
8.62653 	1.09967 	0.00735131 	3.19612 	3.63698e-22
8.69666 	1.09967 	0.00735131 	3.19612 	3.63698e-22
8.7668 	1.09967 	0.00735131 	3.19612 	3.63698e-22
8.83693 	1.09967 	0.00735131 	3.19612 	3.63698e-22
8.90707 	1.09967 	0.00735131 	3.19612 	3.63698e-22
8.9772 	1.09967 	0.00735131 	3.19612 	3.63698e-22
9.04734 	1.0332 	0.00304249 	3.21962 	2.66855e-19
9.11747 	1.0332 	0.00304249 	3.21962 	2.66855e-19
9.18761 	1.0332 	0.00304249 	3.21962 	2.66855e-19
9.25774 	1.0332 	0.00304249 	3.21962 	2.66855e-19
9.32787 	1.0332 	0.00304249 	3.21962 	2.66855e-19
9.39801 	1.0332 	0.00304249 	3.21962 	2.66855e-19
9.46814 	1.0332 	0.00304249 	3.21962 	2.66855e-19
9.53828 	1.0332 	0.00304249 	3.21962 	2.66855e-19
9.60841 	1.0332 	0.00304249 	3.21962 	2.66855e-19
9.67855 	1.0332 	0.00304249 	3.21962 	2.66855e-19
9.74868 	1.0332 	0.00304249 	3.21962 	2.66855e-19
9.81881 	1.0332 	0.00304249 	3.21962 	2.66855e-19
9.88895 	1.0332 	0.00304249 	3.21962 	2.66855e-19
9.95908 	0.965918 	0.0162679 	3.23787 	-2.24862e-21
10.0292 	0.965918 	0.0162679 	3.23787 	-2.24862e-21
10.0994 	0.965918 	0.0162679 	3.23787 	-2.24862e-21
10.1695 	0.965918 	0.0162679 	3.23787 	-2.24862e-21
10.2396 	0.965918 	0.0162679 	3.23787 	-2.24862e-21
10.3098 	0.965918 	0.0162679 	3.23787 	-2.24862e-21
10.3799 	0.965918 	0.0162679 	3.23787 	-2.24862e-21
10.45 	0.965918 	0.0162679 	3.23787 	-2.24862e-21
10.5202 	0.965918 	0.0162679 	3.23787 	-2.24862e-21
10.5903 	0.965918 	0.0162679 	3.23787 	-2.24862e-21
10.6604 	0.965918 	0.0162679 	3.23787 	-2.24862e-21
10.7306 	0.965918 	0.0162679 	3.23787 	-2.24862e-21
10.8007 	0.898148 	0.0212524 	3.26137 	-2.62437e-19
10.8708 	0.898148 	0.0212524 	3.26137 	-2.62437e-19
10.941 	0.898148 	0.0212524 	3.26137 	-2.62437e-19
11.0111 	0.898148 	0.0212524 	3.26137 	-2.62437e-19
11.0812 	0.898148 	0.0212524 	3.26137 	-2.62437e-19
11.1514 	0.898148 	0.0212524 	3.26137 	-2.62437e-19
11.2215 	0.898148 	0.0212524 	3.26137 	-2.62437e-19
11.2916 	0.898148 	0.0212524 	3.26137 	-2.62437e-19
11.3618 	0.898148 	0.0212524 	3.26137 	-2.62437e-19
11.4319 	0.898148 	0.0212524 	3.26137 	-2.62437e-19
11.502 	0.898148 	0.0212524 	3.26137 	-2.62437e-19
11.5722 	0.898148 	0.0212524 	3.26137 	-2.62437e-19
11.6423 	0.898148 	0.0212524 	3.26137 	-2.62437e-19
11.7124 	0.825713 	0.0508002 	3.28151 	-4.04738e-19
11.7826 	0.825713 	0.0508002 	3.28151 	-4.04738e-19
11.8527 	0.825713 	0.0508002 	3.28151 	-4.04738e-19
11.9228 	0.825713 	0.0508002 	3.28151 	-4.04738e-19
11.993 	0.825713 	0.0508002 	3.28151 	-4.04738e-19
12.0631 	0.825713 	0.0508002 	3.28151 	-4.04738e-19
12.1332 	0.825713 	0.0508002 	3.28151 	-4.04738e-19
12.2034 	0.825713 	0.0508002 	3.28151 	-4.04738e-19
12.2735 	0.825713 	0.0508002 	3.28151 	-4.04738e-19
12.3437 	0.825713 	0.0508002 	3.28151 	-4.04738e-19
12.4138 	0.825713 	0.0508002 	3.28151 	-4.04738e-19
12.4839 	0.825713 	0.0508002 	3.28151 	-4.04738e-19
12.5541 	0.825713 	0.0508002 	3.28151 	-4.04738e-19
12.6242 	0.745183 	0.0756314 	3.30689 	7.78282e-19
12.6943 	0.745183 	0.0756314 	3.30689 	7.78282e-19
12.7645 	0.745183 	0.0756314 	3.30689 	7.78282e-19
12.8346 	0.745183 	0.0756314 	3.30689 	7.78282e-19
12.9047 	0.745183 	0.0756314 	3.30689 	7.78282e-19
12.9749 	0.745183 	0.0756314 	3.30689 	7.78282e-19
13.045 	0.745183 	0.0756314 	3.30689 	7.78282e-19
13.1151 	0.745183 	0.0756314 	3.30689 	7.78282e-19
13.1853 	0.745183 	0.0756314 	3.30689 	7.78282e-19
13.2554 	0.745183 	0.0756314 	3.30689 	7.78282e-19
13.3255 	0.745183 	0.0756314 	3.30689 	7.78282e-19
13.3957 	0.745183 	0.0756314 	3.30689 	7.78282e-19
13.4658 	0.745183 	0.0756314 	3.30689 	7.78282e-19
13.5359 	0.643903 	0.148442 	3.34081 	-3.75356e-19
13.6061 	0.643903 	0.148442 	3.34081 	-3.75356e-19
13.6762 	0.643903 	0.148442 	3.34081 	-3.75356e-19
13.7463 	0.643903 	0.148442 	3.34081 	-3.75356e-19
13.8165 	0.643903 	0.148442 	3.34081 	-3.75356e-19
13.8866 	0.643903 	0.148442 	3.34081 	-3.75356e-19
13.9567 	0.643903 	0.148442 	3.34081 	-3.75356e-19
14.0269 	0.643903 	0.148442 	3.34081 	-3.75356e-19
14.097 	0.643903 	0.148442 	3.34081 	-3.75356e-19
14.1671 	0.643903 	0.148442 	3.34081 	-3.75356e-19
14.2373 	0.643903 	0.148442 	3.34081 	-3.75356e-19
14.3074 	0.643903 	0.148442 	3.34081 	-3.75356e-19
14.3776 	0.54979 	0.172227 	3.35884 	0
14.4477 	0.350419 	0.171569 	3.4166 	3.51844e-19
14.5178 	0.350419 	0.171569 	3.4166 	3.51844e-19
14.588 	0.350419 	0.171569 	3.4166 	3.51844e-19
14.6581 	0.350419 	0.171569 	3.4166 	3.51844e-19
14.7282 	0.350419 	0.171569 	3.4166 	3.51844e-19
14.7984 	0.350419 	0.171569 	3.4166 	3.51844e-19
14.8685 	0.378516 	0.196086 	3.40666 	-7.11727e-19
14.9386 	0.378516 	0.196086 	3.40666 	-7.11727e-19
15.0088 	0.378516 	0.196086 	3.40666 	-7.11727e-19
15.0789 	0.378516 	0.196086 	3.40666 	-7.11727e-19
15.149 	0.378516 	0.196086 	3.40666 	-7.11727e-19
15.2192 	0.142171 	0.260902 	3.47299 	3.43164e-19
15.2893 	0.142171 	0.260902 	3.47299 	3.43164e-19
15.3594 	0.142171 	0.260902 	3.47299 	3.43164e-19
15.4296 	0.272411 	0.329516 	3.42775 	4.97131e-20
15.4997 	0.272411 	0.329516 	3.42775 	4.97131e-20
15.5698 	0.272411 	0.329516 	3.42775 	4.97131e-20
15.64 	0.272411 	0.329516 	3.42775 	4.97131e-20
15.7101 	0.272411 	0.329516 	3.42775 	4.97131e-20
15.7802 	0.272411 	0.329516 	3.42775 	4.97131e-20
15.8504 	0.272411 	0.329516 	3.42775 	4.97131e-20
15.9205 	0.0195094 	0.334034 	3.52693 	9.12865e-20
15.9906 	0.0195094 	0.334034 	3.52693 	9.12865e-20
16.0608 	0.0195094 	0.334034 	3.52693 	9.12865e-20
16.1309 	0.232532 	0.419645 	3.43814 	2.07058e-19
16.201 	0.232532 	0.419645 	3.43814 	2.07058e-19
16.2712 	0.232532 	0.419645 	3.43814 	2.07058e-19
16.3413 	0.232532 	0.419645 	3.43814 	2.07058e-19
16.4114 	0.232532 	0.419645 	3.43814 	2.07058e-19
16.4816 	0.232532 	0.419645 	3.43814 	2.07058e-19
16.5517 	0.232532 	0.419645 	3.43814 	2.07058e-19
16.6219 	0.0494132 	0.518749 	3.51435 	0
16.692 	0.0494132 	0.518749 	3.51435 	0
16.7621 	0.0494132 	0.518749 	3.51435 	0
16.8323 	0.0494132 	0.518749 	3.51435 	0
16.9024 	0.0494132 	0.518749 	3.51435 	0
16.9725 	0.280396 	0.527467 	3.4187 	1.94807e-19
17.0427 	0.280396 	0.527467 	3.4187 	1.94807e-19
17.1128 	0.280396 	0.527467 	3.4187 	1.94807e-19
17.1829 	0.280396 	0.527467 	3.4187 	1.94807e-19
17.2531 	0.129677 	0.610379 	3.46968 	1.42905e-19
17.3232 	0.129677 	0.610379 	3.46968 	1.42905e-19
17.3933 	0.129677 	0.610379 	3.46968 	1.42905e-19
17.4635 	0.129677 	0.610379 	3.46968 	1.42905e-19
17.5336 	0.129677 	0.610379 	3.46968 	1.42905e-19
17.6037 	0.129677 	0.610379 	3.46968 	1.42905e-19
17.6739 	0.129677 	0.610379 	3.46968 	1.42905e-19
17.744 	0.129677 	0.610379 	3.46968 	1.42905e-19
17.8141 	0.129677 	0.610379 	3.46968 	1.42905e-19
17.8843 	0.129677 	0.610379 	3.46968 	1.42905e-19
17.9544 	0.205715 	0.62646 	3.39099 	0
18.0245 	0.205715 	0.62646 	3.39099 	0
18.0947 	0.205715 	0.62646 	3.39099 	0
18.1648 	0.205715 	0.62646 	3.39099 	0
18.2349 	0.205715 	0.62646 	3.39099 	0
18.3051 	0.205715 	0.62646 	3.39099 	0
18.3752 	0.205715 	0.62646 	3.39099 	0
18.4453 	0.205715 	0.62646 	3.39099 	0
18.5155 	0.205715 	0.62646 	3.39099 	0
18.5856 	0.112806 	0.716952 	3.43329 	0
18.6557 	0.112806 	0.716952 	3.43329 	0
18.7259 	0.112806 	0.716952 	3.43329 	0
18.796 	0.112806 	0.716952 	3.43329 	0
18.8662 	0.112806 	0.716952 	3.43329 	0
18.9363 	0.112806 	0.716952 	3.43329 	0
19.0064 	0.112806 	0.716952 	3.43329 	0
19.0766 	0.112806 	0.716952 	3.43329 	0
19.1467 	0.112806 	0.716952 	3.43329 	0
19.2168 	0.0631646 	0.761749 	3.41236 	2.80648e-20
19.287 	0.288987 	0.687396 	3.21472 	-5.61928e-20
19.3571 	0.288987 	0.687396 	3.21472 	-5.61928e-20
19.4272 	0.288987 	0.687396 	3.21472 	-5.61928e-20
19.4974 	0.288987 	0.687396 	3.21472 	-5.61928e-20
19.5675 	0.288987 	0.687396 	3.21472 	-5.61928e-20
19.6376 	0.288987 	0.687396 	3.21472 	-5.61928e-20
19.7078 	0.288987 	0.687396 	3.21472 	-5.61928e-20
19.7779 	0.288987 	0.687396 	3.21472 	-5.61928e-20
19.848 	0.288987 	0.687396 	3.21472 	-5.61928e-20
19.9182 	0.235277 	0.750529 	3.28903 	-2.13717e-19
19.9883 	0.235277 	0.750529 	3.28903 	-2.13717e-19
20.0584 	0.235277 	0.750529 	3.28903 	-2.13717e-19
20.1286 	0.235277 	0.750529 	3.28903 	-2.13717e-19
20.1987 	0.235277 	0.750529 	3.28903 	-2.13717e-19
20.2688 	0.235277 	0.750529 	3.28903 	-2.13717e-19
20.339 	0.235277 	0.750529 	3.28903 	-2.13717e-19
20.4091 	0.235277 	0.750529 	3.28903 	-2.13717e-19
20.4792 	0.235277 	0.750529 	3.28903 	-2.13717e-19
20.5494 	0.235277 	0.750529 	3.28903 	-2.13717e-19
20.6195 	0.174743 	0.799544 	3.31688 	1.36962e-20
20.6896 	0.174743 	0.799544 	3.31688 	1.36962e-20
20.7598 	0.174743 	0.799544 	3.31688 	1.36962e-20
20.8299 	0.174743 	0.799544 	3.31688 	1.36962e-20
20.9 	0.255515 	0.696347 	2.76915 	-2.94404e-19
20.9702 	0.255515 	0.696347 	2.76915 	-2.94404e-19
21.0403 	0.255515 	0.696347 	2.76915 	-2.94404e-19
21.1105 	0.255515 	0.696347 	2.76915 	-2.94404e-19
21.1806 	0.255515 	0.696347 	2.76915 	-2.94404e-19
21.2507 	0.255515 	0.696347 	2.76915 	-2.94404e-19
21.3209 	0.214653 	0.74682 	2.95311 	0
21.391 	0.214653 	0.74682 	2.95311 	0
21.4611 	0.214653 	0.74682 	2.95311 	0
21.5313 	0.214653 	0.74682 	2.95311 	0
21.6014 	0.214653 	0.74682 	2.95311 	0
21.6715 	0.214653 	0.74682 	2.95311 	0
21.7417 	0.214653 	0.74682 	2.95311 	0
21.8118 	0.214653 	0.74682 	2.95311 	0
21.8819 	0.214653 	0.74682 	2.95311 	0
21.9521 	0.214653 	0.74682 	2.95311 	0
22.0222 	0.214653 	0.74682 	2.95311 	0
22.0923 	0.172134 	0.796547 	3.07505 	-1.10682e-19
22.1625 	0.172134 	0.796547 	3.07505 	-1.10682e-19
22.2326 	0.172134 	0.796547 	3.07505 	-1.10682e-19
22.3027 	0.172134 	0.796547 	3.07505 	-1.10682e-19
22.3729 	0.172134 	0.796547 	3.07505 	-1.10682e-19
22.443 	0.172134 	0.796547 	3.07505 	-1.10682e-19
22.5131 	0.172134 	0.796547 	3.07505 	-1.10682e-19
22.5833 	0.172134 	0.796547 	3.07505 	-1.10682e-19
22.6534 	0.172134 	0.796547 	3.07505 	-1.10682e-19
22.7235 	0.172134 	0.796547 	3.07505 	-1.10682e-19
22.7937 	0.172134 	0.796547 	3.07505 	-1.10682e-19
22.8638 	0.120251 	0.834496 	3.14358 	1.74609e-19
22.9339 	0.120251 	0.834496 	3.14358 	1.74609e-19
23.0041 	0.120251 	0.834496 	3.14358 	1.74609e-19
23.0742 	0.12852 	0.681751 	2.27064 	7.01941e-20
23.1443 	0.12852 	0.681751 	2.27064 	7.01941e-20
23.2145 	0.12852 	0.681751 	2.27064 	7.01941e-20
23.2846 	0.12852 	0.681751 	2.27064 	7.01941e-20
23.3548 	0.12852 	0.681751 	2.27064 	7.01941e-20
23.4249 	0.12852 	0.681751 	2.27064 	7.01941e-20
23.495 	0.12852 	0.681751 	2.27064 	7.01941e-20
23.5652 	0.12852 	0.681751 	2.27064 	7.01941e-20
23.6353 	0.12852 	0.681751 	2.27064 	7.01941e-20
23.7054 	0.0808717 	0.7239 	2.44934 	-2.67332e-21
23.7756 	0.0808717 	0.7239 	2.44934 	-2.67332e-21
23.8457 	0.0808717 	0.7239 	2.44934 	-2.67332e-21
23.9158 	0.0808717 	0.7239 	2.44934 	-2.67332e-21
23.986 	0.0808717 	0.7239 	2.44934 	-2.67332e-21
24.0561 	0.0808717 	0.7239 	2.44934 	-2.67332e-21
24.1262 	0.0808717 	0.7239 	2.44934 	-2.67332e-21
24.1964 	0.0808717 	0.7239 	2.44934 	-2.67332e-21
24.2665 	0.0808717 	0.7239 	2.44934 	-2.67332e-21
24.3366 	0.0808717 	0.7239 	2.44934 	-2.67332e-21
24.4068 	0.0808717 	0.7239 	2.44934 	-2.67332e-21
24.4769 	0.0808717 	0.7239 	2.44934 	-2.67332e-21
24.547 	0.0808717 	0.7239 	2.44934 	-2.67332e-21
24.6172 	0.0372824 	0.763978 	2.60587 	4.5813e-20
24.6873 	0.0372824 	0.763978 	2.60587 	4.5813e-20
24.7574 	0.0372824 	0.763978 	2.60587 	4.5813e-20
24.8276 	0.0372824 	0.763978 	2.60587 	4.5813e-20
24.8977 	0.0372824 	0.763978 	2.60587 	4.5813e-20
24.9678 	0.0372824 	0.763978 	2.60587 	4.5813e-20
25.038 	0.0372824 	0.763978 	2.60587 	4.5813e-20
25.1081 	0.0372824 	0.763978 	2.60587 	4.5813e-20
25.1782 	0.0372824 	0.763978 	2.60587 	4.5813e-20
25.2484 	0.0372824 	0.763978 	2.60587 	4.5813e-20
25.3185 	0.0372824 	0.763978 	2.60587 	4.5813e-20
25.3886 	0.0372824 	0.763978 	2.60587 	4.5813e-20
25.4588 	-0.00326428 	0.799601 	2.72558 	-2.64425e-21
25.5289 	-0.00326428 	0.799601 	2.72558 	-2.64425e-21
25.5991 	-0.00326428 	0.799601 	2.72558 	-2.64425e-21
25.6692 	-0.00326428 	0.799601 	2.72558 	-2.64425e-21
25.7393 	-0.00326428 	0.799601 	2.72558 	-2.64425e-21
25.8095 	-0.00326428 	0.799601 	2.72558 	-2.64425e-21
25.8796 	-0.00326428 	0.799601 	2.72558 	-2.64425e-21
25.9497 	-0.00326428 	0.799601 	2.72558 	-2.64425e-21
26.0199 	-0.00326428 	0.799601 	2.72558 	-2.64425e-21
26.09 	-0.00611906 	0.608554 	1.77088 	-1.07766e-20
26.1601 	-0.00611906 	0.608554 	1.77088 	-1.07766e-20
26.2303 	-0.00611906 	0.608554 	1.77088 	-1.07766e-20
26.3004 	-0.00611906 	0.608554 	1.77088 	-1.07766e-20
26.3705 	-0.00611906 	0.608554 	1.77088 	-1.07766e-20
26.4407 	-0.0516617 	0.620107 	1.85734 	-2.1294e-20
26.5108 	-0.0516617 	0.620107 	1.85734 	-2.1294e-20
26.5809 	-0.0516617 	0.620107 	1.85734 	-2.1294e-20
26.6511 	-0.0516617 	0.620107 	1.85734 	-2.1294e-20
26.7212 	-0.0516617 	0.620107 	1.85734 	-2.1294e-20
26.7913 	-0.0516617 	0.620107 	1.85734 	-2.1294e-20
26.8615 	-0.0516617 	0.620107 	1.85734 	-2.1294e-20
26.9316 	-0.0516617 	0.620107 	1.85734 	-2.1294e-20
27.0017 	-0.0516617 	0.620107 	1.85734 	-2.1294e-20
27.0719 	-0.0516617 	0.620107 	1.85734 	-2.1294e-20
27.142 	-0.0516617 	0.620107 	1.85734 	-2.1294e-20
27.2121 	-0.0516617 	0.620107 	1.85734 	-2.1294e-20
27.2823 	-0.0516617 	0.620107 	1.85734 	-2.1294e-20
27.3524 	-0.0962534 	0.631612 	1.9292 	0
27.4225 	-0.0962534 	0.631612 	1.9292 	0
27.4927 	-0.0962534 	0.631612 	1.9292 	0
27.5628 	-0.0962534 	0.631612 	1.9292 	0
27.6329 	-0.0962534 	0.631612 	1.9292 	0
27.7031 	-0.0962534 	0.631612 	1.9292 	0
27.7732 	-0.0962534 	0.631612 	1.9292 	0
27.8434 	-0.0962534 	0.631612 	1.9292 	0
27.9135 	-0.0962534 	0.631612 	1.9292 	0
27.9836 	-0.0962534 	0.631612 	1.9292 	0
28.0538 	-0.0962534 	0.631612 	1.9292 	0
28.1239 	-0.0962534 	0.631612 	1.9292 	0
28.194 	-0.0962534 	0.631612 	1.9292 	0
28.2642 	-0.0962534 	0.631612 	1.9292 	0
28.3343 	-0.0962534 	0.631612 	1.9292 	0
28.4044 	-0.137651 	0.634216 	1.99351 	0
28.4746 	-0.137651 	0.634216 	1.99351 	0
28.5447 	-0.137651 	0.634216 	1.99351 	0
28.6148 	-0.137651 	0.634216 	1.99351 	0
28.685 	-0.137651 	0.634216 	1.99351 	0
28.7551 	-0.137651 	0.634216 	1.99351 	0
28.8252 	-0.137651 	0.634216 	1.99351 	0
28.8954 	-0.137651 	0.634216 	1.99351 	0
28.9655 	-0.137651 	0.634216 	1.99351 	0
29.0356 	-0.137651 	0.634216 	1.99351 	0
29.1058 	-0.137651 	0.634216 	1.99351 	0
29.1759 	-0.137651 	0.634216 	1.99351 	0
29.246 	-0.137651 	0.634216 	1.99351 	0
29.3162 	-0.137651 	0.634216 	1.99351 	0
29.3863 	-0.137651 	0.634216 	1.99351 	0
29.4564 	-0.17406 	0.632741 	2.0231 	-7.99649e-20
29.5266 	-0.17406 	0.632741 	2.0231 	-7.99649e-20
29.5967 	-0.17406 	0.632741 	2.0231 	-7.99649e-20
29.6668 	-0.17406 	0.632741 	2.0231 	-7.99649e-20
29.737 	-0.17406 	0.632741 	2.0231 	-7.99649e-20
29.8071 	-0.17406 	0.632741 	2.0231 	-7.99649e-20
29.8773 	-0.17406 	0.632741 	2.0231 	-7.99649e-20
29.9474 	-0.17406 	0.632741 	2.0231 	-7.99649e-20
30.0175 	-0.17406 	0.632741 	2.0231 	-7.99649e-20
30.0877 	-0.17406 	0.632741 	2.0231 	-7.99649e-20
30.1578 	-0.17406 	0.632741 	2.0231 	-7.99649e-20
30.2279 	-0.17406 	0.632741 	2.0231 	-7.99649e-20
30.2981 	-0.17406 	0.632741 	2.0231 	-7.99649e-20
30.3682 	-0.17406 	0.632741 	2.0231 	-7.99649e-20
30.4383 	-0.17406 	0.632741 	2.0231 	-7.99649e-20
30.5085 	-0.17406 	0.632741 	2.0231 	-7.99649e-20
30.5786 	-0.204879 	0.618388 	2.02824 	-3.32999e-21
30.6487 	-0.204879 	0.618388 	2.02824 	-3.32999e-21
30.7189 	-0.204879 	0.618388 	2.02824 	-3.32999e-21
30.789 	-0.204879 	0.618388 	2.02824 	-3.32999e-21
30.8591 	-0.204879 	0.618388 	2.02824 	-3.32999e-21
30.9293 	-0.204879 	0.618388 	2.02824 	-3.32999e-21
30.9994 	-0.204879 	0.618388 	2.02824 	-3.32999e-21
31.0695 	-0.204879 	0.618388 	2.02824 	-3.32999e-21
31.1397 	-0.204879 	0.618388 	2.02824 	-3.32999e-21
31.2098 	-0.204879 	0.618388 	2.02824 	-3.32999e-21
31.2799 	-0.204879 	0.618388 	2.02824 	-3.32999e-21
31.3501 	-0.204879 	0.618388 	2.02824 	-3.32999e-21
31.4202 	-0.204879 	0.618388 	2.02824 	-3.32999e-21
31.4903 	-0.204879 	0.618388 	2.02824 	-3.32999e-21
31.5605 	-0.255945 	0.513367 	1.65928 	-1.59952e-19
31.6306 	-0.255945 	0.513367 	1.65928 	-1.59952e-19
31.7007 	-0.273897 	0.496725 	1.66913 	9.87991e-20
31.7709 	-0.273897 	0.496725 	1.66913 	9.87991e-20
31.841 	-0.273897 	0.496725 	1.66913 	9.87991e-20
31.9111 	-0.273897 	0.496725 	1.66913 	9.87991e-20
31.9813 	-0.273897 	0.496725 	1.66913 	9.87991e-20
32.0514 	-0.273897 	0.496725 	1.66913 	9.87991e-20
32.1216 	-0.273897 	0.496725 	1.66913 	9.87991e-20
32.1917 	-0.273897 	0.496725 	1.66913 	9.87991e-20
32.2618 	-0.273897 	0.496725 	1.66913 	9.87991e-20
32.332 	-0.273897 	0.496725 	1.66913 	9.87991e-20
32.4021 	-0.273897 	0.496725 	1.66913 	9.87991e-20
32.4722 	-0.273897 	0.496725 	1.66913 	9.87991e-20
32.5424 	-0.273897 	0.496725 	1.66913 	9.87991e-20
32.6125 	-0.273897 	0.496725 	1.66913 	9.87991e-20
32.6826 	-0.273897 	0.496725 	1.66913 	9.87991e-20
32.7528 	-0.273897 	0.496725 	1.66913 	9.87991e-20
32.8229 	-0.273897 	0.496725 	1.66913 	9.87991e-20
32.893 	-0.273897 	0.496725 	1.66913 	9.87991e-20
32.9632 	-0.279375 	0.477121 	1.67001 	2.71474e-20
33.0333 	-0.279375 	0.477121 	1.67001 	2.71474e-20
33.1034 	-0.279375 	0.477121 	1.67001 	2.71474e-20
33.1736 	-0.279375 	0.477121 	1.67001 	2.71474e-20
33.2437 	-0.279375 	0.477121 	1.67001 	2.71474e-20
33.3138 	-0.279375 	0.477121 	1.67001 	2.71474e-20
33.384 	-0.279375 	0.477121 	1.67001 	2.71474e-20
33.4541 	-0.279375 	0.477121 	1.67001 	2.71474e-20
33.5242 	-0.279375 	0.477121 	1.67001 	2.71474e-20
33.5944 	-0.279375 	0.477121 	1.67001 	2.71474e-20
33.6645 	-0.279375 	0.477121 	1.67001 	2.71474e-20
33.7346 	-0.279375 	0.477121 	1.67001 	2.71474e-20
33.8048 	-0.279375 	0.477121 	1.67001 	2.71474e-20
33.8749 	-0.279375 	0.477121 	1.67001 	2.71474e-20
33.945 	-0.279375 	0.477121 	1.67001 	2.71474e-20
34.0152 	-0.279375 	0.477121 	1.67001 	2.71474e-20
34.0853 	-0.279375 	0.477121 	1.67001 	2.71474e-20
34.1554 	-0.279375 	0.477121 	1.67001 	2.71474e-20
34.2256 	-0.268379 	0.453205 	1.65813 	-2.08083e-20
34.2957 	-0.268379 	0.453205 	1.65813 	-2.08083e-20
34.3659 	-0.268379 	0.453205 	1.65813 	-2.08083e-20
34.436 	-0.268379 	0.453205 	1.65813 	-2.08083e-20
34.5061 	-0.268379 	0.453205 	1.65813 	-2.08083e-20
34.5763 	-0.268379 	0.453205 	1.65813 	-2.08083e-20
34.6464 	-0.268379 	0.453205 	1.65813 	-2.08083e-20
34.7165 	-0.268379 	0.453205 	1.65813 	-2.08083e-20
34.7867 	-0.268379 	0.453205 	1.65813 	-2.08083e-20
34.8568 	-0.268379 	0.453205 	1.65813 	-2.08083e-20
34.9269 	-0.268379 	0.453205 	1.65813 	-2.08083e-20
34.9971 	-0.268379 	0.453205 	1.65813 	-2.08083e-20
35.0672 	-0.268379 	0.453205 	1.65813 	-2.08083e-20
35.1373 	-0.268379 	0.453205 	1.65813 	-2.08083e-20
35.2075 	-0.268379 	0.453205 	1.65813 	-2.08083e-20
35.2776 	-0.268379 	0.453205 	1.65813 	-2.08083e-20
35.3477 	-0.268379 	0.453205 	1.65813 	-2.08083e-20
35.4179 	-0.268379 	0.453205 	1.65813 	-2.08083e-20
35.488 	-0.268379 	0.453205 	1.65813 	-2.08083e-20
35.5581 	-0.268379 	0.453205 	1.65813 	-2.08083e-20
35.6283 	-0.238095 	0.421592 	1.63984 	-5.51936e-21
35.6984 	-0.238095 	0.421592 	1.63984 	-5.51936e-21
35.7685 	-0.238095 	0.421592 	1.63984 	-5.51936e-21
35.8387 	-0.238095 	0.421592 	1.63984 	-5.51936e-21
35.9088 	-0.238095 	0.421592 	1.63984 	-5.51936e-21
35.9789 	-0.238095 	0.421592 	1.63984 	-5.51936e-21
36.0491 	-0.238095 	0.421592 	1.63984 	-5.51936e-21
36.1192 	-0.238095 	0.421592 	1.63984 	-5.51936e-21
36.1893 	-0.238095 	0.421592 	1.63984 	-5.51936e-21
36.2595 	-0.238095 	0.421592 	1.63984 	-5.51936e-21
36.3296 	-0.238095 	0.421592 	1.63984 	-5.51936e-21
36.3997 	-0.238095 	0.421592 	1.63984 	-5.51936e-21
36.4699 	-0.238095 	0.421592 	1.63984 	-5.51936e-21
36.54 	-0.238095 	0.421592 	1.63984 	-5.51936e-21
36.6102 	-0.238095 	0.421592 	1.63984 	-5.51936e-21
36.6803 	-0.238095 	0.421592 	1.63984 	-5.51936e-21
36.7504 	-0.238095 	0.421592 	1.63984 	-5.51936e-21
36.8206 	-0.238095 	0.421592 	1.63984 	-5.51936e-21
36.8907 	-0.238095 	0.421592 	1.63984 	-5.51936e-21
36.9608 	-0.238095 	0.421592 	1.63984 	-5.51936e-21
37.031 	-0.238095 	0.421592 	1.63984 	-5.51936e-21
37.1011 	-0.201719 	0.377848 	1.61623 	0
37.1712 	-0.201719 	0.377848 	1.61623 	0
37.2414 	-0.201719 	0.377848 	1.61623 	0
37.3115 	-0.201719 	0.377848 	1.61623 	0
37.3816 	-0.201719 	0.377848 	1.61623 	0
37.4518 	-0.201719 	0.377848 	1.61623 	0
37.5219 	-0.201719 	0.377848 	1.61623 	0
37.592 	-0.201719 	0.377848 	1.61623 	0
37.6622 	-0.201719 	0.377848 	1.61623 	0
37.7323 	-0.201719 	0.377848 	1.61623 	0
37.8024 	-0.201719 	0.377848 	1.61623 	0
37.8726 	-0.201719 	0.377848 	1.61623 	0
37.9427 	-0.201719 	0.377848 	1.61623 	0
38.0128 	-0.201719 	0.377848 	1.61623 	0
38.083 	-0.201719 	0.377848 	1.61623 	0
38.1531 	-0.201719 	0.377848 	1.61623 	0
38.2232 	-0.201719 	0.377848 	1.61623 	0
38.2934 	-0.173823 	0.328288 	1.59989 	0
38.3635 	-0.173823 	0.328288 	1.59989 	0
38.4336 	-0.173823 	0.328288 	1.59989 	0
38.5038 	-0.173823 	0.328288 	1.59989 	0
38.5739 	-0.173823 	0.328288 	1.59989 	0
38.644 	-0.173823 	0.328288 	1.59989 	0
38.7142 	-0.173823 	0.328288 	1.59989 	0
38.7843 	-0.173823 	0.328288 	1.59989 	0
38.8545 	-0.173823 	0.328288 	1.59989 	0
38.9246 	-0.173823 	0.328288 	1.59989 	0
38.9947 	-0.173823 	0.328288 	1.59989 	0
39.0649 	-0.173823 	0.328288 	1.59989 	0
39.135 	-0.173823 	0.328288 	1.59989 	0
39.2051 	-0.173823 	0.328288 	1.59989 	0
39.2753 	-0.173823 	0.328288 	1.59989 	0
39.3454 	-0.173823 	0.328288 	1.59989 	0
39.4155 	-0.173823 	0.328288 	1.59989 	0
39.4857 	-0.173823 	0.328288 	1.59989 	0
39.5558 	-0.157942 	0.27197 	1.59101 	0
39.6259 	-0.157942 	0.27197 	1.59101 	0
39.6961 	-0.157942 	0.27197 	1.59101 	0
39.7662 	-0.157942 	0.27197 	1.59101 	0
39.8363 	-0.157942 	0.27197 	1.59101 	0
39.9065 	-0.157942 	0.27197 	1.59101 	0
39.9766 	-0.157942 	0.27197 	1.59101 	0
40.0467 	-0.157942 	0.27197 	1.59101 	0
40.1169 	-0.157942 	0.27197 	1.59101 	0
40.187 	-0.157942 	0.27197 	1.59101 	0
40.2571 	-0.157942 	0.27197 	1.59101 	0
40.3273 	-0.157942 	0.27197 	1.59101 	0
40.3974 	-0.157942 	0.27197 	1.59101 	0
40.4675 	-0.157942 	0.27197 	1.59101 	0
40.5377 	-0.157942 	0.27197 	1.59101 	0
40.6078 	-0.157942 	0.27197 	1.59101 	0
40.6779 	-0.157942 	0.27197 	1.59101 	0
40.7481 	-0.155684 	0.21775 	1.5908 	0
40.8182 	-0.155684 	0.21775 	1.5908 	0
40.8883 	-0.155684 	0.21775 	1.5908 	0
40.9585 	-0.155684 	0.21775 	1.5908 	0
41.0286 	-0.155684 	0.21775 	1.5908 	0
41.0988 	-0.155684 	0.21775 	1.5908 	0
41.1689 	-0.155684 	0.21775 	1.5908 	0
41.239 	-0.155684 	0.21775 	1.5908 	0
41.3092 	-0.155684 	0.21775 	1.5908 	0
41.3793 	-0.155684 	0.21775 	1.5908 	0
41.4494 	-0.155684 	0.21775 	1.5908 	0
41.5196 	-0.155684 	0.21775 	1.5908 	0
41.5897 	-0.155684 	0.21775 	1.5908 	0
41.6598 	-0.155684 	0.21775 	1.5908 	0
41.73 	-0.155684 	0.21775 	1.5908 	0
41.8001 	-0.155684 	0.21775 	1.5908 	0
41.8702 	-0.155684 	0.21775 	1.5908 	0
41.9404 	-0.155684 	0.21775 	1.5908 	0
42.0105 	-0.164782 	0.165032 	1.59784 	0
42.0806 	-0.164782 	0.165032 	1.59784 	0
42.1508 	-0.164782 	0.165032 	1.59784 	0
42.2209 	-0.164782 	0.165032 	1.59784 	0
42.291 	-0.164782 	0.165032 	1.59784 	0
42.3612 	-0.164782 	0.165032 	1.59784 	0
42.4313 	-0.164782 	0.165032 	1.59784 	0
42.5014 	-0.164782 	0.165032 	1.59784 	0
42.5716 	-0.164782 	0.165032 	1.59784 	0
42.6417 	-0.164782 	0.165032 	1.59784 	0
42.7118 	-0.164782 	0.165032 	1.59784 	0
42.782 	-0.164782 	0.165032 	1.59784 	0
42.8521 	-0.164782 	0.165032 	1.59784 	0
42.9222 	-0.164782 	0.165032 	1.59784 	0
42.9924 	-0.164782 	0.165032 	1.59784 	0
43.0625 	-0.164782 	0.165032 	1.59784 	0
43.1327 	-0.164782 	0.165032 	1.59784 	0
43.2028 	-0.177484 	0.116811 	1.60547 	0
43.2729 	-0.177484 	0.116811 	1.60547 	0
43.3431 	-0.177484 	0.116811 	1.60547 	0
43.4132 	-0.177484 	0.116811 	1.60547 	0
43.4833 	-0.177484 	0.116811 	1.60547 	0
43.5535 	-0.177484 	0.116811 	1.60547 	0
43.6236 	-0.177484 	0.116811 	1.60547 	0
43.6937 	-0.177484 	0.116811 	1.60547 	0
43.7639 	-0.177484 	0.116811 	1.60547 	0
43.834 	-0.177484 	0.116811 	1.60547 	0
43.9041 	-0.177484 	0.116811 	1.60547 	0
43.9743 	-0.177484 	0.116811 	1.60547 	0
44.0444 	-0.177484 	0.116811 	1.60547 	0
44.1145 	-0.177484 	0.116811 	1.60547 	0
44.1847 	-0.177484 	0.116811 	1.60547 	0
44.2548 	-0.177484 	0.116811 	1.60547 	0
44.3249 	-0.177484 	0.116811 	1.60547 	0
44.3951 	-0.177484 	0.116811 	1.60547 	0
44.4652 	-0.187573 	0.0723357 	1.61065 	0