0.490941 	0.980846 	0.00611801 	3.00279 	0
0.561075 	0.980846 	0.00611801 	3.00279 	0
0.63121 	0.980846 	0.00611801 	3.00279 	0
0.701344 	0.980846 	0.00611801 	3.00279 	0
0.771478 	0.980846 	0.00611801 	3.00279 	0
0.841613 	0.980846 	0.00611801 	3.00279 	0
0.911747 	0.980846 	0.00611801 	3.00279 	0
0.981881 	0.980846 	0.00611801 	3.00279 	0
1.05202 	0.980846 	0.00611801 	3.00279 	0
1.12215 	0.980846 	0.00611801 	3.00279 	0
1.19228 	0.980846 	0.00611801 	3.00279 	0
1.26242 	0.954699 	0.0114984 	3.00798 	0
1.33255 	0.954699 	0.0114984 	3.00798 	0
1.40269 	0.954699 	0.0114984 	3.00798 	0
1.47282 	0.954699 	0.0114984 	3.00798 	0
1.54296 	0.954699 	0.0114984 	3.00798 	0
1.61309 	0.954699 	0.0114984 	3.00798 	0
1.68323 	0.954699 	0.0114984 	3.00798 	0
1.75336 	0.954699 	0.0114984 	3.00798 	0
1.82349 	0.904985 	0.0148209 	3.02393 	3.45951e-19
1.89363 	0.904985 	0.0148209 	3.02393 	3.45951e-19
1.96376 	0.904985 	0.0148209 	3.02393 	3.45951e-19
2.0339 	0.904985 	0.0148209 	3.02393 	3.45951e-19
2.10403 	0.904985 	0.0148209 	3.02393 	3.45951e-19
2.17417 	0.904985 	0.0148209 	3.02393 	3.45951e-19
2.2443 	0.904985 	0.0148209 	3.02393 	3.45951e-19
2.31443 	0.904985 	0.0148209 	3.02393 	3.45951e-19
2.38457 	0.904985 	0.0148209 	3.02393 	3.45951e-19
2.4547 	0.904985 	0.0148209 	3.02393 	3.45951e-19
2.52484 	0.904985 	0.0148209 	3.02393 	3.45951e-19
2.59497 	0.870279 	0.00733004 	3.03673 	-5.4447e-19
2.66511 	0.870279 	0.00733004 	3.03673 	-5.4447e-19
2.73524 	0.870279 	0.00733004 	3.03673 	-5.4447e-19
2.80538 	0.870279 	0.00733004 	3.03673 	-5.4447e-19
2.87551 	0.870279 	0.00733004 	3.03673 	-5.4447e-19
2.94564 	0.870279 	0.00733004 	3.03673 	-5.4447e-19
3.01578 	0.870279 	0.00733004 	3.03673 	-5.4447e-19
3.08591 	0.870279 	0.00733004 	3.03673 	-5.4447e-19
3.15605 	0.870279 	0.00733004 	3.03673 	-5.4447e-19
3.22618 	0.870279 	0.00733004 	3.03673 	-5.4447e-19
3.29632 	0.83773 	0.0201499 	3.04344 	5.50938e-19
3.36645 	0.83773 	0.0201499 	3.04344 	5.50938e-19
3.43659 	0.83773 	0.0201499 	3.04344 	5.50938e-19
3.50672 	0.83773 	0.0201499 	3.04344 	5.50938e-19
3.57685 	0.83773 	0.0201499 	3.04344 	5.50938e-19
3.64699 	0.83773 	0.0201499 	3.04344 	5.50938e-19
3.71712 	0.83773 	0.0201499 	3.04344 	5.50938e-19
3.78726 	0.83773 	0.0201499 	3.04344 	5.50938e-19
3.85739 	0.83773 	0.0201499 	3.04344 	5.50938e-19
3.92753 	0.83773 	0.0201499 	3.04344 	5.50938e-19
3.99766 	0.83773 	0.0201499 	3.04344 	5.50938e-19
4.06779 	0.819407 	0.00367165 	3.05019 	-1.54048e-20
4.13793 	0.819407 	0.00367165 	3.05019 	-1.54048e-20
4.20806 	0.819407 	0.00367165 	3.05019 	-1.54048e-20
4.2782 	0.819407 	0.00367165 	3.05019 	-1.54048e-20
4.34833 	0.819407 	0.00367165 	3.05019 	-1.54048e-20
4.41847 	0.819407 	0.00367165 	3.05019 	-1.54048e-20
4.4886 	0.794372 	0.0166622 	3.05789 	0
4.55874 	0.794372 	0.0166622 	3.05789 	0
4.62887 	0.794372 	0.0166622 	3.05789 	0
4.699 	0.794372 	0.0166622 	3.05789 	0
4.76914 	0.794372 	0.0166622 	3.05789 	0
4.83927 	0.794372 	0.0166622 	3.05789 	0
4.90941 	0.794372 	0.0166622 	3.05789 	0
4.97954 	0.794372 	0.0166622 	3.05789 	0
5.04968 	0.794372 	0.0166622 	3.05789 	0
5.11981 	0.794372 	0.0166622 	3.05789 	0
5.18994 	0.77209 	0.00571612 	3.06484 	-7.21122e-21
5.26008 	0.77209 	0.00571612 	3.06484 	-7.21122e-21
5.33021 	0.77209 	0.00571612 	3.06484 	-7.21122e-21
5.40035 	0.77209 	0.00571612 	3.06484 	-7.21122e-21
5.47048 	0.77209 	0.00571612 	3.06484 	-7.21122e-21
5.54062 	0.77209 	0.00571612 	3.06484 	-7.21122e-21
5.61075 	0.77209 	0.00571612 	3.06484 	-7.21122e-21
5.68089 	0.743169 	0.0111185 	3.07434 	0
5.75102 	0.743169 	0.0111185 	3.07434 	0
5.82115 	0.743169 	0.0111185 	3.07434 	0
5.89129 	0.743169 	0.0111185 	3.07434 	0
5.96142 	0.743169 	0.0111185 	3.07434 	0
6.03156 	0.743169 	0.0111185 	3.07434 	0
6.10169 	0.743169 	0.0111185 	3.07434 	0
6.17183 	0.743169 	0.0111185 	3.07434 	0
6.24196 	0.743169 	0.0111185 	3.07434 	0
6.3121 	0.713921 	0.00730026 	3.08278 	0
6.38223 	0.713921 	0.00730026 	3.08278 	0
6.45236 	0.713921 	0.00730026 	3.08278 	0
6.5225 	0.713921 	0.00730026 	3.08278 	0
6.59263 	0.713921 	0.00730026 	3.08278 	0
6.66277 	0.713921 	0.00730026 	3.08278 	0
6.7329 	0.713921 	0.00730026 	3.08278 	0
6.80304 	0.713921 	0.00730026 	3.08278 	0
6.87317 	0.688616 	0.00626865 	3.09116 	2.35261e-19
6.9433 	0.688616 	0.00626865 	3.09116 	2.35261e-19
7.01344 	0.688616 	0.00626865 	3.09116 	2.35261e-19
7.08357 	0.688616 	0.00626865 	3.09116 	2.35261e-19
7.15371 	0.688616 	0.00626865 	3.09116 	2.35261e-19
7.22384 	0.688616 	0.00626865 	3.09116 	2.35261e-19
7.29398 	0.688616 	0.00626865 	3.09116 	2.35261e-19
7.36411 	0.688616 	0.00626865 	3.09116 	2.35261e-19
7.43425 	0.688616 	0.00626865 	3.09116 	2.35261e-19
7.50438 	0.656657 	0.00868384 	3.09929 	-1.73785e-18
7.57451 	0.656657 	0.00868384 	3.09929 	-1.73785e-18
7.64465 	0.656657 	0.00868384 	3.09929 	-1.73785e-18
7.71478 	0.656657 	0.00868384 	3.09929 	-1.73785e-18
7.78492 	0.656657 	0.00868384 	3.09929 	-1.73785e-18
7.85505 	0.656657 	0.00868384 	3.09929 	-1.73785e-18
7.92519 	0.656657 	0.00868384 	3.09929 	-1.73785e-18
7.99532 	0.656657 	0.00868384 	3.09929 	-1.73785e-18
8.06545 	0.637888 	0.00224788 	3.10662 	1.69241e-18
8.13559 	0.637888 	0.00224788 	3.10662 	1.69241e-18
8.20572 	0.637888 	0.00224788 	3.10662 	1.69241e-18
8.27586 	0.637888 	0.00224788 	3.10662 	1.69241e-18
8.34599 	0.637888 	0.00224788 	3.10662 	1.69241e-18
8.41613 	0.637888 	0.00224788 	3.10662 	1.69241e-18
8.48626 	0.637888 	0.00224788 	3.10662 	1.69241e-18
8.5564 	0.637888 	0.00224788 	3.10662 	1.69241e-18
8.62653 	0.637888 	0.00224788 	3.10662 	1.69241e-18
8.69666 	0.607503 	0.0171626 	3.11783 	1.53486e-18
8.7668 	0.607503 	0.0171626 	3.11783 	1.53486e-18
8.83693 	0.607503 	0.0171626 	3.11783 	1.53486e-18
8.90707 	0.607503 	0.0171626 	3.11783 	1.53486e-18
8.9772 	0.607503 	0.0171626 	3.11783 	1.53486e-18
9.04734 	0.607503 	0.0171626 	3.11783 	1.53486e-18
9.11747 	0.607503 	0.0171626 	3.11783 	1.53486e-18
9.18761 	0.607503 	0.0171626 	3.11783 	1.53486e-18
9.25774 	0.577271 	0.0026591 	3.1183 	-1.43394e-18
9.32787 	0.577271 	0.0026591 	3.1183 	-1.43394e-18
9.39801 	0.577271 	0.0026591 	3.1183 	-1.43394e-18
9.46814 	0.577271 	0.0026591 	3.1183 	-1.43394e-18
9.53828 	0.577271 	0.0026591 	3.1183 	-1.43394e-18
9.60841 	0.577271 	0.0026591 	3.1183 	-1.43394e-18
9.67855 	0.577271 	0.0026591 	3.1183 	-1.43394e-18
9.74868 	0.577271 	0.0026591 	3.1183 	-1.43394e-18
9.81881 	0.5597 	0.0162533 	3.12979 	-4.36474e-19
9.88895 	0.5597 	0.0162533 	3.12979 	-4.36474e-19
9.95908 	0.5597 	0.0162533 	3.12979 	-4.36474e-19
10.0292 	0.5597 	0.0162533 	3.12979 	-4.36474e-19
10.0994 	0.5597 	0.0162533 	3.12979 	-4.36474e-19
10.1695 	0.5597 	0.0162533 	3.12979 	-4.36474e-19
10.2396 	0.5597 	0.0162533 	3.12979 	-4.36474e-19
10.3098 	0.5597 	0.0162533 	3.12979 	-4.36474e-19
10.3799 	0.5597 	0.0162533 	3.12979 	-4.36474e-19
10.45 	0.5597 	0.0162533 	3.12979 	-4.36474e-19
10.5202 	0.5597 	0.0162533 	3.12979 	-4.36474e-19
10.5903 	0.5597 	0.0162533 	3.12979 	-4.36474e-19
10.6604 	0.582859 	0.0144284 	3.12579 	6.42405e-19
10.7306 	0.529323 	0.0359893 	3.14016 	0
10.8007 	0.529323 	0.0359893 	3.14016 	0
10.8708 	0.529323 	0.0359893 	3.14016 	0
10.941 	0.529323 	0.0359893 	3.14016 	0
11.0111 	0.529323 	0.0359893 	3.14016 	0
11.0812 	0.529323 	0.0359893 	3.14016 	0
11.1514 	0.529323 	0.0359893 	3.14016 	0
11.2215 	0.529323 	0.0359893 	3.14016 	0
11.2916 	0.529323 	0.0359893 	3.14016 	0
11.3618 	0.529323 	0.0359893 	3.14016 	0
11.4319 	0.529323 	0.0359893 	3.14016 	0
11.502 	0.529323 	0.0359893 	3.14016 	0
11.5722 	0.529323 	0.0359893 	3.14016 	0
11.6423 	0.529323 	0.0359893 	3.14016 	0
11.7124 	0.537574 	0.0234084 	3.12953 	0
11.7826 	0.476342 	0.0776306 	3.16111 	6.97664e-19
11.8527 	0.476342 	0.0776306 	3.16111 	6.97664e-19
11.9228 	0.476342 	0.0776306 	3.16111 	6.97664e-19
11.993 	0.476342 	0.0776306 	3.16111 	6.97664e-19
12.0631 	0.476342 	0.0776306 	3.16111 	6.97664e-19
12.1332 	0.476342 	0.0776306 	3.16111 	6.97664e-19
12.2034 	0.378053 	0.0704855 	3.18721 	-3.27621e-19
12.2735 	0.378053 	0.0704855 	3.18721 	-3.27621e-19
12.3437 	0.378053 	0.0704855 	3.18721 	-3.27621e-19
12.4138 	0.378053 	0.0704855 	3.18721 	-3.27621e-19
12.4839 	0.378053 	0.0704855 	3.18721 	-3.27621e-19
12.5541 	0.378053 	0.0704855 	3.18721 	-3.27621e-19
12.6242 	0.378053 	0.0704855 	3.18721 	-3.27621e-19
12.6943 	0.378053 	0.0704855 	3.18721 	-3.27621e-19
12.7645 	0.378053 	0.0704855 	3.18721 	-3.27621e-19
12.8346 	0.262771 	0.0368567 	3.17964 	2.57336e-19
12.9047 	0.248338 	0.138155 	3.22331 	-9.72734e-20
12.9749 	0.248338 	0.138155 	3.22331 	-9.72734e-20
13.045 	0.248338 	0.138155 	3.22331 	-9.72734e-20
13.1151 	0.248338 	0.138155 	3.22331 	-9.72734e-20
13.1853 	0.248338 	0.138155 	3.22331 	-9.72734e-20
13.2554 	0.248338 	0.138155 	3.22331 	-9.72734e-20
13.3255 	0.248338 	0.138155 	3.22331 	-9.72734e-20
13.3957 	0.475206 	0.143144 	3.19433 	1.1056e-18
13.4658 	0.475206 	0.143144 	3.19433 	1.1056e-18
13.5359 	0.475206 	0.143144 	3.19433 	1.1056e-18
13.6061 	0.475206 	0.143144 	3.19433 	1.1056e-18
13.6762 	0.475206 	0.143144 	3.19433 	1.1056e-18
13.7463 	0.475206 	0.143144 	3.19433 	1.1056e-18
13.8165 	0.554886 	0.116408 	2.86871 	-9.10368e-19
13.8866 	0.757607 	0.139298 	2.96293 	3.30873e-19
13.9567 	0.757607 	0.139298 	2.96293 	3.30873e-19
14.0269 	0.176164 	0.247154 	3.03596 	-1.26056e-18
14.097 	0.176164 	0.247154 	3.03596 	-1.26056e-18
14.1671 	0.176164 	0.247154 	3.03596 	-1.26056e-18
14.2373 	0.176164 	0.247154 	3.03596 	-1.26056e-18
14.3074 	0.176164 	0.247154 	3.03596 	-1.26056e-18
14.3776 	0.176164 	0.247154 	3.03596 	-1.26056e-18
14.4477 	0.176164 	0.247154 	3.03596 	-1.26056e-18
14.5178 	0.176164 	0.247154 	3.03596 	-1.26056e-18
14.588 	0.176164 	0.247154 	3.03596 	-1.26056e-18
14.6581 	0.176164 	0.247154 	3.03596 	-1.26056e-18
14.7282 	0.176164 	0.247154 	3.03596 	-1.26056e-18
14.7984 	0.176164 	0.247154 	3.03596 	-1.26056e-18
14.8685 	0.176164 	0.247154 	3.03596 	-1.26056e-18
14.9386 	-0.000920945 	0.341991 	3.19474 	0
15.0088 	-0.000920945 	0.341991 	3.19474 	0
15.0789 	-0.000920945 	0.341991 	3.19474 	0
15.149 	-0.000920945 	0.341991 	3.19474 	0
15.2192 	-0.000920945 	0.341991 	3.19474 	0
15.2893 	-0.509196 	0.34087 	3.42237 	-3.30402e-19
15.3594 	-0.509196 	0.34087 	3.42237 	-3.30402e-19
15.4296 	-0.509196 	0.34087 	3.42237 	-3.30402e-19
15.4997 	-0.509196 	0.34087 	3.42237 	-3.30402e-19
15.5698 	-0.509196 	0.34087 	3.42237 	-3.30402e-19
15.64 	-0.509196 	0.34087 	3.42237 	-3.30402e-19
15.7101 	-1.00554 	0.396226 	3.4934 	0
15.7802 	-1.00554 	0.396226 	3.4934 	0
15.8504 	-0.90197 	0.648861 	3.55171 	1.46923e-18
15.9205 	-0.90197 	0.648861 	3.55171 	1.46923e-18
15.9906 	-0.90197 	0.648861 	3.55171 	1.46923e-18
16.0608 	-0.90197 	0.648861 	3.55171 	1.46923e-18
16.1309 	-0.90197 	0.648861 	3.55171 	1.46923e-18
16.201 	-0.90197 	0.648861 	3.55171 	1.46923e-18
16.2712 	-0.90197 	0.648861 	3.55171 	1.46923e-18
16.3413 	-0.90197 	0.648861 	3.55171 	1.46923e-18
16.4114 	-0.90197 	0.648861 	3.55171 	1.46923e-18
16.4816 	-0.90197 	0.648861 	3.55171 	1.46923e-18
16.5517 	-0.90197 	0.648861 	3.55171 	1.46923e-18
16.6219 	-0.90197 	0.648861 	3.55171 	1.46923e-18
16.692 	-0.90197 	0.648861 	3.55171 	1.46923e-18
16.7621 	-0.90197 	0.648861 	3.55171 	1.46923e-18
16.8323 	-0.451025 	0.873939 	3.1189 	2.28871e-19
16.9024 	-0.451025 	0.873939 	3.1189 	2.28871e-19
16.9725 	-0.451025 	0.873939 	3.1189 	2.28871e-19
17.0427 	-0.451025 	0.873939 	3.1189 	2.28871e-19
17.1128 	-0.451025 	0.873939 	3.1189 	2.28871e-19
17.1829 	-0.451025 	0.873939 	3.1189 	2.28871e-19
17.2531 	-0.451025 	0.873939 	3.1189 	2.28871e-19
17.3232 	-0.451025 	0.873939 	3.1189 	2.28871e-19
17.3933 	-0.451025 	0.873939 	3.1189 	2.28871e-19
17.4635 	-0.451025 	0.873939 	3.1189 	2.28871e-19
17.5336 	-0.360388 	0.915443 	3.03549 	-2.3499e-19
17.6037 	-0.360388 	0.915443 	3.03549 	-2.3499e-19
17.6739 	-0.360388 	0.915443 	3.03549 	-2.3499e-19
17.744 	-0.452352 	1.04439 	3.16527 	3.10205e-19
17.8141 	-0.452352 	1.04439 	3.16527 	3.10205e-19
17.8843 	-0.452352 	1.04439 	3.16527 	3.10205e-19
17.9544 	-0.452352 	1.04439 	3.16527 	3.10205e-19
18.0245 	-0.452352 	1.04439 	3.16527 	3.10205e-19
18.0947 	-0.452352 	1.04439 	3.16527 	3.10205e-19
18.1648 	-0.452352 	1.04439 	3.16527 	3.10205e-19
18.2349 	-0.452352 	1.04439 	3.16527 	3.10205e-19
18.3051 	-0.452352 	1.04439 	3.16527 	3.10205e-19
18.3752 	-0.162688 	1.00692 	2.76912 	-2.35872e-19
18.4453 	-0.162688 	1.00692 	2.76912 	-2.35872e-19
18.5155 	-0.162688 	1.00692 	2.76912 	-2.35872e-19
18.5856 	-0.162688 	1.00692 	2.76912 	-2.35872e-19
18.6557 	-0.162688 	1.00692 	2.76912 	-2.35872e-19
18.7259 	-0.162688 	1.00692 	2.76912 	-2.35872e-19
18.796 	-0.162688 	1.00692 	2.76912 	-2.35872e-19
18.8662 	-0.0960143 	1.04336 	2.82448 	6.65443e-20
18.9363 	-0.0960143 	1.04336 	2.82448 	6.65443e-20
19.0064 	-0.0960143 	1.04336 	2.82448 	6.65443e-20
19.0766 	-0.0960143 	1.04336 	2.82448 	6.65443e-20
19.1467 	-0.0960143 	1.04336 	2.82448 	6.65443e-20
19.2168 	-0.0960143 	1.04336 	2.82448 	6.65443e-20
19.287 	-0.0960143 	1.04336 	2.82448 	6.65443e-20
19.3571 	-0.0960143 	1.04336 	2.82448 	6.65443e-20
19.4272 	-0.0960143 	1.04336 	2.82448 	6.65443e-20
19.4974 	-0.0960143 	1.04336 	2.82448 	6.65443e-20
19.5675 	-0.0960143 	1.04336 	2.82448 	6.65443e-20
19.6376 	-0.0960143 	1.04336 	2.82448 	6.65443e-20
19.7078 	-0.0960143 	1.04336 	2.82448 	6.65443e-20
19.7779 	0.0517119 	0.993144 	2.45244 	-9.11383e-20
19.848 	0.0517119 	0.993144 	2.45244 	-9.11383e-20
19.9182 	0.0517119 	0.993144 	2.45244 	-9.11383e-20
19.9883 	0.0517119 	0.993144 	2.45244 	-9.11383e-20
20.0584 	0.0517119 	0.993144 	2.45244 	-9.11383e-20
20.1286 	0.0517119 	0.993144 	2.45244 	-9.11383e-20
20.1987 	0.0517119 	0.993144 	2.45244 	-9.11383e-20
20.2688 	0.0469509 	0.997235 	2.4448 	6.24846e-20
20.339 	0.0469509 	0.997235 	2.4448 	6.24846e-20
20.4091 	0.0469509 	0.997235 	2.4448 	6.24846e-20
20.4792 	0.0469509 	0.997235 	2.4448 	6.24846e-20
20.5494 	0.0469509 	0.997235 	2.4448 	6.24846e-20
20.6195 	0.0469509 	0.997235 	2.4448 	6.24846e-20
20.6896 	0.0469509 	0.997235 	2.4448 	6.24846e-20
20.7598 	0.0469509 	0.997235 	2.4448 	6.24846e-20
20.8299 	0.0469509 	0.997235 	2.4448 	6.24846e-20
20.9 	0.0469509 	0.997235 	2.4448 	6.24846e-20
20.9702 	0.0469509 	0.997235 	2.4448 	6.24846e-20
21.0403 	0.0469509 	0.997235 	2.4448 	6.24846e-20
21.1105 	0.0469509 	0.997235 	2.4448 	6.24846e-20
21.1806 	0.0469509 	0.997235 	2.4448 	6.24846e-20
21.2507 	0.0469509 	0.997235 	2.4448 	6.24846e-20
21.3209 	0.0469509 	0.997235 	2.4448 	6.24846e-20
21.391 	0.0469509 	0.997235 	2.4448 	6.24846e-20
21.4611 	0.0600068 	0.703809 	1.91267 	-1.43491e-19
21.5313 	0.0600068 	0.703809 	1.91267 	-1.43491e-19
21.6014 	0.0600068 	0.703809 	1.91267 	-1.43491e-19
21.6715 	-0.0475439 	0.618749 	1.41628 	8.0649e-20
21.7417 	-0.0475439 	0.618749 	1.41628 	8.0649e-20
21.8118 	-0.0475439 	0.618749 	1.41628 	8.0649e-20
21.8819 	-0.0475439 	0.618749 	1.41628 	8.0649e-20
21.9521 	-0.0475439 	0.618749 	1.41628 	8.0649e-20
22.0222 	-0.179521 	0.936346 	2.35082 	-9.60959e-20
22.0923 	-0.179521 	0.936346 	2.35082 	-9.60959e-20
22.1625 	-0.179521 	0.936346 	2.35082 	-9.60959e-20
22.2326 	-0.179521 	0.936346 	2.35082 	-9.60959e-20
22.3027 	-0.179521 	0.936346 	2.35082 	-9.60959e-20
22.3729 	-0.179521 	0.936346 	2.35082 	-9.60959e-20
22.443 	-0.179521 	0.936346 	2.35082 	-9.60959e-20
22.5131 	-0.179521 	0.936346 	2.35082 	-9.60959e-20
22.5833 	-0.179521 	0.936346 	2.35082 	-9.60959e-20
22.6534 	-0.179521 	0.936346 	2.35082 	-9.60959e-20
22.7235 	-0.179521 	0.936346 	2.35082 	-9.60959e-20
22.7937 	-0.179521 	0.936346 	2.35082 	-9.60959e-20
22.8638 	-0.179521 	0.936346 	2.35082 	-9.60959e-20
22.9339 	-0.179521 	0.936346 	2.35082 	-9.60959e-20
23.0041 	-0.179521 	0.936346 	2.35082 	-9.60959e-20
23.0742 	-0.179521 	0.936346 	2.35082 	-9.60959e-20
23.1443 	-0.179521 	0.936346 	2.35082 	-9.60959e-20
23.2145 	-0.179521 	0.936346 	2.35082 	-9.60959e-20
23.2846 	-0.179521 	0.936346 	2.35082 	-9.60959e-20
23.3548 	-0.179521 	0.936346 	2.35082 	-9.60959e-20
23.4249 	-0.179521 	0.936346 	2.35082 	-9.60959e-20
23.495 	0.00586942 	0.903208 	2.32989 	-2.21441e-20
23.5652 	0.00586942 	0.903208 	2.32989 	-2.21441e-20
23.6353 	0.00586942 	0.903208 	2.32989 	-2.21441e-20
23.7054 	0.00586942 	0.903208 	2.32989 	-2.21441e-20
23.7756 	0.00586942 	0.903208 	2.32989 	-2.21441e-20
23.8457 	0.00586942 	0.903208 	2.32989 	-2.21441e-20
23.9158 	0.00586942 	0.903208 	2.32989 	-2.21441e-20
23.986 	0.131465 	0.845077 	2.19775 	9.2457e-22
24.0561 	0.131465 	0.845077 	2.19775 	9.2457e-22
24.1262 	0.131465 	0.845077 	2.19775 	9.2457e-22
24.1964 	0.131465 	0.845077 	2.19775 	9.2457e-22
24.2665 	0.131465 	0.845077 	2.19775 	9.2457e-22
24.3366 	0.131465 	0.845077 	2.19775 	9.2457e-22
24.4068 	0.131465 	0.845077 	2.19775 	9.2457e-22
24.4769 	0.131465 	0.845077 	2.19775 	9.2457e-22
24.547 	0.131465 	0.845077 	2.19775 	9.2457e-22
24.6172 	0.131465 	0.845077 	2.19775 	9.2457e-22
24.6873 	0.131465 	0.845077 	2.19775 	9.2457e-22
24.7574 	0.131465 	0.845077 	2.19775 	9.2457e-22
24.8276 	0.131465 	0.845077 	2.19775 	9.2457e-22
24.8977 	0.131465 	0.845077 	2.19775 	9.2457e-22
24.9678 	0.131465 	0.845077 	2.19775 	9.2457e-22
25.038 	0.131465 	0.845077 	2.19775 	9.2457e-22
25.1081 	0.131465 	0.845077 	2.19775 	9.2457e-22
25.1782 	0.0786055 	0.504736 	1.37044 	0
25.2484 	0.0786055 	0.504736 	1.37044 	0
25.3185 	0.0786055 	0.504736 	1.37044 	0
25.3886 	0.0786055 	0.504736 	1.37044 	0
25.4588 	0.0786055 	0.504736 	1.37044 	0
25.5289 	0.0786055 	0.504736 	1.37044 	0
25.5991 	0.0786055 	0.504736 	1.37044 	0
25.6692 	0.0786055 	0.504736 	1.37044 	0
25.7393 	0.0786055 	0.504736 	1.37044 	0
25.8095 	0.0786055 	0.504736 	1.37044 	0
25.8796 	0.0786055 	0.504736 	1.37044 	0
25.9497 	0.0786055 	0.504736 	1.37044 	0
26.0199 	0.0786055 	0.504736 	1.37044 	0
26.09 	0.0786055 	0.504736 	1.37044 	0
26.1601 	0.0786055 	0.504736 	1.37044 	0
26.2303 	-0.0165288 	0.498093 	1.37996 	9.07367e-20
26.3004 	-0.0165288 	0.498093 	1.37996 	9.07367e-20
26.3705 	-0.0165288 	0.498093 	1.37996 	9.07367e-20
26.4407 	-0.0165288 	0.498093 	1.37996 	9.07367e-20
26.5108 	-0.0165288 	0.498093 	1.37996 	9.07367e-20
26.5809 	-0.0165288 	0.498093 	1.37996 	9.07367e-20
26.6511 	-0.0165288 	0.498093 	1.37996 	9.07367e-20
26.7212 	-0.0165288 	0.498093 	1.37996 	9.07367e-20
26.7913 	-0.0165288 	0.498093 	1.37996 	9.07367e-20
26.8615 	-0.0165288 	0.498093 	1.37996 	9.07367e-20
26.9316 	-0.0165288 	0.498093 	1.37996 	9.07367e-20
27.0017 	-0.0165288 	0.498093 	1.37996 	9.07367e-20
27.0719 	-0.0165288 	0.498093 	1.37996 	9.07367e-20
27.142 	-0.0165288 	0.498093 	1.37996 	9.07367e-20
27.2121 	-0.0165288 	0.498093 	1.37996 	9.07367e-20
27.2823 	-0.0165288 	0.498093 	1.37996 	9.07367e-20
27.3524 	-0.0725678 	0.490874 	1.38545 	-9.4571e-20
27.4225 	-0.0725678 	0.490874 	1.38545 	-9.4571e-20
27.4927 	-0.0725678 	0.490874 	1.38545 	-9.4571e-20
27.5628 	-0.0725678 	0.490874 	1.38545 	-9.4571e-20
27.6329 	-0.0725678 	0.490874 	1.38545 	-9.4571e-20
27.7031 	-0.0725678 	0.490874 	1.38545 	-9.4571e-20
27.7732 	-0.0725678 	0.490874 	1.38545 	-9.4571e-20
27.8434 	-0.0725678 	0.490874 	1.38545 	-9.4571e-20
27.9135 	-0.0725678 	0.490874 	1.38545 	-9.4571e-20
27.9836 	-0.0725678 	0.490874 	1.38545 	-9.4571e-20
28.0538 	-0.0725678 	0.490874 	1.38545 	-9.4571e-20
28.1239 	-0.0725678 	0.490874 	1.38545 	-9.4571e-20
28.194 	-0.0725678 	0.490874 	1.38545 	-9.4571e-20
28.2642 	-0.0725678 	0.490874 	1.38545 	-9.4571e-20
28.3343 	-0.0725678 	0.490874 	1.38545 	-9.4571e-20
28.4044 	-0.0725678 	0.490874 	1.38545 	-9.4571e-20
28.4746 	-0.0725678 	0.490874 	1.38545 	-9.4571e-20
28.5447 	-0.0725678 	0.490874 	1.38545 	-9.4571e-20
28.6148 	-0.0725678 	0.490874 	1.38545 	-9.4571e-20
28.685 	-0.0725678 	0.490874 	1.38545 	-9.4571e-20
28.7551 	-0.0725678 	0.490874 	1.38545 	-9.4571e-20
28.8252 	-0.0725678 	0.490874 	1.38545 	-9.4571e-20
28.8954 	-0.0725678 	0.490874 	1.38545 	-9.4571e-20
28.9655 	-0.117858 	0.433813 	1.29452 	-9.7979e-21
29.0356 	-0.117858 	0.433813 	1.29452 	-9.7979e-21
29.1058 	-0.117858 	0.433813 	1.29452 	-9.7979e-21
29.1759 	-0.117858 	0.433813 	1.29452 	-9.7979e-21
29.246 	-0.117858 	0.433813 	1.29452 	-9.7979e-21
29.3162 	-0.117858 	0.433813 	1.29452 	-9.7979e-21
29.3863 	-0.117858 	0.433813 	1.29452 	-9.7979e-21
29.4564 	-0.117858 	0.433813 	1.29452 	-9.7979e-21
29.5266 	-0.117858 	0.433813 	1.29452 	-9.7979e-21
29.5967 	-0.117858 	0.433813 	1.29452 	-9.7979e-21
29.6668 	-0.117858 	0.433813 	1.29452 	-9.7979e-21
29.737 	-0.117858 	0.433813 	1.29452 	-9.7979e-21
29.8071 	-0.117858 	0.433813 	1.29452 	-9.7979e-21
29.8773 	-0.117858 	0.433813 	1.29452 	-9.7979e-21
29.9474 	-0.117858 	0.433813 	1.29452 	-9.7979e-21
30.0175 	-0.117858 	0.433813 	1.29452 	-9.7979e-21
30.0877 	-0.117858 	0.433813 	1.29452 	-9.7979e-21
30.1578 	-0.117858 	0.433813 	1.29452 	-9.7979e-21
30.2279 	-0.117858 	0.433813 	1.29452 	-9.7979e-21
30.2981 	-0.117858 	0.433813 	1.29452 	-9.7979e-21
30.3682 	-0.117858 	0.433813 	1.29452 	-9.7979e-21
30.4383 	-0.117858 	0.433813 	1.29452 	-9.7979e-21
30.5085 	-0.117858 	0.433813 	1.29452 	-9.7979e-21
30.5786 	-0.117858 	0.433813 	1.29452 	-9.7979e-21
30.6487 	-0.117858 	0.433813 	1.29452 	-9.7979e-21
30.7189 	-0.117858 	0.433813 	1.29452 	-9.7979e-21
30.789 	-0.127892 	0.361357 	1.28009 	3.13876e-19
30.8591 	-0.127892 	0.361357 	1.28009 	3.13876e-19
30.9293 	-0.127892 	0.361357 	1.28009 	3.13876e-19
30.9994 	-0.127892 	0.361357 	1.28009 	3.13876e-19
31.0695 	-0.127892 	0.361357 	1.28009 	3.13876e-19
31.1397 	-0.127892 	0.361357 	1.28009 	3.13876e-19
31.2098 	-0.127892 	0.361357 	1.28009 	3.13876e-19
31.2799 	-0.127892 	0.361357 	1.28009 	3.13876e-19
31.3501 	-0.127892 	0.361357 	1.28009 	3.13876e-19
31.4202 	-0.127892 	0.361357 	1.28009 	3.13876e-19
31.4903 	-0.127892 	0.361357 	1.28009 	3.13876e-19
31.5605 	-0.127892 	0.361357 	1.28009 	3.13876e-19
31.6306 	-0.127892 	0.361357 	1.28009 	3.13876e-19
31.7007 	-0.127892 	0.361357 	1.28009 	3.13876e-19
31.7709 	-0.127892 	0.361357 	1.28009 	3.13876e-19
31.841 	-0.127892 	0.361357 	1.28009 	3.13876e-19
31.9111 	-0.127892 	0.361357 	1.28009 	3.13876e-19
31.9813 	-0.127892 	0.361357 	1.28009 	3.13876e-19
32.0514 	-0.127892 	0.361357 	1.28009 	3.13876e-19
32.1216 	-0.127892 	0.361357 	1.28009 	3.13876e-19
32.1917 	-0.127892 	0.361357 	1.28009 	3.13876e-19
32.2618 	-0.127892 	0.361357 	1.28009 	3.13876e-19
32.332 	-0.127892 	0.361357 	1.28009 	3.13876e-19
32.4021 	-0.127892 	0.361357 	1.28009 	3.13876e-19
32.4722 	-0.127892 	0.361357 	1.28009 	3.13876e-19
32.5424 	-0.127892 	0.361357 	1.28009 	3.13876e-19
32.6125 	-0.127892 	0.361357 	1.28009 	3.13876e-19
32.6826 	-0.127892 	0.361357 	1.28009 	3.13876e-19
32.7528 	-0.127892 	0.361357 	1.28009 	3.13876e-19
32.8229 	-0.127892 	0.361357 	1.28009 	3.13876e-19
32.893 	-0.127892 	0.361357 	1.28009 	3.13876e-19
32.9632 	-0.127892 	0.361357 	1.28009 	3.13876e-19
33.0333 	-0.127892 	0.361357 	1.28009 	3.13876e-19
33.1034 	-0.127892 	0.361357 	1.28009 	3.13876e-19
33.1736 	-0.127892 	0.361357 	1.28009 	3.13876e-19
33.2437 	-0.127892 	0.361357 	1.28009 	3.13876e-19
33.3138 	-0.127892 	0.361357 	1.28009 	3.13876e-19
33.384 	-0.127892 	0.361357 	1.28009 	3.13876e-19
33.4541 	-0.127892 	0.361357 	1.28009 	3.13876e-19
33.5242 	-0.127892 	0.361357 	1.28009 	3.13876e-19
33.5944 	-0.127892 	0.361357 	1.28009 	3.13876e-19
33.6645 	-0.127892 	0.361357 	1.28009 	3.13876e-19
33.7346 	-0.163235 	0.361037 	1.35354 	-1.95742e-19
33.8048 	-0.163235 	0.361037 	1.35354 	-1.95742e-19
33.8749 	-0.163235 	0.361037 	1.35354 	-1.95742e-19
33.945 	-0.163235 	0.361037 	1.35354 	-1.95742e-19
34.0152 	-0.163235 	0.361037 	1.35354 	-1.95742e-19
34.0853 	-0.163235 	0.361037 	1.35354 	-1.95742e-19
34.1554 	-0.169422 	0.268087 	1.30313 	1.20537e-19
34.2256 	-0.169422 	0.268087 	1.30313 	1.20537e-19
34.2957 	-0.169422 	0.268087 	1.30313 	1.20537e-19
34.3659 	-0.169422 	0.268087 	1.30313 	1.20537e-19
34.436 	-0.169422 	0.268087 	1.30313 	1.20537e-19
34.5061 	-0.169422 	0.268087 	1.30313 	1.20537e-19
34.5763 	-0.169422 	0.268087 	1.30313 	1.20537e-19
34.6464 	-0.169422 	0.268087 	1.30313 	1.20537e-19
34.7165 	0.0386638 	0.259561 	1.61563 	-5.77562e-20
34.7867 	0.0386638 	0.259561 	1.61563 	-5.77562e-20
34.8568 	0.0386638 	0.259561 	1.61563 	-5.77562e-20
34.9269 	0.0386638 	0.259561 	1.61563 	-5.77562e-20
34.9971 	0.0386638 	0.259561 	1.61563 	-5.77562e-20
35.0672 	0.0386638 	0.259561 	1.61563 	-5.77562e-20
35.1373 	0.0386638 	0.259561 	1.61563 	-5.77562e-20
35.2075 	0.0386638 	0.259561 	1.61563 	-5.77562e-20
35.2776 	0.0386638 	0.259561 	1.61563 	-5.77562e-20
35.3477 	0.0386638 	0.259561 	1.61563 	-5.77562e-20
35.4179 	0.0386638 	0.259561 	1.61563 	-5.77562e-20
35.488 	0.0386638 	0.259561 	1.61563 	-5.77562e-20
35.5581 	0.0386638 	0.259561 	1.61563 	-5.77562e-20
35.6283 	0.0386638 	0.259561 	1.61563 	-5.77562e-20
35.6984 	0.0386638 	0.259561 	1.61563 	-5.77562e-20
35.7685 	0.0386638 	0.259561 	1.61563 	-5.77562e-20
35.8387 	0.0386638 	0.259561 	1.61563 	-5.77562e-20
35.9088 	0.0386638 	0.259561 	1.61563 	-5.77562e-20
35.9789 	0.0386638 	0.259561 	1.61563 	-5.77562e-20
36.0491 	0.0135146 	0.234097 	1.57396 	0
36.1192 	0.0135146 	0.234097 	1.57396 	0
36.1893 	0.0135146 	0.234097 	1.57396 	0
36.2595 	0.0135146 	0.234097 	1.57396 	0
36.3296 	0.0135146 	0.234097 	1.57396 	0
36.3997 	0.0135146 	0.234097 	1.57396 	0
36.4699 	0.0135146 	0.234097 	1.57396 	0
36.54 	0.0135146 	0.234097 	1.57396 	0
36.6102 	0.0135146 	0.234097 	1.57396 	0
36.6803 	0.0135146 	0.234097 	1.57396 	0
36.7504 	0.0135146 	0.234097 	1.57396 	0
36.8206 	0.0135146 	0.234097 	1.57396 	0
36.8907 	-0.113925 	0.182877 	1.44098 	-9.5799e-20
36.9608 	-0.113925 	0.182877 	1.44098 	-9.5799e-20
37.031 	-0.113925 	0.182877 	1.44098 	-9.5799e-20
37.1011 	-0.113925 	0.182877 	1.44098 	-9.5799e-20
37.1712 	-0.113925 	0.182877 	1.44098 	-9.5799e-20
37.2414 	-0.113925 	0.182877 	1.44098 	-9.5799e-20
37.3115 	-0.113925 	0.182877 	1.44098 	-9.5799e-20
37.3816 	-0.113925 	0.182877 	1.44098 	-9.5799e-20
37.4518 	-0.113925 	0.182877 	1.44098 	-9.5799e-20
37.5219 	-0.113925 	0.182877 	1.44098 	-9.5799e-20
37.592 	-0.113925 	0.182877 	1.44098 	-9.5799e-20
37.6622 	-0.113925 	0.182877 	1.44098 	-9.5799e-20
37.7323 	-0.113925 	0.182877 	1.44098 	-9.5799e-20
37.8024 	-0.113925 	0.182877 	1.44098 	-9.5799e-20
37.8726 	-0.113925 	0.182877 	1.44098 	-9.5799e-20
37.9427 	-0.113925 	0.182877 	1.44098 	-9.5799e-20
38.0128 	-0.113925 	0.182877 	1.44098 	-9.5799e-20
38.083 	-0.113925 	0.182877 	1.44098 	-9.5799e-20
38.1531 	-0.113925 	0.182877 	1.44098 	-9.5799e-20
38.2232 	-0.0873936 	0.123108 	1.58982 	1.0978e-19
38.2934 	-0.0873936 	0.123108 	1.58982 	1.0978e-19
38.3635 	-0.0873936 	0.123108 	1.58982 	1.0978e-19
38.4336 	-0.0873936 	0.123108 	1.58982 	1.0978e-19
38.5038 	-0.0873936 	0.123108 	1.58982 	1.0978e-19
38.5739 	-0.0873936 	0.123108 	1.58982 	1.0978e-19
38.644 	-0.0873936 	0.123108 	1.58982 	1.0978e-19
38.7142 	-0.0873936 	0.123108 	1.58982 	1.0978e-19
38.7843 	-0.0873936 	0.123108 	1.58982 	1.0978e-19
38.8545 	-0.0873936 	0.123108 	1.58982 	1.0978e-19
38.9246 	-0.0873936 	0.123108 	1.58982 	1.0978e-19
38.9947 	-0.0873936 	0.123108 	1.58982 	1.0978e-19
39.0649 	-0.0873936 	0.123108 	1.58982 	1.0978e-19
39.135 	-0.0873936 	0.123108 	1.58982 	1.0978e-19
39.2051 	-0.119989 	0.110199 	1.55921 	0
39.2753 	-0.119989 	0.110199 	1.55921 	0
39.3454 	-0.119989 	0.110199 	1.55921 	0
39.4155 	-0.119989 	0.110199 	1.55921 	0
39.4857 	-0.119989 	0.110199 	1.55921 	0
39.5558 	-0.119989 	0.110199 	1.55921 	0
39.6259 	-0.119989 	0.110199 	1.55921 	0
39.6961 	-0.119989 	0.110199 	1.55921 	0
39.7662 	-0.119989 	0.110199 	1.55921 	0
39.8363 	-0.119989 	0.110199 	1.55921 	0
39.9065 	-0.119989 	0.110199 	1.55921 	0
39.9766 	-0.119989 	0.110199 	1.55921 	0
40.0467 	-0.119989 	0.110199 	1.55921 	0
40.1169 	-0.119989 	0.110199 	1.55921 	0
40.187 	-0.119989 	0.110199 	1.55921 	0
40.2571 	-0.119989 	0.110199 	1.55921 	0
40.3273 	-0.119989 	0.110199 	1.55921 	0
40.3974 	-0.119989 	0.110199 	1.55921 	0
40.4675 	-0.119989 	0.110199 	1.55921 	0
40.5377 	-0.119989 	0.110199 	1.55921 	0
40.6078 	-0.119989 	0.110199 	1.55921 	0
40.6779 	-0.132236 	0.101678 	1.49549 	7.6447e-20
40.7481 	-0.132236 	0.101678 	1.49549 	7.6447e-20
40.8182 	-0.132236 	0.101678 	1.49549 	7.6447e-20
40.8883 	-0.132236 	0.101678 	1.49549 	7.6447e-20
40.9585 	-0.132236 	0.101678 	1.49549 	7.6447e-20
41.0286 	-0.132236 	0.101678 	1.49549 	7.6447e-20
41.0988 	-0.132236 	0.101678 	1.49549 	7.6447e-20
41.1689 	-0.132236 	0.101678 	1.49549 	7.6447e-20
41.239 	-0.131186 	0.0910544 	1.5285 	-1.43439e-19
41.3092 	-0.131186 	0.0910544 	1.5285 	-1.43439e-19
41.3793 	-0.131186 	0.0910544 	1.5285 	-1.43439e-19
41.4494 	-0.131186 	0.0910544 	1.5285 	-1.43439e-19
41.5196 	-0.131186 	0.0910544 	1.5285 	-1.43439e-19
41.5897 	-0.131186 	0.0910544 	1.5285 	-1.43439e-19
41.6598 	-0.131186 	0.0910544 	1.5285 	-1.43439e-19
41.73 	-0.131186 	0.0910544 	1.5285 	-1.43439e-19
41.8001 	-0.131186 	0.0910544 	1.5285 	-1.43439e-19
41.8702 	-0.131186 	0.0910544 	1.5285 	-1.43439e-19
41.9404 	-0.131186 	0.0910544 	1.5285 	-1.43439e-19
42.0105 	-0.131186 	0.0910544 	1.5285 	-1.43439e-19
42.0806 	-0.131186 	0.0910544 	1.5285 	-1.43439e-19
42.1508 	-0.131186 	0.0910544 	1.5285 	-1.43439e-19
42.2209 	-0.131186 	0.0910544 	1.5285 	-1.43439e-19
42.291 	-0.131186 	0.0910544 	1.5285 	-1.43439e-19
42.3612 	-0.131186 	0.0910544 	1.5285 	-1.43439e-19
42.4313 	-0.131186 	0.0910544 	1.5285 	-1.43439e-19
42.5014 	-0.131186 	0.0910544 	1.5285 	-1.43439e-19
42.5716 	-0.131186 	0.0910544 	1.5285 	-1.43439e-19
42.6417 	-0.131186 	0.0910544 	1.5285 	-1.43439e-19
42.7118 	-0.13948 	0.0897717 	1.50494 	0
42.782 	-0.13948 	0.0897717 	1.50494 	0
42.8521 	-0.13948 	0.0897717 	1.50494 	0
42.9222 	-0.13948 	0.0897717 	1.50494 	0
42.9924 	-0.117656 	0.0342713 	1.57411 	0
43.0625 	-0.117656 	0.0342713 	1.57411 	0
43.1327 	-0.117656 	0.0342713 	1.57411 	0
43.2028 	-0.117656 	0.0342713 	1.57411 	0
43.2729 	-0.117656 	0.0342713 	1.57411 	0
43.3431 	-0.117656 	0.0342713 	1.57411 	0