/*--------------------------------*- C++ -*----------------------------------*\
| =========                 |                                                 |
| \\      /  F ield         | OpenFOAM: The Open Source CFD Toolbox           |
|  \\    /   O peration     | Version:  2306                                  |
|   \\  /    A nd           | Website:  www.openfoam.com                      |
|    \\/     M anipulation  |                                                 |
\*---------------------------------------------------------------------------*/
FoamFile
{
    version     2.0;
    format      ascii;
    arch        "LSB;label=32;scalar=64";
    class       volScalarField;
    location    "64";
    object      p;
}
// * * * * * * * * * * * * * * * * * * * * * * * * * * * * * * * * * * * * * //

dimensions      [0 2 -2 0 0 0 0];

internalField   nonuniform List<scalar> 
8800
(
0.867972
0.819922
0.781547
0.752906
0.732284
0.717534
0.706937
0.699442
0.694618
0.692576
0.693882
0.69812
0.704814
0.714171
0.726941
0.74454
0.768991
0.802609
0.84506
0.902186
0.700499
0.707705
0.716145
0.719562
0.717649
0.712128
0.705419
0.699264
0.694518
0.69168
0.691429
0.693979
0.698523
0.704546
0.711474
0.718107
0.722248
0.72174
0.715683
0.70671
0.677197
0.683375
0.687575
0.690938
0.693441
0.694242
0.693138
0.691002
0.68898
0.688094
0.689095
0.691527
0.694389
0.696629
0.697179
0.695661
0.692823
0.689193
0.684663
0.680878
0.672047
0.674748
0.67747
0.679783
0.681432
0.682763
0.683678
0.683891
0.683644
0.683634
0.684425
0.685618
0.686439
0.686401
0.685625
0.684444
0.682706
0.680214
0.677794
0.676263
0.666833
0.668255
0.670057
0.672114
0.67387
0.675181
0.676215
0.6771
0.677797
0.678424
0.679113
0.679608
0.679672
0.679348
0.678673
0.677485
0.675801
0.673931
0.672613
0.67179
0.661797
0.662711
0.66395
0.665534
0.667191
0.668722
0.670003
0.671096
0.672116
0.673074
0.673808
0.674157
0.674132
0.673728
0.672882
0.671684
0.670348
0.669092
0.668275
0.66773
0.656894
0.657559
0.658519
0.659823
0.661243
0.662724
0.664184
0.665524
0.666758
0.667921
0.668801
0.66922
0.669181
0.668705
0.667911
0.666969
0.66597
0.665058
0.664478
0.664077
0.652097
0.65261
0.653393
0.654524
0.655807
0.657195
0.658666
0.660169
0.661636
0.663031
0.664109
0.664644
0.664666
0.66431
0.663729
0.663023
0.662269
0.661596
0.661168
0.660854
0.647341
0.647749
0.648405
0.649414
0.650626
0.651965
0.653432
0.655023
0.656694
0.658361
0.659689
0.660416
0.660633
0.660503
0.660152
0.659661
0.659111
0.658632
0.658314
0.658059
0.642543
0.642875
0.643443
0.644373
0.645538
0.646864
0.648366
0.650056
0.651919
0.653883
0.655534
0.656561
0.65706
0.657189
0.657072
0.656807
0.656452
0.656133
0.6559
0.655686
0.637613
0.637889
0.638396
0.639281
0.640429
0.641781
0.64336
0.645192
0.647287
0.649591
0.651651
0.653066
0.653904
0.654327
0.654465
0.654427
0.654268
0.654092
0.653926
0.65374
0.632464
0.632696
0.633164
0.634034
0.635205
0.636626
0.638324
0.640353
0.642746
0.645474
0.648034
0.649914
0.651148
0.651909
0.652333
0.652532
0.65257
0.652524
0.652414
0.652248
0.627003
0.6272
0.627649
0.628533
0.629768
0.631304
0.633175
0.635469
0.638243
0.6415
0.644667
0.6471
0.648797
0.649944
0.650689
0.65114
0.651392
0.651469
0.651406
0.651254
0.621128
0.621297
0.621744
0.622671
0.624012
0.625713
0.627824
0.630463
0.633719
0.637632
0.641535
0.644626
0.646869
0.64846
0.649572
0.650328
0.650792
0.650987
0.650964
0.65082
0.614719
0.614864
0.615324
0.616324
0.617817
0.619743
0.622173
0.625252
0.629113
0.633832
0.638624
0.642504
0.645394
0.647508
0.649038
0.650125
0.650831
0.651151
0.651165
0.651025
0.607639
0.607759
0.608246
0.609351
0.611047
0.613268
0.616104
0.619742
0.624357
0.630061
0.635927
0.640747
0.644402
0.647133
0.649157
0.650627
0.651604
0.652051
0.652099
0.651959
0.599698
0.599799
0.60033
0.601576
0.603535
0.606128
0.609483
0.613823
0.61937
0.626275
0.633435
0.639378
0.643937
0.647394
0.650008
0.651926
0.653206
0.653787
0.653867
0.653723
0.590677
0.590778
0.591363
0.592768
0.595057
0.598136
0.60215
0.60737
0.61407
0.622442
0.631155
0.63843
0.644055
0.648364
0.651678
0.654117
0.65574
0.656465
0.656573
0.656421
0.580256
0.580339
0.581015
0.582644
0.585368
0.589068
0.593914
0.600239
0.608371
0.618531
0.629101
0.637943
0.644821
0.650135
0.654245
0.657307
0.659314
0.660187
0.66032
0.660157
0.56806
0.568128
0.568904
0.570847
0.57413
0.578626
0.584536
0.592261
0.602176
0.614513
0.627293
0.637969
0.646299
0.652781
0.657825
0.661596
0.664023
0.665045
0.665197
0.665019
0.553534
0.553591
0.554511
0.556871
0.560891
0.566436
0.573732
0.583249
0.595395
0.610375
0.625764
0.638565
0.648557
0.656375
0.662496
0.667067
0.669939
0.671101
0.671262
0.671066
0.535909
0.535956
0.537088
0.540032
0.545063
0.552025
0.561168
0.573018
0.587969
0.606148
0.624581
0.639805
0.651668
0.660996
0.668299
0.673766
0.677087
0.678365
0.678522
0.678305
0.514021
0.514066
0.515544
0.519369
0.525855
0.534813
0.546487
0.561419
0.579905
0.601921
0.623849
0.641772
0.655702
0.66669
0.675291
0.681687
0.685421
0.686771
0.686904
0.686666
0.486106
0.486172
0.488245
0.493493
0.502239
0.514133
0.529379
0.548409
0.571316
0.597861
0.623718
0.644568
0.66071
0.673454
0.683444
0.690749
0.6948
0.69615
0.696237
0.69598
0.449127
0.449298
0.452588
0.460458
0.473016
0.489405
0.509745
0.534155
0.562463
0.59422
0.624373
0.648308
0.66674
0.6813
0.692679
0.700765
0.704966
0.706217
0.706237
0.705965
0.39725
0.398254
0.404804
0.418072
0.437257
0.460597
0.487963
0.519166
0.553832
0.591367
0.626041
0.653112
0.673825
0.690125
0.702801
0.711432
0.715537
0.716587
0.716528
0.716249
0.321711
0.329078
0.344166
0.367444
0.396504
0.429142
0.465077
0.504087
0.545797
0.589592
0.629103
0.659514
0.682681
0.700869
0.714752
0.723698
0.727552
0.72838
0.728273
0.728029
0.240855
0.257769
0.282188
0.316223
0.355604
0.397671
0.442232
0.489229
0.538362
0.589069
0.634283
0.668814
0.694932
0.715328
0.730542
0.739447
0.742708
0.743264
0.743188
0.74303
0.172796
0.192874
0.225103
0.26833
0.316841
0.367795
0.420738
0.47558
0.531999
0.589421
0.640058
0.678416
0.70725
0.729482
0.745426
0.753939
0.756732
0.757216
0.757203
0.757092
0.117026
0.138969
0.176685
0.226402
0.282099
0.340544
0.400923
0.462993
0.526283
0.590109
0.645905
0.687857
0.719154
0.742968
0.759595
0.76811
0.770713
0.771181
0.771193
0.771112
0.0707454
0.0939119
0.135405
0.19027
0.251726
0.316355
0.383103
0.451587
0.521167
0.591015
0.65174
0.697131
0.730794
0.756203
0.773656
0.782356
0.785102
0.785508
0.78554
0.785477
0.0315151
0.0553744
0.0997501
0.158663
0.224978
0.294867
0.367144
0.441337
0.516672
0.592154
0.657574
0.706286
0.742279
0.769264
0.787654
0.79682
0.799687
0.800123
0.800161
0.800127
-0.00269792
0.0216049
0.0682557
0.130521
0.200944
0.275423
0.352621
0.431974
0.5126
0.593363
0.663265
0.715198
0.753476
0.782026
0.801361
0.811111
0.814234
0.814723
0.814815
0.814778
-0.0333959
-0.00871188
0.0397942
0.104924
0.178893
0.257404
0.33902
0.423086
0.508638
0.594416
0.66863
0.723679
0.764153
0.794245
0.814489
0.824769
0.828164
0.828725
0.828784
0.828776
-0.0615631
-0.0365421
0.0135537
0.0811544
0.158239
0.240328
0.325927
0.414332
0.504517
0.595087
0.673475
0.731545
0.774124
0.805616
0.826775
0.837562
0.841203
0.841866
0.8419
0.84189
-0.0880027
-0.0626037
-0.0110618
0.0586688
0.138549
0.223836
0.313043
0.40545
0.499987
0.595167
0.677649
0.738679
0.783295
0.81615
0.838094
0.849249
0.853086
0.853805
0.853819
0.853796
-0.113106
-0.0873228
-0.0345015
0.0371239
0.11951
0.207665
0.300143
0.396239
0.49488
0.594529
0.681071
0.745048
0.79165
0.825759
0.848235
0.859727
0.863702
0.864445
0.864443
0.864404
-0.137311
-0.111056
-0.0572144
0.0162871
0.100896
0.191623
0.287077
0.386574
0.48908
0.59306
0.683669
0.75065
0.799223
0.834474
0.857462
0.869085
0.873065
0.873819
0.873774
0.873713
-0.160755
-0.134033
-0.0791883
-0.00401781
0.0825675
0.175604
0.273753
0.376378
0.482506
0.590685
0.6854
0.755501
0.806117
0.842467
0.865814
0.877407
0.88135
0.882067
0.881996
0.881915
-0.183588
-0.156399
-0.100516
-0.0238989
0.0644571
0.159558
0.260129
0.365604
0.475109
0.587341
0.686213
0.759623
0.812436
0.849893
0.873465
0.884904
0.888684
0.889324
0.889237
0.889137
-0.205937
-0.178207
-0.121331
-0.0433995
0.0465278
0.143469
0.246205
0.354256
0.466877
0.58298
0.686055
0.763023
0.818297
0.856949
0.880617
0.891696
0.895197
0.895724
0.895598
0.89548
-0.227841
-0.199479
-0.141691
-0.0625316
0.0287979
0.127352
0.232011
0.342365
0.457822
0.577568
0.684862
0.765673
0.823784
0.86383
0.88748
0.89795
0.900976
0.901325
0.901168
0.901044
-0.249157
-0.220196
-0.161525
-0.0812774
0.0112885
0.111263
0.217598
0.32999
0.447988
0.571115
0.682561
0.767504
0.828918
0.870748
0.894397
0.903928
0.906169
0.906225
0.906029
0.905911
-0.269862
-0.240332
-0.180834
-0.0995953
-0.00595238
0.0952505
0.203047
0.317201
0.437445
0.563636
0.679092
0.768397
0.833641
0.877859
0.901817
0.910174
0.911103
0.910534
0.910275
0.910219
-0.290028
-0.259852
-0.199598
-0.117465
-0.0228687
0.0793926
0.188438
0.304093
0.426275
0.555184
0.674396
0.768203
0.837791
0.885133
0.910176
0.917608
0.91666
0.914657
0.914053
0.914274
-0.30949
-0.278748
-0.217762
-0.134833
-0.0394085
0.063768
0.173863
0.290771
0.414587
0.545845
0.668444
0.766739
0.841097
0.892259
0.919556
0.927304
0.9248
0.920383
0.917947
0.917726
-0.328338
-0.297019
-0.235345
-0.151729
-0.0556059
0.048336
0.159268
0.27718
0.402313
0.535551
0.661097
0.763733
0.843275
0.898756
0.929404
0.939666
0.937935
0.930968
0.922646
0.91405
-0.346502
-0.314646
-0.252472
-0.168353
-0.071744
0.032773
0.144246
0.26285
0.388935
0.523687
0.651739
0.758436
0.843842
0.904022
0.938167
0.952725
0.95241
0.940295
0.919743
0.914397
-0.363813
-0.331648
-0.268968
-0.184526
-0.0875035
0.0173983
0.129014
0.2481
0.374746
0.510492
0.640414
0.750273
0.841939
0.906882
0.941747
0.956427
0.958285
0.932482
0.866908
0.838263
-0.379804
-0.349309
-0.284462
-0.199772
-0.10205
0.00272342
0.113882
0.233182
0.359993
0.496109
0.627085
0.738847
0.836194
0.906484
0.935388
0.944737
0.930851
0.875224
0.806647
0.765194
-0.429084
-0.365867
-0.298482
-0.215039
-0.116733
-0.0125485
0.0988761
0.217868
0.344351
0.480097
0.611161
0.723552
0.822555
0.899472
0.908654
0.902435
0.850124
0.778628
0.701639
0.659174
-0.396335
-0.37955
-0.319522
-0.234962
-0.138945
-0.0348748
0.0756421
0.19397
0.319477
0.453816
0.583161
0.694141
0.784976
0.868616
0.853236
0.736435
0.631152
0.557125
0.483808
0.514419
-0.427237
-0.397295
-0.336055
-0.25244
-0.156303
-0.0523216
0.0584079
0.176094
0.300556
0.433144
0.559787
0.666909
0.747789
0.793045
0.74264
0.591181
0.464001
0.37286
0.275442
0.324733
-0.450685
-0.418361
-0.355469
-0.271772
-0.175553
-0.071634
0.0389906
0.15585
0.278917
0.409109
0.531988
0.632888
0.704389
0.713319
0.604902
0.433208
0.28298
0.165559
0.0378112
0.0727941
-0.473633
-0.439972
-0.375803
-0.291249
-0.194989
-0.0912322
0.0188663
0.134754
0.256214
0.383597
0.501709
0.594605
0.650463
0.6274
0.466933
0.272703
0.0881014
-0.0754532
-0.259192
-0.269027
-0.496094
-0.461993
-0.396941
-0.311657
-0.215269
-0.111752
-0.00231463
0.112463
0.232044
0.356203
0.46879
0.553716
0.589427
0.529379
0.335498
0.12562
-0.0845862
-0.262561
-0.508046
-0.768226
-0.518896
-0.484765
-0.419208
-0.333455
-0.236895
-0.133556
-0.024715
0.0889146
0.206496
0.32716
0.433874
0.510174
0.523928
0.412675
0.220264
0.00830064
-0.19537
-0.359396
-0.436992
-0.543831
-0.542996
-0.508756
-0.442928
-0.356948
-0.260358
-0.157292
-0.0491434
0.0631602
0.17841
0.29504
0.395461
0.460362
0.448802
0.303089
0.116828
-0.0785637
-0.246401
-0.338222
-0.361527
-0.377703
-0.568658
-0.534272
-0.468264
-0.382216
-0.285783
-0.18317
-0.0759575
0.0347124
0.147197
0.259117
0.352763
0.402983
0.372899
0.20071
0.0226645
-0.147968
-0.276618
-0.315424
-0.327413
-0.328637
-0.596092
-0.56148
-0.49528
-0.409259
-0.313125
-0.211195
-0.105176
0.00352159
0.112792
0.219382
0.305367
0.340594
0.289095
0.106479
-0.0626196
-0.214034
-0.29127
-0.308433
-0.309372
-0.309153
-0.625356
-0.590441
-0.523997
-0.438079
-0.342401
-0.241355
-0.136805
-0.0304268
0.0752075
0.17592
0.253261
0.27589
0.188878
0.0206257
-0.140341
-0.263554
-0.301054
-0.298985
-0.298408
-0.297811
-0.656158
-0.620987
-0.554317
-0.46859
-0.373526
-0.273599
-0.170814
-0.0671059
0.0344905
0.128853
0.197345
0.203283
0.0977698
-0.0588771
-0.201596
-0.278223
-0.288543
-0.290906
-0.291291
-0.291007
-0.68796
-0.652651
-0.585997
-0.500566
-0.406316
-0.307771
-0.207051
-0.106387
-0.00915601
0.0785205
0.138216
0.12909
0.0156206
-0.126018
-0.24378
-0.282695
-0.286991
-0.286729
-0.286248
-0.285921
-0.720289
-0.684855
-0.618597
-0.533611
-0.440431
-0.343551
-0.245232
-0.147985
-0.0554371
0.0256671
0.0748191
0.0575892
-0.0596203
-0.179591
-0.270628
-0.284059
-0.281493
-0.282294
-0.282543
-0.282291
-0.752268
-0.716904
-0.651199
-0.567147
-0.47533
-0.380467
-0.284903
-0.191416
-0.103907
-0.0289582
0.00991617
-0.00890768
-0.126361
-0.218199
-0.271575
-0.282863
-0.281859
-0.281294
-0.280961
-0.280815
-0.782334
-0.747704
-0.682842
-0.60024
-0.510248
-0.417824
-0.325412
-0.235971
-0.1538
-0.0847686
-0.0499211
-0.0818162
-0.183312
-0.257445
-0.261869
-0.276831
-0.280862
-0.280211
-0.279902
-0.279736
-0.808869
-0.77534
-0.712456
-0.631696
-0.544144
-0.454694
-0.365903
-0.280767
-0.203946
-0.140925
-0.106575
-0.150098
-0.236554
-0.291993
-0.303258
-0.295534
-0.287714
-0.282855
-0.281688
-0.281237
-0.829773
-0.797921
-0.737941
-0.660134
-0.575753
-0.489934
-0.405301
-0.324771
-0.253093
-0.19608
-0.164179
-0.204601
-0.280903
-0.351343
-0.367383
-0.333816
-0.307357
-0.29749
-0.293972
-0.292309
-0.842807
-0.813631
-0.757376
-0.683653
-0.60359
-0.522242
-0.442402
-0.366821
-0.300088
-0.248311
-0.218444
-0.244815
-0.299692
-0.377177
-0.353953
-0.341615
-0.337337
-0.330124
-0.323123
-0.321257
-0.845317
-0.820134
-0.768849
-0.700468
-0.625969
-0.550274
-0.475903
-0.405726
-0.343787
-0.296121
-0.261023
-0.268173
-0.264738
-0.326151
-0.311107
-0.303686
-0.303731
-0.303484
-0.30407
-0.304668
-0.835188
-0.814855
-0.77021
-0.708989
-0.641443
-0.572528
-0.504573
-0.440239
-0.383139
-0.338857
-0.292706
-0.268847
-0.191555
-0.152644
-0.189778
-0.234061
-0.263159
-0.274844
-0.280132
-0.281268
-0.810153
-0.794915
-0.759621
-0.707999
-0.649053
-0.588055
-0.527282
-0.469186
-0.417336
-0.376398
-0.322841
-0.282157
-0.160682
0.0259563
-0.0993307
-0.221668
-0.281565
-0.305101
-0.313601
-0.316859
-0.772945
-0.763121
-0.737896
-0.69765
-0.648783
-0.596607
-0.54343
-0.491636
-0.445379
-0.409033
-0.378757
-0.369047
-0.407522
-0.463731
-0.528115
-0.498137
-0.460277
-0.441916
-0.436741
-0.436709
-0.730362
-0.724784
-0.709873
-0.680748
-0.642505
-0.598929
-0.552997
-0.507159
-0.465188
-0.435261
-0.416278
-0.501458
-0.737044
-1.03175
-1.02433
-0.781063
-0.607224
-0.528042
-0.508201
-0.502246
-0.692159
-0.688835
-0.681723
-0.662646
-0.633099
-0.596702
-0.556845
-0.51523
-0.475481
-0.444138
-0.426058
-0.459554
-0.442934
-0.403224
-0.285864
-0.243706
-0.294557
-0.345694
-0.356164
-0.357248
-0.664833
-0.662842
-0.659211
-0.647461
-0.624292
-0.592837
-0.556651
-0.516454
-0.475278
-0.434484
-0.409622
-0.355211
-0.275131
-0.210438
-0.251567
-0.376943
-0.485546
-0.491638
-0.417404
-0.393253
-0.643961
-0.643232
-0.642053
-0.636196
-0.618636
-0.590376
-0.554601
-0.514118
-0.468408
-0.422784
-0.393337
-0.354305
-0.266854
-0.208112
-0.186178
-0.209539
-0.257828
-0.278308
-0.236683
-0.219843
-0.631723
-0.631442
-0.63082
-0.62811
-0.615743
-0.589041
-0.552256
-0.508688
-0.459061
-0.404612
-0.357649
-0.322895
-0.192638
-0.0675681
0.0474379
0.107825
0.104387
0.104023
0.113182
0.120518
-0.623478
-0.623316
-0.62281
-0.621908
-0.61447
-0.589739
-0.551065
-0.502503
-0.446478
-0.377539
-0.310696
-0.224425
-0.0880119
0.0632252
0.160926
0.208601
0.279964
0.382528
0.467388
0.50561
-0.618716
-0.618459
-0.617741
-0.617367
-0.614069
-0.59321
-0.551466
-0.49757
-0.432115
-0.354891
-0.262606
-0.153532
0.0489674
0.265835
0.48884
0.671197
0.84024
0.99787
1.10313
1.14259
-0.617602
-0.617827
-0.618434
-0.619132
-0.619369
-0.59984
-0.553863
-0.494138
-0.422133
-0.332997
-0.226094
-0.124318
0.0960166
0.385947
0.721466
1.04283
1.30078
1.47256
1.55837
1.58389
-0.614043
-0.61559
-0.619508
-0.625681
-0.628177
-0.605302
-0.556807
-0.496329
-0.419761
-0.322144
-0.213146
-0.10445
0.0726312
0.384732
0.731609
1.04484
1.29811
1.45343
1.52106
1.53813
-0.614623
-0.615334
-0.612502
-0.603634
-0.594626
-0.586051
-0.559528
-0.506935
-0.424757
-0.323227
-0.215139
-0.109137
0.0204453
0.293733
0.592394
0.852234
1.05374
1.16879
1.21667
1.22736
-0.649432
-0.646272
-0.626771
-0.583973
-0.551978
-0.568514
-0.578184
-0.52671
-0.436012
-0.329953
-0.22528
-0.124595
-0.0279085
0.170877
0.40948
0.606237
0.756002
0.836206
0.868085
0.872839
-0.723876
-0.722213
-0.724602
-0.729683
-0.722728
-0.713936
-0.667974
-0.564753
-0.452081
-0.337216
-0.235664
-0.149937
-0.0778475
0.065448
0.237568
0.378836
0.484082
0.537563
0.55785
0.559802
-0.864199
-0.882555
-0.931084
-0.975383
-0.976167
-0.928595
-0.786289
-0.614581
-0.466035
-0.341976
-0.246535
-0.172979
-0.119533
-0.0150491
0.102697
0.195499
0.26108
0.294234
0.305574
0.306414
-0.955938
-0.98062
-1.02356
-1.05712
-1.05493
-0.996351
-0.826168
-0.624532
-0.461332
-0.335924
-0.248676
-0.186659
-0.143091
-0.0746534
-0.00469824
0.0506036
0.0849554
0.099414
0.10514
0.104955
-0.861053
-0.884702
-0.92028
-0.952249
-0.953522
-0.888918
-0.724112
-0.557097
-0.417027
-0.31043
-0.239196
-0.190826
-0.155662
-0.111717
-0.0767413
-0.0550063
-0.0450689
-0.0423546
-0.0415642
-0.0413976
-0.575033
-0.594002
-0.628622
-0.664584
-0.676967
-0.630532
-0.529588
-0.425652
-0.336155
-0.266299
-0.217866
-0.186134
-0.162941
-0.13665
-0.119535
-0.114636
-0.119142
-0.123215
-0.122885
-0.122179
-0.221134
-0.232027
-0.254574
-0.286229
-0.312258
-0.315464
-0.302343
-0.273828
-0.242249
-0.210843
-0.189653
-0.17975
-0.170987
-0.152891
-0.139651
-0.137481
-0.1406
-0.142179
-0.14132
-0.140863
0.0409432
0.0356948
0.0204508
-0.00791469
-0.048574
-0.0916616
-0.123568
-0.14494
-0.153989
-0.154429
-0.15715
-0.167495
-0.172883
-0.15108
-0.13365
-0.124723
-0.12269
-0.121527
-0.120489
-0.120503
0.165997
0.162979
0.151879
0.126731
0.0853564
0.0336266
-0.0163007
-0.05679
-0.0846681
-0.102921
-0.118994
-0.140726
-0.151344
-0.127723
-0.107725
-0.096608
-0.0903728
-0.0873557
-0.0863551
-0.0868645
0.196605
0.194641
0.186613
0.167167
0.133567
0.0899261
0.0435587
0.00111727
-0.0326337
-0.0566783
-0.0743051
-0.0914558
-0.0949831
-0.0783003
-0.0666633
-0.0600797
-0.0553189
-0.0529716
-0.0526236
-0.0532728
0.184608
0.183342
0.177946
0.164506
0.140748
0.108542
0.0717196
0.035919
0.00542186
-0.0164835
-0.0273423
-0.0303575
-0.0230648
-0.0181652
-0.0181386
-0.0193235
-0.0197657
-0.0199544
-0.0205327
-0.0212426
0.159031
0.158306
0.154937
0.146279
0.130508
0.108254
0.0814551
0.0542249
0.0306877
0.0158095
0.0144857
0.025373
0.0392645
0.0329459
0.0226192
0.0158645
0.0124523
0.010872
0.0098414
0.00905979
0.13132
0.131044
0.129089
0.12382
0.11385
0.0992657
0.0810882
0.062107
0.0460245
0.0381639
0.044903
0.0632537
0.0790476
0.0678181
0.0528655
0.0433603
0.0385619
0.0362259
0.0347263
0.0339239
0.105433
0.10526
0.104209
0.101164
0.0951358
0.085993
0.0743122
0.062093
0.052417
0.0503278
0.0617333
0.0816591
0.0948844
0.0832926
0.070025
0.0616036
0.0565749
0.0535557
0.0517316
0.0509291
0.081718
0.0817004
0.0811939
0.0795594
0.0761137
0.0706786
0.0636218
0.056392
0.0515293
0.0534097
0.0665157
0.0847078
0.0937148
0.0829741
0.072424
0.0660303
0.0628637
0.0607188
0.0591952
0.0585061
0.0599835
0.0600403
0.0598661
0.0591075
0.0573661
0.0544259
0.0505141
0.0466633
0.0448787
0.0486588
0.0610837
0.0764719
0.0811396
0.0721362
0.0653468
0.062247
0.0608971
0.0593397
0.0582541
0.0576459
0.0399514
0.0400263
0.040011
0.0397904
0.0390242
0.0376439
0.0356863
0.0338792
0.0337333
0.0378634
0.0477179
0.0588374
0.0620753
0.0544417
0.0503084
0.0501321
0.0507055
0.0504735
0.0495864
0.0489479
0.0213427
0.02142
0.0214813
0.0214797
0.0212742
0.0207651
0.0200278
0.0193919
0.0197911
0.0225933
0.0284348
0.0339741
0.0329281
0.027673
0.0283623
0.0301456
0.0325284
0.0330166
0.0322861
0.0316008
0.00389792
0.00394274
0.00392314
0.00401536
0.00423508
0.00431556
0.0042478
0.00412904
0.00407568
0.00388448
0.00434401
0.0043731
0.00653772
0.00715844
0.00629907
0.00733163
0.00647428
0.00446792
0.00483919
0.00530559
-0.0739782
0.113154
0.312801
0.480129
0.613181
0.717493
0.803935
0.876685
0.906696
0.890593
0.248747
0.37142
0.499588
0.610026
0.702754
0.7794
0.841072
0.884356
0.906861
0.919807
0.466506
0.549485
0.636541
0.713862
0.780078
0.835365
0.879181
0.911491
0.935293
0.953234
0.625046
0.684002
0.744923
0.801437
0.850369
0.891835
0.925945
0.953547
0.976028
0.99433
0.749283
0.791509
0.838244
0.881079
0.919351
0.952793
0.981479
1.00568
1.02545
1.04342
0.852499
0.885351
0.923585
0.958789
0.991083
1.02016
1.04565
1.06729
1.0843
1.10191
0.944664
0.97342
1.0073
1.03935
1.06915
1.09625
1.12002
1.13982
1.15441
1.17186
1.033
1.06235
1.09621
1.12827
1.15781
1.18435
1.20723
1.22564
1.23827
1.25573
1.12818
1.1617
1.19805
1.23171
1.26169
1.28779
1.30967
1.32672
1.33815
1.35595
1.24297
1.28149
1.31967
1.35383
1.38305
1.40768
1.42794
1.44362
1.45493
1.47327
1.38761
1.42706
1.46259
1.49296
1.51849
1.54052
1.55951
1.57501
1.58765
1.60577
1.56229
1.59433
1.6201
1.64241
1.66244
1.68116
1.69878
1.71532
1.73105
1.74924
1.74987
1.76742
1.78293
1.7995
1.81565
1.83018
1.8432
1.85717
1.87425
1.89392
1.93144
1.9424
1.95454
1.96533
1.97458
1.98413
1.995
2.00659
2.01653
2.0317
2.14244
2.14445
2.1293
2.11407
2.10768
2.11334
2.13194
2.16235
2.19449
2.22523
2.44835
2.31131
2.23501
2.1929
2.17545
2.17949
2.20684
2.26299
2.36644
2.58172
0.764261
0.760886
0.754961
0.745157
0.732218
0.719801
0.709499
0.701567
0.695932
0.692678
0.692342
0.695116
0.700264
0.707538
0.716992
0.728691
0.74183
0.753826
0.761285
0.766007
0.682265
0.688151
0.695057
0.700299
0.703149
0.702826
0.699931
0.696022
0.692476
0.690215
0.690089
0.692323
0.696039
0.700416
0.704379
0.706392
0.705287
0.701202
0.695312
0.688269
0.674592
0.676939
0.680291
0.683201
0.685421
0.687228
0.688197
0.687955
0.686944
0.686074
0.686275
0.687733
0.689576
0.690876
0.690937
0.689777
0.687978
0.685641
0.68249
0.679528
0.669425
0.670512
0.672379
0.674763
0.676727
0.678125
0.679231
0.680104
0.680593
0.680868
0.681394
0.682215
0.682787
0.682777
0.682271
0.681411
0.680016
0.677966
0.675859
0.674447
0.664298
0.664952
0.666062
0.667786
0.669595
0.671218
0.672494
0.673536
0.67448
0.675334
0.676106
0.676667
0.676844
0.676665
0.676124
0.675109
0.673681
0.672117
0.670798
0.670017
0.659332
0.659787
0.660572
0.66187
0.663369
0.664909
0.666386
0.667689
0.668847
0.669946
0.670905
0.671501
0.67167
0.671426
0.670751
0.669763
0.668634
0.667505
0.6666
0.666081
0.654488
0.654828
0.655438
0.656508
0.657802
0.659188
0.660648
0.662115
0.66351
0.664823
0.66598
0.666717
0.666934
0.666687
0.6661
0.665331
0.664491
0.663637
0.662973
0.662593
0.649722
0.649986
0.650479
0.651389
0.652562
0.653865
0.655275
0.656789
0.658361
0.659921
0.661323
0.662246
0.662589
0.662498
0.662125
0.661585
0.660953
0.660326
0.659843
0.659552
0.644956
0.645166
0.645576
0.646377
0.64747
0.648727
0.650127
0.651686
0.653394
0.6552
0.656895
0.658084
0.65867
0.658825
0.658691
0.658374
0.657951
0.657517
0.657174
0.656947
0.640103
0.640272
0.640624
0.641352
0.6424
0.643637
0.645067
0.646711
0.648578
0.650644
0.65269
0.654243
0.655158
0.655607
0.655729
0.655646
0.655437
0.655178
0.654951
0.65477
0.635075
0.635212
0.635522
0.636206
0.637238
0.638501
0.64
0.641774
0.643854
0.646236
0.648709
0.650715
0.652027
0.652816
0.65323
0.653395
0.653399
0.65331
0.653182
0.653037
0.629782
0.629892
0.630175
0.63084
0.631891
0.633225
0.634836
0.636794
0.639156
0.641939
0.644939
0.647489
0.649268
0.65045
0.651194
0.651632
0.651858
0.65194
0.651899
0.65178
0.624128
0.624215
0.624482
0.625152
0.626259
0.627705
0.629485
0.631693
0.634417
0.637706
0.641352
0.644556
0.646887
0.648525
0.649642
0.650398
0.650873
0.651116
0.651151
0.651054
0.618002
0.618068
0.618329
0.619028
0.620227
0.621833
0.623845
0.626385
0.629568
0.633489
0.637924
0.641914
0.644901
0.647074
0.648622
0.649733
0.650482
0.650901
0.651009
0.650929
0.611274
0.61132
0.611583
0.612333
0.613666
0.615488
0.617805
0.620768
0.624534
0.629235
0.634629
0.639563
0.64333
0.646136
0.648189
0.649699
0.650766
0.651374
0.651555
0.651488
0.603788
0.603818
0.604085
0.604908
0.60642
0.608523
0.61123
0.614731
0.619224
0.624885
0.631443
0.63751
0.642203
0.645755
0.648406
0.650396
0.651821
0.652631
0.652884
0.652827
0.595344
0.595358
0.595633
0.596554
0.598301
0.600749
0.603959
0.60814
0.613539
0.620379
0.628346
0.635767
0.641559
0.645988
0.649347
0.651907
0.653739
0.654776
0.655101
0.655051
0.585639
0.585625
0.585956
0.58702
0.589047
0.591955
0.595804
0.600841
0.60737
0.615659
0.625331
0.634361
0.641448
0.64691
0.651098
0.654325
0.656632
0.657913
0.65831
0.658264
0.574372
0.574334
0.574711
0.575969
0.578368
0.581865
0.586525
0.592646
0.60059
0.610666
0.622392
0.633325
0.641924
0.648595
0.653758
0.65775
0.660598
0.662143
0.66261
0.662562
0.561059
0.560995
0.561451
0.562962
0.565848
0.570112
0.575824
0.583336
0.593065
0.605342
0.619534
0.632701
0.64305
0.651112
0.657406
0.662282
0.665733
0.667549
0.668077
0.668022
0.545045
0.544953
0.545535
0.547399
0.550936
0.556227
0.563333
0.572659
0.584662
0.599655
0.616785
0.632546
0.644893
0.654534
0.662112
0.667986
0.672092
0.674174
0.674747
0.67468
0.525386
0.525269
0.526054
0.528432
0.532885
0.539602
0.548613
0.560357
0.575287
0.593627
0.614226
0.632944
0.647531
0.658932
0.667913
0.674904
0.679684
0.682001
0.682593
0.682504
0.500651
0.500521
0.501644
0.504819
0.510658
0.519463
0.531176
0.546212
0.564924
0.58736
0.61199
0.634009
0.65104
0.664349
0.674857
0.683014
0.688438
0.690922
0.691493
0.691375
0.468519
0.468415
0.470149
0.474704
0.482851
0.494913
0.510594
0.530154
0.553705
0.581058
0.610266
0.635875
0.655494
0.670812
0.682909
0.692237
0.698177
0.700712
0.701215
0.701063
0.42482
0.424886
0.427958
0.435387
0.447833
0.465209
0.486767
0.512422
0.541992
0.575073
0.609323
0.638709
0.660977
0.67832
0.691988
0.702383
0.708601
0.711015
0.7114
0.711214
0.361753
0.362969
0.370458
0.384377
0.404677
0.43051
0.460336
0.493742
0.530425
0.569879
0.609452
0.642659
0.667529
0.686808
0.701887
0.713043
0.719236
0.721297
0.721516
0.721312
0.286765
0.288856
0.303285
0.327207
0.358392
0.394199
0.43302
0.474665
0.518948
0.565401
0.611094
0.648972
0.677143
0.698841
0.715567
0.727404
0.733364
0.73513
0.735305
0.73519
0.209661
0.216101
0.237549
0.271692
0.313335
0.35885
0.40664
0.45658
0.508545
0.562093
0.614056
0.656724
0.688241
0.71239
0.730889
0.743045
0.748347
0.749626
0.749736
0.749694
0.146695
0.155286
0.181263
0.222491
0.272336
0.326117
0.38201
0.439733
0.499054
0.559453
0.617421
0.664589
0.699196
0.725466
0.745071
0.757339
0.762392
0.763559
0.76369
0.763706
0.0953768
0.104581
0.134107
0.180574
0.236578
0.29701
0.359758
0.42436
0.490399
0.557213
0.620893
0.672352
0.709855
0.738121
0.758957
0.771598
0.776464
0.777647
0.777861
0.77792
0.0524703
0.0619429
0.0939083
0.144384
0.205446
0.271399
0.339945
0.410544
0.482625
0.555383
0.624472
0.680044
0.720359
0.75058
0.772607
0.785736
0.79083
0.79225
0.792454
0.792545
0.0155688
0.0251417
0.0589277
0.112613
0.177868
0.24854
0.322148
0.398072
0.475638
0.553898
0.628094
0.687616
0.730673
0.762845
0.786201
0.800002
0.805483
0.806991
0.807216
0.807293
-0.0170113
-0.00740907
0.0277716
0.0841749
0.152943
0.227692
0.305793
0.386519
0.469111
0.552506
0.631564
0.694896
0.74061
0.774677
0.799231
0.81389
0.819799
0.821446
0.821693
0.821761
-0.0465542
-0.0369149
-0.000590158
0.0581592
0.129936
0.20826
0.290359
0.375451
0.462702
0.550958
0.63468
0.701698
0.749981
0.785836
0.811607
0.826953
0.833333
0.835099
0.835343
0.835391
-0.0739475
-0.0642695
-0.0269444
0.0338418
0.10829
0.189786
0.275467
0.364546
0.456137
0.549004
0.63724
0.70785
0.758618
0.796187
0.823022
0.839061
0.845842
0.847693
0.847921
0.847938
-0.0997715
-0.090024
-0.0517662
0.0107302
0.0875944
0.171929
0.26084
0.353559
0.449186
0.54645
0.639103
0.713271
0.766475
0.805684
0.833523
0.849999
0.857064
0.859003
0.859218
0.859196
-0.124503
-0.114618
-0.0754859
-0.0114764
0.0675756
0.154442
0.246269
0.342314
0.441707
0.543172
0.640167
0.717917
0.773552
0.814324
0.843034
0.859862
0.867062
0.868976
0.869208
0.869164
-0.148425
-0.138328
-0.0984781
-0.0329592
0.0480404
0.137158
0.231621
0.33071
0.433601
0.539074
0.640357
0.721758
0.779892
0.822201
0.851664
0.868705
0.875871
0.877803
0.877989
0.877914
-0.171649
-0.161358
-0.12078
-0.0538524
0.0288607
0.120001
0.216829
0.318682
0.424803
0.534077
0.639608
0.724782
0.785559
0.829462
0.859568
0.876669
0.883728
0.885563
0.885703
0.885612
-0.194356
-0.183787
-0.142454
-0.0742558
0.00997977
0.102924
0.201862
0.306207
0.415293
0.528151
0.637859
0.726968
0.790617
0.836251
0.866958
0.883952
0.890749
0.89243
0.892516
0.892404
-0.216503
-0.205676
-0.163627
-0.0942309
-0.00861657
0.0859248
0.18674
0.29331
0.405083
0.52127
0.635056
0.728266
0.795117
0.842731
0.87403
0.890709
0.897058
0.898499
0.898503
0.898369
-0.238167
-0.227036
-0.184238
-0.113768
-0.0269189
0.069027
0.171493
0.280037
0.394212
0.513446
0.631152
0.728609
0.799052
0.849032
0.881042
0.897193
0.902774
0.903819
0.903725
0.903581
-0.25918
-0.247825
-0.20428
-0.132828
-0.0448884
0.0522928
0.156181
0.266452
0.382743
0.504726
0.626117
0.727907
0.802351
0.855236
0.888317
0.903824
0.908226
0.908549
0.90828
0.90815
-0.279678
-0.267993
-0.223747
-0.151403
-0.062499
0.0357554
0.140888
0.252628
0.370757
0.495181
0.619946
0.726052
0.804876
0.861296
0.896117
0.911237
0.914085
0.913018
0.912268
0.912182
-0.299509
-0.287518
-0.242616
-0.169453
-0.0796792
0.019495
0.125693
0.238681
0.358358
0.48487
0.612669
0.72293
0.80643
0.866999
0.904459
0.920134
0.921683
0.91845
0.916171
0.915479
-0.318728
-0.306449
-0.260837
-0.186927
-0.0963975
0.00357707
0.110677
0.224689
0.345651
0.473921
0.604345
0.718422
0.80677
0.87196
0.912868
0.93068
0.93261
0.927748
0.921497
0.912995
-0.337258
-0.324749
-0.278489
-0.203984
-0.112865
-0.0122664
0.0955141
0.210262
0.332206
0.461853
0.594474
0.711996
0.805466
0.87591
0.920764
0.942321
0.947331
0.942173
0.931384
0.927991
-0.355051
-0.34241
-0.295568
-0.220591
-0.12908
-0.0280119
0.0802229
0.195381
0.317979
0.448542