0.490941 	0.869124 	0.00613259 	3.00281 	0
0.561075 	0.869124 	0.00613259 	3.00281 	0
0.63121 	0.869124 	0.00613259 	3.00281 	0
0.701344 	0.869124 	0.00613259 	3.00281 	0
0.771478 	0.869124 	0.00613259 	3.00281 	0
0.841613 	0.869124 	0.00613259 	3.00281 	0
0.911747 	0.869124 	0.00613259 	3.00281 	0
0.981881 	0.869124 	0.00613259 	3.00281 	0
1.05202 	0.869124 	0.00613259 	3.00281 	0
1.12215 	0.869124 	0.00613259 	3.00281 	0
1.19228 	0.869124 	0.00613259 	3.00281 	0
1.26242 	0.842964 	0.0115072 	3.00788 	0
1.33255 	0.842964 	0.0115072 	3.00788 	0
1.40269 	0.842964 	0.0115072 	3.00788 	0
1.47282 	0.842964 	0.0115072 	3.00788 	0
1.54296 	0.842964 	0.0115072 	3.00788 	0
1.61309 	0.842964 	0.0115072 	3.00788 	0
1.68323 	0.842964 	0.0115072 	3.00788 	0
1.75336 	0.842964 	0.0115072 	3.00788 	0
1.82349 	0.793236 	0.0146759 	3.02422 	3.02529e-19
1.89363 	0.793236 	0.0146759 	3.02422 	3.02529e-19
1.96376 	0.793236 	0.0146759 	3.02422 	3.02529e-19
2.0339 	0.793236 	0.0146759 	3.02422 	3.02529e-19
2.10403 	0.793236 	0.0146759 	3.02422 	3.02529e-19
2.17417 	0.793236 	0.0146759 	3.02422 	3.02529e-19
2.2443 	0.793236 	0.0146759 	3.02422 	3.02529e-19
2.31443 	0.793236 	0.0146759 	3.02422 	3.02529e-19
2.38457 	0.793236 	0.0146759 	3.02422 	3.02529e-19
2.4547 	0.793236 	0.0146759 	3.02422 	3.02529e-19
2.52484 	0.793236 	0.0146759 	3.02422 	3.02529e-19
2.59497 	0.758661 	0.00720083 	3.0366 	-4.73043e-19
2.66511 	0.758661 	0.00720083 	3.0366 	-4.73043e-19
2.73524 	0.758661 	0.00720083 	3.0366 	-4.73043e-19
2.80538 	0.758661 	0.00720083 	3.0366 	-4.73043e-19
2.87551 	0.758661 	0.00720083 	3.0366 	-4.73043e-19
2.94564 	0.758661 	0.00720083 	3.0366 	-4.73043e-19
3.01578 	0.758661 	0.00720083 	3.0366 	-4.73043e-19
3.08591 	0.758661 	0.00720083 	3.0366 	-4.73043e-19
3.15605 	0.758661 	0.00720083 	3.0366 	-4.73043e-19
3.22618 	0.758661 	0.00720083 	3.0366 	-4.73043e-19
3.29632 	0.725924 	0.0199063 	3.04352 	4.79379e-19
3.36645 	0.725924 	0.0199063 	3.04352 	4.79379e-19
3.43659 	0.725924 	0.0199063 	3.04352 	4.79379e-19
3.50672 	0.725924 	0.0199063 	3.04352 	4.79379e-19
3.57685 	0.725924 	0.0199063 	3.04352 	4.79379e-19
3.64699 	0.725924 	0.0199063 	3.04352 	4.79379e-19
3.71712 	0.725924 	0.0199063 	3.04352 	4.79379e-19
3.78726 	0.725924 	0.0199063 	3.04352 	4.79379e-19
3.85739 	0.725924 	0.0199063 	3.04352 	4.79379e-19
3.92753 	0.725924 	0.0199063 	3.04352 	4.79379e-19
3.99766 	0.725924 	0.0199063 	3.04352 	4.79379e-19
4.06779 	0.707316 	0.00397554 	3.05026 	-1.33273e-20
4.13793 	0.707316 	0.00397554 	3.05026 	-1.33273e-20
4.20806 	0.707316 	0.00397554 	3.05026 	-1.33273e-20
4.2782 	0.707316 	0.00397554 	3.05026 	-1.33273e-20
4.34833 	0.707316 	0.00397554 	3.05026 	-1.33273e-20
4.41847 	0.707316 	0.00397554 	3.05026 	-1.33273e-20
4.4886 	0.682422 	0.0164727 	3.05797 	0
4.55874 	0.682422 	0.0164727 	3.05797 	0
4.62887 	0.682422 	0.0164727 	3.05797 	0
4.699 	0.682422 	0.0164727 	3.05797 	0
4.76914 	0.682422 	0.0164727 	3.05797 	0
4.83927 	0.682422 	0.0164727 	3.05797 	0
4.90941 	0.682422 	0.0164727 	3.05797 	0
4.97954 	0.682422 	0.0164727 	3.05797 	0
5.04968 	0.682422 	0.0164727 	3.05797 	0
5.11981 	0.682422 	0.0164727 	3.05797 	0
5.18994 	0.660281 	0.00610005 	3.06485 	-6.18227e-21
5.26008 	0.660281 	0.00610005 	3.06485 	-6.18227e-21
5.33021 	0.660281 	0.00610005 	3.06485 	-6.18227e-21
5.40035 	0.660281 	0.00610005 	3.06485 	-6.18227e-21
5.47048 	0.660281 	0.00610005 	3.06485 	-6.18227e-21
5.54062 	0.660281 	0.00610005 	3.06485 	-6.18227e-21
5.61075 	0.660281 	0.00610005 	3.06485 	-6.18227e-21
5.68089 	0.631398 	0.0108573 	3.07456 	0
5.75102 	0.631398 	0.0108573 	3.07456 	0
5.82115 	0.631398 	0.0108573 	3.07456 	0
5.89129 	0.631398 	0.0108573 	3.07456 	0
5.96142 	0.631398 	0.0108573 	3.07456 	0
6.03156 	0.631398 	0.0108573 	3.07456 	0
6.10169 	0.631398 	0.0108573 	3.07456 	0
6.17183 	0.631398 	0.0108573 	3.07456 	0
6.24196 	0.631398 	0.0108573 	3.07456 	0
6.3121 	0.602015 	0.00721696 	3.08254 	0
6.38223 	0.602015 	0.00721696 	3.08254 	0
6.45236 	0.602015 	0.00721696 	3.08254 	0
6.5225 	0.602015 	0.00721696 	3.08254 	0
6.59263 	0.602015 	0.00721696 	3.08254 	0
6.66277 	0.602015 	0.00721696 	3.08254 	0
6.7329 	0.602015 	0.00721696 	3.08254 	0
6.80304 	0.602015 	0.00721696 	3.08254 	0
6.87317 	0.576599 	0.0059174 	3.09201 	1.96445e-19
6.9433 	0.576599 	0.0059174 	3.09201 	1.96445e-19
7.01344 	0.576599 	0.0059174 	3.09201 	1.96445e-19
7.08357 	0.576599 	0.0059174 	3.09201 	1.96445e-19
7.15371 	0.576599 	0.0059174 	3.09201 	1.96445e-19
7.22384 	0.576599 	0.0059174 	3.09201 	1.96445e-19
7.29398 	0.576599 	0.0059174 	3.09201 	1.96445e-19
7.36411 	0.576599 	0.0059174 	3.09201 	1.96445e-19
7.43425 	0.576599 	0.0059174 	3.09201 	1.96445e-19
7.50438 	0.546442 	0.00874971 	3.09858 	-1.4398e-18
7.57451 	0.546442 	0.00874971 	3.09858 	-1.4398e-18
7.64465 	0.546442 	0.00874971 	3.09858 	-1.4398e-18
7.71478 	0.546442 	0.00874971 	3.09858 	-1.4398e-18
7.78492 	0.546442 	0.00874971 	3.09858 	-1.4398e-18
7.85505 	0.546442 	0.00874971 	3.09858 	-1.4398e-18
7.92519 	0.546442 	0.00874971 	3.09858 	-1.4398e-18
7.99532 	0.546442 	0.00874971 	3.09858 	-1.4398e-18
8.06545 	0.525388 	0.00195196 	3.10608 	1.43218e-18
8.13559 	0.525388 	0.00195196 	3.10608 	1.43218e-18
8.20572 	0.525388 	0.00195196 	3.10608 	1.43218e-18
8.27586 	0.525388 	0.00195196 	3.10608 	1.43218e-18
8.34599 	0.525388 	0.00195196 	3.10608 	1.43218e-18
8.41613 	0.525388 	0.00195196 	3.10608 	1.43218e-18
8.48626 	0.525388 	0.00195196 	3.10608 	1.43218e-18
8.5564 	0.525388 	0.00195196 	3.10608 	1.43218e-18
8.62653 	0.525388 	0.00195196 	3.10608 	1.43218e-18
8.69666 	0.494143 	0.0141583 	3.11871 	1.12563e-18
8.7668 	0.494143 	0.0141583 	3.11871 	1.12563e-18
8.83693 	0.494143 	0.0141583 	3.11871 	1.12563e-18
8.90707 	0.494143 	0.0141583 	3.11871 	1.12563e-18
8.9772 	0.494143 	0.0141583 	3.11871 	1.12563e-18
9.04734 	0.494143 	0.0141583 	3.11871 	1.12563e-18
9.11747 	0.494143 	0.0141583 	3.11871 	1.12563e-18
9.18761 	0.494143 	0.0141583 	3.11871 	1.12563e-18
9.25774 	0.462605 	0.00619727 	3.11816 	-1.03849e-18
9.32787 	0.462605 	0.00619727 	3.11816 	-1.03849e-18
9.39801 	0.462605 	0.00619727 	3.11816 	-1.03849e-18
9.46814 	0.462605 	0.00619727 	3.11816 	-1.03849e-18
9.53828 	0.462605 	0.00619727 	3.11816 	-1.03849e-18
9.60841 	0.462605 	0.00619727 	3.11816 	-1.03849e-18
9.67855 	0.462605 	0.00619727 	3.11816 	-1.03849e-18
9.74868 	0.462605 	0.00619727 	3.11816 	-1.03849e-18
9.81881 	0.447725 	0.0195246 	3.12937 	-3.51752e-19
9.88895 	0.447725 	0.0195246 	3.12937 	-3.51752e-19
9.95908 	0.447725 	0.0195246 	3.12937 	-3.51752e-19
10.0292 	0.447725 	0.0195246 	3.12937 	-3.51752e-19
10.0994 	0.447725 	0.0195246 	3.12937 	-3.51752e-19
10.1695 	0.447725 	0.0195246 	3.12937 	-3.51752e-19
10.2396 	0.447725 	0.0195246 	3.12937 	-3.51752e-19
10.3098 	0.447725 	0.0195246 	3.12937 	-3.51752e-19
10.3799 	0.447725 	0.0195246 	3.12937 	-3.51752e-19
10.45 	0.447725 	0.0195246 	3.12937 	-3.51752e-19
10.5202 	0.447725 	0.0195246 	3.12937 	-3.51752e-19
10.5903 	0.447725 	0.0195246 	3.12937 	-3.51752e-19
10.6604 	0.471983 	0.0168823 	3.12502 	5.17747e-19
10.7306 	0.416394 	0.0399783 	3.14024 	0
10.8007 	0.416394 	0.0399783 	3.14024 	0
10.8708 	0.416394 	0.0399783 	3.14024 	0
10.941 	0.416394 	0.0399783 	3.14024 	0
11.0111 	0.416394 	0.0399783 	3.14024 	0
11.0812 	0.416394 	0.0399783 	3.14024 	0
11.1514 	0.416394 	0.0399783 	3.14024 	0
11.2215 	0.416394 	0.0399783 	3.14024 	0
11.2916 	0.416394 	0.0399783 	3.14024 	0
11.3618 	0.416394 	0.0399783 	3.14024 	0
11.4319 	0.416394 	0.0399783 	3.14024 	0
11.502 	0.416394 	0.0399783 	3.14024 	0
11.5722 	0.416394 	0.0399783 	3.14024 	0
11.6423 	0.416394 	0.0399783 	3.14024 	0
11.7124 	0.425539 	0.0284873 	3.12747 	0
11.7826 	0.356992 	0.0849337 	3.16498 	5.26793e-19
11.8527 	0.356992 	0.0849337 	3.16498 	5.26793e-19
11.9228 	0.356992 	0.0849337 	3.16498 	5.26793e-19
11.993 	0.356992 	0.0849337 	3.16498 	5.26793e-19
12.0631 	0.356992 	0.0849337 	3.16498 	5.26793e-19
12.1332 	0.356992 	0.0849337 	3.16498 	5.26793e-19
12.2034 	0.248256 	0.0778662 	3.1935 	-2.25369e-19
12.2735 	0.248256 	0.0778662 	3.1935 	-2.25369e-19
12.3437 	0.248256 	0.0778662 	3.1935 	-2.25369e-19
12.4138 	0.248256 	0.0778662 	3.1935 	-2.25369e-19
12.4839 	0.248256 	0.0778662 	3.1935 	-2.25369e-19
12.5541 	0.248256 	0.0778662 	3.1935 	-2.25369e-19
12.6242 	0.248256 	0.0778662 	3.1935 	-2.25369e-19
12.6943 	0.248256 	0.0778662 	3.1935 	-2.25369e-19
12.7645 	0.248256 	0.0778662 	3.1935 	-2.25369e-19
12.8346 	0.12557 	0.0428674 	3.18859 	1.13346e-19
12.9047 	0.100527 	0.145501 	3.2314 	-2.80075e-21
12.9749 	0.100527 	0.145501 	3.2314 	-2.80075e-21
13.045 	0.100527 	0.145501 	3.2314 	-2.80075e-21
13.1151 	0.100527 	0.145501 	3.2314 	-2.80075e-21
13.1853 	0.100527 	0.145501 	3.2314 	-2.80075e-21
13.2554 	0.100527 	0.145501 	3.2314 	-2.80075e-21
13.3255 	0.100527 	0.145501 	3.2314 	-2.80075e-21
13.3957 	0.332553 	0.154434 	3.20307 	8.04711e-19
13.4658 	0.332553 	0.154434 	3.20307 	8.04711e-19
13.5359 	0.332553 	0.154434 	3.20307 	8.04711e-19
13.6061 	0.332553 	0.154434 	3.20307 	8.04711e-19
13.6762 	0.332553 	0.154434 	3.20307 	8.04711e-19
13.7463 	0.332553 	0.154434 	3.20307 	8.04711e-19
13.8165 	0.397427 	0.137043 	2.87947 	-6.7734e-19
13.8866 	0.558396 	0.171952 	2.97812 	8.11746e-20
13.9567 	0.558396 	0.171952 	2.97812 	8.11746e-20
14.0269 	-0.0206801 	0.257569 	3.05853 	-6.22727e-19
14.097 	-0.0206801 	0.257569 	3.05853 	-6.22727e-19
14.1671 	-0.0206801 	0.257569 	3.05853 	-6.22727e-19
14.2373 	-0.0206801 	0.257569 	3.05853 	-6.22727e-19
14.3074 	-0.0206801 	0.257569 	3.05853 	-6.22727e-19
14.3776 	-0.0206801 	0.257569 	3.05853 	-6.22727e-19
14.4477 	-0.0206801 	0.257569 	3.05853 	-6.22727e-19
14.5178 	-0.0206801 	0.257569 	3.05853 	-6.22727e-19
14.588 	-0.0206801 	0.257569 	3.05853 	-6.22727e-19
14.6581 	-0.0206801 	0.257569 	3.05853 	-6.22727e-19
14.7282 	-0.0206801 	0.257569 	3.05853 	-6.22727e-19
14.7984 	-0.0206801 	0.257569 	3.05853 	-6.22727e-19
14.8685 	-0.0206801 	0.257569 	3.05853 	-6.22727e-19
14.9386 	-0.213448 	0.359957 	3.21568 	0
15.0088 	-0.213448 	0.359957 	3.21568 	0
15.0789 	-0.213448 	0.359957 	3.21568 	0
15.149 	-0.213448 	0.359957 	3.21568 	0
15.2192 	-0.213448 	0.359957 	3.21568 	0
15.2893 	-0.690664 	0.33659 	3.43778 	-4.55218e-19
15.3594 	-0.690664 	0.33659 	3.43778 	-4.55218e-19
15.4296 	-0.690664 	0.33659 	3.43778 	-4.55218e-19
15.4997 	-0.690664 	0.33659 	3.43778 	-4.55218e-19
15.5698 	-0.690664 	0.33659 	3.43778 	-4.55218e-19
15.64 	-0.690664 	0.33659 	3.43778 	-4.55218e-19
15.7101 	-1.17621 	0.395119 	3.51161 	0
15.7802 	-1.17621 	0.395119 	3.51161 	0
15.8504 	-1.08721 	0.629383 	3.56295 	1.65007e-18
15.9205 	-1.08721 	0.629383 	3.56295 	1.65007e-18
15.9906 	-1.08721 	0.629383 	3.56295 	1.65007e-18
16.0608 	-1.08721 	0.629383 	3.56295 	1.65007e-18
16.1309 	-1.08721 	0.629383 	3.56295 	1.65007e-18
16.201 	-1.08721 	0.629383 	3.56295 	1.65007e-18
16.2712 	-1.08721 	0.629383 	3.56295 	1.65007e-18
16.3413 	-1.08721 	0.629383 	3.56295 	1.65007e-18
16.4114 	-1.08721 	0.629383 	3.56295 	1.65007e-18
16.4816 	-1.08721 	0.629383 	3.56295 	1.65007e-18
16.5517 	-1.08721 	0.629383 	3.56295 	1.65007e-18
16.6219 	-1.08721 	0.629383 	3.56295 	1.65007e-18
16.692 	-1.08721 	0.629383 	3.56295 	1.65007e-18
16.7621 	-1.08721 	0.629383 	3.56295 	1.65007e-18
16.8323 	-0.657224 	0.843324 	3.14244 	4.18643e-19
16.9024 	-0.657224 	0.843324 	3.14244 	4.18643e-19
16.9725 	-0.657224 	0.843324 	3.14244 	4.18643e-19
17.0427 	-0.657224 	0.843324 	3.14244 	4.18643e-19
17.1128 	-0.657224 	0.843324 	3.14244 	4.18643e-19
17.1829 	-0.657224 	0.843324 	3.14244 	4.18643e-19
17.2531 	-0.657224 	0.843324 	3.14244 	4.18643e-19
17.3232 	-0.657224 	0.843324 	3.14244 	4.18643e-19
17.3933 	-0.657224 	0.843324 	3.14244 	4.18643e-19
17.4635 	-0.657224 	0.843324 	3.14244 	4.18643e-19
17.5336 	-0.5378 	0.879349 	3.0718 	-4.27686e-19
17.6037 	-0.5378 	0.879349 	3.0718 	-4.27686e-19
17.6739 	-0.5378 	0.879349 	3.0718 	-4.27686e-19
17.744 	-0.608704 	1.00889 	3.18575 	4.61484e-19
17.8141 	-0.608704 	1.00889 	3.18575 	4.61484e-19
17.8843 	-0.608704 	1.00889 	3.18575 	4.61484e-19
17.9544 	-0.608704 	1.00889 	3.18575 	4.61484e-19
18.0245 	-0.608704 	1.00889 	3.18575 	4.61484e-19
18.0947 	-0.608704 	1.00889 	3.18575 	4.61484e-19
18.1648 	-0.608704 	1.00889 	3.18575 	4.61484e-19
18.2349 	-0.608704 	1.00889 	3.18575 	4.61484e-19
18.3051 	-0.608704 	1.00889 	3.18575 	4.61484e-19
18.3752 	-0.329499 	0.962475 	2.8174 	-3.50681e-19
18.4453 	-0.329499 	0.962475 	2.8174 	-3.50681e-19
18.5155 	-0.329499 	0.962475 	2.8174 	-3.50681e-19
18.5856 	-0.329499 	0.962475 	2.8174 	-3.50681e-19
18.6557 	-0.329499 	0.962475 	2.8174 	-3.50681e-19
18.7259 	-0.329499 	0.962475 	2.8174 	-3.50681e-19
18.796 	-0.329499 	0.962475 	2.8174 	-3.50681e-19
18.8662 	-0.256151 	1.01068 	2.86566 	2.52777e-19
18.9363 	-0.256151 	1.01068 	2.86566 	2.52777e-19
19.0064 	-0.256151 	1.01068 	2.86566 	2.52777e-19
19.0766 	-0.256151 	1.01068 	2.86566 	2.52777e-19
19.1467 	-0.256151 	1.01068 	2.86566 	2.52777e-19
19.2168 	-0.256151 	1.01068 	2.86566 	2.52777e-19
19.287 	-0.256151 	1.01068 	2.86566 	2.52777e-19
19.3571 	-0.256151 	1.01068 	2.86566 	2.52777e-19
19.4272 	-0.256151 	1.01068 	2.86566 	2.52777e-19
19.4974 	-0.256151 	1.01068 	2.86566 	2.52777e-19
19.5675 	-0.256151 	1.01068 	2.86566 	2.52777e-19
19.6376 	-0.256151 	1.01068 	2.86566 	2.52777e-19
19.7078 	-0.256151 	1.01068 	2.86566 	2.52777e-19
19.7779 	-0.0775305 	0.953184 	2.50702 	-1.11951e-19
19.848 	-0.0775305 	0.953184 	2.50702 	-1.11951e-19
19.9182 	-0.0775305 	0.953184 	2.50702 	-1.11951e-19
19.9883 	-0.0775305 	0.953184 	2.50702 	-1.11951e-19
20.0584 	-0.0775305 	0.953184 	2.50702 	-1.11951e-19
20.1286 	-0.0775305 	0.953184 	2.50702 	-1.11951e-19
20.1987 	-0.0775305 	0.953184 	2.50702 	-1.11951e-19
20.2688 	-0.036722 	0.956724 	2.48383 	-5.96799e-20
20.339 	-0.036722 	0.956724 	2.48383 	-5.96799e-20
20.4091 	-0.036722 	0.956724 	2.48383 	-5.96799e-20
20.4792 	-0.036722 	0.956724 	2.48383 	-5.96799e-20
20.5494 	-0.036722 	0.956724 	2.48383 	-5.96799e-20
20.6195 	-0.036722 	0.956724 	2.48383 	-5.96799e-20
20.6896 	-0.036722 	0.956724 	2.48383 	-5.96799e-20
20.7598 	-0.036722 	0.956724 	2.48383 	-5.96799e-20
20.8299 	-0.036722 	0.956724 	2.48383 	-5.96799e-20
20.9 	-0.036722 	0.956724 	2.48383 	-5.96799e-20
20.9702 	-0.036722 	0.956724 	2.48383 	-5.96799e-20
21.0403 	-0.036722 	0.956724 	2.48383 	-5.96799e-20
21.1105 	-0.036722 	0.956724 	2.48383 	-5.96799e-20
21.1806 	-0.036722 	0.956724 	2.48383 	-5.96799e-20
21.2507 	-0.036722 	0.956724 	2.48383 	-5.96799e-20
21.3209 	-0.036722 	0.956724 	2.48383 	-5.96799e-20
21.391 	-0.036722 	0.956724 	2.48383 	-5.96799e-20
21.4611 	-0.00967529 	0.648872 	1.96 	-2.4215e-21
21.5313 	-0.00967529 	0.648872 	1.96 	-2.4215e-21
21.6014 	-0.00967529 	0.648872 	1.96 	-2.4215e-21
21.6715 	0.0126538 	0.669866 	1.48111 	4.57565e-20
21.7417 	0.0126538 	0.669866 	1.48111 	4.57565e-20
21.8118 	0.0126538 	0.669866 	1.48111 	4.57565e-20
21.8819 	0.0126538 	0.669866 	1.48111 	4.57565e-20
21.9521 	0.0126538 	0.669866 	1.48111 	4.57565e-20
22.0222 	-0.135927 	1.01574 	2.26214 	-5.88263e-20
22.0923 	-0.135927 	1.01574 	2.26214 	-5.88263e-20
22.1625 	-0.135927 	1.01574 	2.26214 	-5.88263e-20
22.2326 	-0.135927 	1.01574 	2.26214 	-5.88263e-20
22.3027 	-0.135927 	1.01574 	2.26214 	-5.88263e-20
22.3729 	-0.135927 	1.01574 	2.26214 	-5.88263e-20
22.443 	-0.135927 	1.01574 	2.26214 	-5.88263e-20
22.5131 	-0.135927 	1.01574 	2.26214 	-5.88263e-20
22.5833 	-0.135927 	1.01574 	2.26214 	-5.88263e-20
22.6534 	-0.135927 	1.01574 	2.26214 	-5.88263e-20
22.7235 	-0.135927 	1.01574 	2.26214 	-5.88263e-20
22.7937 	-0.135927 	1.01574 	2.26214 	-5.88263e-20
22.8638 	-0.135927 	1.01574 	2.26214 	-5.88263e-20
22.9339 	-0.135927 	1.01574 	2.26214 	-5.88263e-20
23.0041 	-0.135927 	1.01574 	2.26214 	-5.88263e-20
23.0742 	-0.135927 	1.01574 	2.26214 	-5.88263e-20
23.1443 	-0.135927 	1.01574 	2.26214 	-5.88263e-20
23.2145 	-0.135927 	1.01574 	2.26214 	-5.88263e-20
23.2846 	-0.135927 	1.01574 	2.26214 	-5.88263e-20
23.3548 	-0.135927 	1.01574 	2.26214 	-5.88263e-20
23.4249 	-0.135927 	1.01574 	2.26214 	-5.88263e-20
23.495 	-0.155397 	1.04694 	2.29095 	3.35601e-20
23.5652 	-0.155397 	1.04694 	2.29095 	3.35601e-20
23.6353 	-0.155397 	1.04694 	2.29095 	3.35601e-20
23.7054 	-0.155397 	1.04694 	2.29095 	3.35601e-20
23.7756 	-0.155397 	1.04694 	2.29095 	3.35601e-20
23.8457 	-0.155397 	1.04694 	2.29095 	3.35601e-20
23.9158 	-0.155397 	1.04694 	2.29095 	3.35601e-20
23.986 	-0.175221 	1.06464 	2.27895 	-2.57183e-21
24.0561 	-0.175221 	1.06464 	2.27895 	-2.57183e-21
24.1262 	-0.175221 	1.06464 	2.27895 	-2.57183e-21
24.1964 	-0.175221 	1.06464 	2.27895 	-2.57183e-21
24.2665 	-0.175221 	1.06464 	2.27895 	-2.57183e-21
24.3366 	-0.175221 	1.06464 	2.27895 	-2.57183e-21
24.4068 	-0.175221 	1.06464 	2.27895 	-2.57183e-21
24.4769 	-0.175221 	1.06464 	2.27895 	-2.57183e-21
24.547 	-0.175221 	1.06464 	2.27895 	-2.57183e-21
24.6172 	-0.175221 	1.06464 	2.27895 	-2.57183e-21
24.6873 	-0.175221 	1.06464 	2.27895 	-2.57183e-21
24.7574 	-0.175221 	1.06464 	2.27895 	-2.57183e-21
24.8276 	-0.175221 	1.06464 	2.27895 	-2.57183e-21
24.8977 	-0.175221 	1.06464 	2.27895 	-2.57183e-21
24.9678 	-0.175221 	1.06464 	2.27895 	-2.57183e-21
25.038 	-0.175221 	1.06464 	2.27895 	-2.57183e-21
25.1081 	-0.175221 	1.06464 	2.27895 	-2.57183e-21
25.1782 	-0.244004 	0.835632 	1.54306 	0
25.2484 	-0.244004 	0.835632 	1.54306 	0
25.3185 	-0.244004 	0.835632 	1.54306 	0
25.3886 	-0.244004 	0.835632 	1.54306 	0
25.4588 	-0.244004 	0.835632 	1.54306 	0
25.5289 	-0.244004 	0.835632 	1.54306 	0
25.5991 	-0.244004 	0.835632 	1.54306 	0
25.6692 	-0.244004 	0.835632 	1.54306 	0
25.7393 	-0.244004 	0.835632 	1.54306 	0
25.8095 	-0.244004 	0.835632 	1.54306 	0
25.8796 	-0.244004 	0.835632 	1.54306 	0
25.9497 	-0.244004 	0.835632 	1.54306 	0
26.0199 	-0.244004 	0.835632 	1.54306 	0
26.09 	-0.244004 	0.835632 	1.54306 	0
26.1601 	-0.244004 	0.835632 	1.54306 	0
26.2303 	-0.47082 	0.787116 	1.63201 	1.00041e-18
26.3004 	-0.47082 	0.787116 	1.63201 	1.00041e-18
26.3705 	-0.47082 	0.787116 	1.63201 	1.00041e-18
26.4407 	-0.47082 	0.787116 	1.63201 	1.00041e-18
26.5108 	-0.47082 	0.787116 	1.63201 	1.00041e-18
26.5809 	-0.47082 	0.787116 	1.63201 	1.00041e-18
26.6511 	-0.47082 	0.787116 	1.63201 	1.00041e-18
26.7212 	-0.47082 	0.787116 	1.63201 	1.00041e-18
26.7913 	-0.47082 	0.787116 	1.63201 	1.00041e-18
26.8615 	-0.47082 	0.787116 	1.63201 	1.00041e-18
26.9316 	-0.47082 	0.787116 	1.63201 	1.00041e-18
27.0017 	-0.47082 	0.787116 	1.63201 	1.00041e-18
27.0719 	-0.47082 	0.787116 	1.63201 	1.00041e-18
27.142 	-0.47082 	0.787116 	1.63201 	1.00041e-18
27.2121 	-0.47082 	0.787116 	1.63201 	1.00041e-18
27.2823 	-0.47082 	0.787116 	1.63201 	1.00041e-18
27.3524 	-0.530194 	0.612994 	1.75799 	-1.06157e-18
27.4225 	-0.530194 	0.612994 	1.75799 	-1.06157e-18
27.4927 	-0.530194 	0.612994 	1.75799 	-1.06157e-18
27.5628 	-0.530194 	0.612994 	1.75799 	-1.06157e-18
27.6329 	-0.530194 	0.612994 	1.75799 	-1.06157e-18
27.7031 	-0.530194 	0.612994 	1.75799 	-1.06157e-18
27.7732 	-0.530194 	0.612994 	1.75799 	-1.06157e-18
27.8434 	-0.530194 	0.612994 	1.75799 	-1.06157e-18
27.9135 	-0.530194 	0.612994 	1.75799 	-1.06157e-18
27.9836 	-0.530194 	0.612994 	1.75799 	-1.06157e-18
28.0538 	-0.530194 	0.612994 	1.75799 	-1.06157e-18
28.1239 	-0.530194 	0.612994 	1.75799 	-1.06157e-18
28.194 	-0.530194 	0.612994 	1.75799 	-1.06157e-18
28.2642 	-0.530194 	0.612994 	1.75799 	-1.06157e-18
28.3343 	-0.530194 	0.612994 	1.75799 	-1.06157e-18
28.4044 	-0.530194 	0.612994 	1.75799 	-1.06157e-18
28.4746 	-0.530194 	0.612994 	1.75799 	-1.06157e-18
28.5447 	-0.530194 	0.612994 	1.75799 	-1.06157e-18
28.6148 	-0.530194 	0.612994 	1.75799 	-1.06157e-18
28.685 	-0.530194 	0.612994 	1.75799 	-1.06157e-18
28.7551 	-0.530194 	0.612994 	1.75799 	-1.06157e-18
28.8252 	-0.530194 	0.612994 	1.75799 	-1.06157e-18
28.8954 	-0.530194 	0.612994 	1.75799 	-1.06157e-18
28.9655 	-0.652346 	0.283684 	1.95293 	-5.95466e-20
29.0356 	-0.652346 	0.283684 	1.95293 	-5.95466e-20
29.1058 	-0.652346 	0.283684 	1.95293 	-5.95466e-20
29.1759 	-0.652346 	0.283684 	1.95293 	-5.95466e-20
29.246 	-0.652346 	0.283684 	1.95293 	-5.95466e-20
29.3162 	-0.652346 	0.283684 	1.95293 	-5.95466e-20
29.3863 	-0.652346 	0.283684 	1.95293 	-5.95466e-20
29.4564 	-0.652346 	0.283684 	1.95293 	-5.95466e-20
29.5266 	-0.652346 	0.283684 	1.95293 	-5.95466e-20
29.5967 	-0.652346 	0.283684 	1.95293 	-5.95466e-20
29.6668 	-0.652346 	0.283684 	1.95293 	-5.95466e-20
29.737 	-0.652346 	0.283684 	1.95293 	-5.95466e-20
29.8071 	-0.652346 	0.283684 	1.95293 	-5.95466e-20
29.8773 	-0.652346 	0.283684 	1.95293 	-5.95466e-20
29.9474 	-0.652346 	0.283684 	1.95293 	-5.95466e-20
30.0175 	-0.652346 	0.283684 	1.95293 	-5.95466e-20
30.0877 	-0.652346 	0.283684 	1.95293 	-5.95466e-20
30.1578 	-0.652346 	0.283684 	1.95293 	-5.95466e-20
30.2279 	-0.652346 	0.283684 	1.95293 	-5.95466e-20
30.2981 	-0.652346 	0.283684 	1.95293 	-5.95466e-20
30.3682 	-0.652346 	0.283684 	1.95293 	-5.95466e-20
30.4383 	-0.652346 	0.283684 	1.95293 	-5.95466e-20
30.5085 	-0.652346 	0.283684 	1.95293 	-5.95466e-20
30.5786 	-0.652346 	0.283684 	1.95293 	-5.95466e-20
30.6487 	-0.652346 	0.283684 	1.95293 	-5.95466e-20
30.7189 	-0.652346 	0.283684 	1.95293 	-5.95466e-20
30.789 	-0.370758 	-0.233599 	1.7892 	8.82206e-19
30.8591 	-0.370758 	-0.233599 	1.7892 	8.82206e-19
30.9293 	-0.370758 	-0.233599 	1.7892 	8.82206e-19
30.9994 	-0.370758 	-0.233599 	1.7892 	8.82206e-19
31.0695 	-0.370758 	-0.233599 	1.7892 	8.82206e-19
31.1397 	-0.370758 	-0.233599 	1.7892 	8.82206e-19
31.2098 	-0.370758 	-0.233599 	1.7892 	8.82206e-19
31.2799 	-0.370758 	-0.233599 	1.7892 	8.82206e-19
31.3501 	-0.370758 	-0.233599 	1.7892 	8.82206e-19
31.4202 	-0.370758 	-0.233599 	1.7892 	8.82206e-19
31.4903 	-0.370758 	-0.233599 	1.7892 	8.82206e-19
31.5605 	-0.370758 	-0.233599 	1.7892 	8.82206e-19
31.6306 	-0.370758 	-0.233599 	1.7892 	8.82206e-19
31.7007 	-0.370758 	-0.233599 	1.7892 	8.82206e-19
31.7709 	-0.370758 	-0.233599 	1.7892 	8.82206e-19
31.841 	-0.370758 	-0.233599 	1.7892 	8.82206e-19
31.9111 	-0.370758 	-0.233599 	1.7892 	8.82206e-19
31.9813 	-0.370758 	-0.233599 	1.7892 	8.82206e-19
32.0514 	-0.370758 	-0.233599 	1.7892 	8.82206e-19
32.1216 	-0.370758 	-0.233599 	1.7892 	8.82206e-19
32.1917 	-0.370758 	-0.233599 	1.7892 	8.82206e-19
32.2618 	-0.370758 	-0.233599 	1.7892 	8.82206e-19
32.332 	-0.370758 	-0.233599 	1.7892 	8.82206e-19
32.4021 	-0.370758 	-0.233599 	1.7892 	8.82206e-19
32.4722 	-0.370758 	-0.233599 	1.7892 	8.82206e-19
32.5424 	-0.370758 	-0.233599 	1.7892 	8.82206e-19
32.6125 	-0.370758 	-0.233599 	1.7892 	8.82206e-19
32.6826 	-0.370758 	-0.233599 	1.7892 	8.82206e-19
32.7528 	-0.370758 	-0.233599 	1.7892 	8.82206e-19
32.8229 	-0.370758 	-0.233599 	1.7892 	8.82206e-19
32.893 	-0.370758 	-0.233599 	1.7892 	8.82206e-19
32.9632 	-0.370758 	-0.233599 	1.7892 	8.82206e-19
33.0333 	-0.370758 	-0.233599 	1.7892 	8.82206e-19
33.1034 	-0.370758 	-0.233599 	1.7892 	8.82206e-19
33.1736 	-0.370758 	-0.233599 	1.7892 	8.82206e-19
33.2437 	-0.370758 	-0.233599 	1.7892 	8.82206e-19
33.3138 	-0.370758 	-0.233599 	1.7892 	8.82206e-19
33.384 	-0.370758 	-0.233599 	1.7892 	8.82206e-19
33.4541 	-0.370758 	-0.233599 	1.7892 	8.82206e-19
33.5242 	-0.370758 	-0.233599 	1.7892 	8.82206e-19
33.5944 	-0.370758 	-0.233599 	1.7892 	8.82206e-19
33.6645 	-0.370758 	-0.233599 	1.7892 	8.82206e-19
33.7346 	-0.311616 	-0.157222 	1.68359 	-4.18407e-19
33.8048 	-0.311616 	-0.157222 	1.68359 	-4.18407e-19
33.8749 	-0.311616 	-0.157222 	1.68359 	-4.18407e-19
33.945 	-0.311616 	-0.157222 	1.68359 	-4.18407e-19
34.0152 	-0.311616 	-0.157222 	1.68359 	-4.18407e-19
34.0853 	-0.311616 	-0.157222 	1.68359 	-4.18407e-19
34.1554 	-0.280053 	-0.17977 	1.65565 	2.15304e-19
34.2256 	-0.280053 	-0.17977 	1.65565 	2.15304e-19
34.2957 	-0.280053 	-0.17977 	1.65565 	2.15304e-19
34.3659 	-0.280053 	-0.17977 	1.65565 	2.15304e-19
34.436 	-0.280053 	-0.17977 	1.65565 	2.15304e-19
34.5061 	-0.280053 	-0.17977 	1.65565 	2.15304e-19
34.5763 	-0.280053 	-0.17977 	1.65565 	2.15304e-19
34.6464 	-0.280053 	-0.17977 	1.65565 	2.15304e-19
34.7165 	0.0344809 	-0.117917 	1.98191 	-1.03968e-19
34.7867 	0.0344809 	-0.117917 	1.98191 	-1.03968e-19
34.8568 	0.0344809 	-0.117917 	1.98191 	-1.03968e-19
34.9269 	0.0344809 	-0.117917 	1.98191 	-1.03968e-19
34.9971 	0.0344809 	-0.117917 	1.98191 	-1.03968e-19
35.0672 	0.0344809 	-0.117917 	1.98191 	-1.03968e-19
35.1373 	0.0344809 	-0.117917 	1.98191 	-1.03968e-19
35.2075 	0.0344809 	-0.117917 	1.98191 	-1.03968e-19
35.2776 	0.0344809 	-0.117917 	1.98191 	-1.03968e-19
35.3477 	0.0344809 	-0.117917 	1.98191 	-1.03968e-19
35.4179 	0.0344809 	-0.117917 	1.98191 	-1.03968e-19
35.488 	0.0344809 	-0.117917 	1.98191 	-1.03968e-19
35.5581 	0.0344809 	-0.117917 	1.98191 	-1.03968e-19
35.6283 	0.0344809 	-0.117917 	1.98191 	-1.03968e-19
35.6984 	0.0344809 	-0.117917 	1.98191 	-1.03968e-19
35.7685 	0.0344809 	-0.117917 	1.98191 	-1.03968e-19
35.8387 	0.0344809 	-0.117917 	1.98191 	-1.03968e-19
35.9088 	0.0344809 	-0.117917 	1.98191 	-1.03968e-19
35.9789 	0.0344809 	-0.117917 	1.98191 	-1.03968e-19
36.0491 	0.120925 	-0.105933 	1.94357 	0
36.1192 	0.120925 	-0.105933 	1.94357 	0
36.1893 	0.120925 	-0.105933 	1.94357 	0
36.2595 	0.120925 	-0.105933 	1.94357 	0
36.3296 	0.120925 	-0.105933 	1.94357 	0
36.3997 	0.120925 	-0.105933 	1.94357 	0
36.4699 	0.120925 	-0.105933 	1.94357 	0
36.54 	0.120925 	-0.105933 	1.94357 	0
36.6102 	0.120925 	-0.105933 	1.94357 	0
36.6803 	0.120925 	-0.105933 	1.94357 	0
36.7504 	0.120925 	-0.105933 	1.94357 	0
36.8206 	0.120925 	-0.105933 	1.94357 	0
36.8907 	0.068542 	-0.107599 	1.87189 	9.04344e-20
36.9608 	0.068542 	-0.107599 	1.87189 	9.04344e-20
37.031 	0.068542 	-0.107599 	1.87189 	9.04344e-20
37.1011 	0.068542 	-0.107599 	1.87189 	9.04344e-20
37.1712 	0.068542 	-0.107599 	1.87189 	9.04344e-20
37.2414 	0.068542 	-0.107599 	1.87189 	9.04344e-20
37.3115 	0.068542 	-0.107599 	1.87189 	9.04344e-20
37.3816 	0.068542 	-0.107599 	1.87189 	9.04344e-20
37.4518 	0.068542 	-0.107599 	1.87189 	9.04344e-20
37.5219 	0.068542 	-0.107599 	1.87189 	9.04344e-20
37.592 	0.068542 	-0.107599 	1.87189 	9.04344e-20
37.6622 	0.068542 	-0.107599 	1.87189 	9.04344e-20
37.7323 	0.068542 	-0.107599 	1.87189 	9.04344e-20
37.8024 	0.068542 	-0.107599 	1.87189 	9.04344e-20
37.8726 	0.068542 	-0.107599 	1.87189 	9.04344e-20
37.9427 	0.068542 	-0.107599 	1.87189 	9.04344e-20
38.0128 	0.068542 	-0.107599 	1.87189 	9.04344e-20
38.083 	0.068542 	-0.107599 	1.87189 	9.04344e-20
38.1531 	0.068542 	-0.107599 	1.87189 	9.04344e-20
38.2232 	0.122314 	-0.0718457 	1.8506 	-1.00512e-19
38.2934 	0.122314 	-0.0718457 	1.8506 	-1.00512e-19
38.3635 	0.122314 	-0.0718457 	1.8506 	-1.00512e-19
38.4336 	0.122314 	-0.0718457 	1.8506 	-1.00512e-19
38.5038 	0.122314 	-0.0718457 	1.8506 	-1.00512e-19
38.5739 	0.122314 	-0.0718457 	1.8506 	-1.00512e-19
38.644 	0.122314 	-0.0718457 	1.8506 	-1.00512e-19
38.7142 	0.122314 	-0.0718457 	1.8506 	-1.00512e-19
38.7843 	0.122314 	-0.0718457 	1.8506 	-1.00512e-19
38.8545 	0.122314 	-0.0718457 	1.8506 	-1.00512e-19
38.9246 	0.122314 	-0.0718457 	1.8506 	-1.00512e-19
38.9947 	0.122314 	-0.0718457 	1.8506 	-1.00512e-19
39.0649 	0.122314 	-0.0718457 	1.8506 	-1.00512e-19
39.135 	0.122314 	-0.0718457 	1.8506 	-1.00512e-19
39.2051 	0.110465 	-0.0467978 	1.84536 	0
39.2753 	0.110465 	-0.0467978 	1.84536 	0
39.3454 	0.110465 	-0.0467978 	1.84536 	0
39.4155 	0.110465 	-0.0467978 	1.84536 	0
39.4857 	0.110465 	-0.0467978 	1.84536 	0
39.5558 	0.110465 	-0.0467978 	1.84536 	0
39.6259 	0.110465 	-0.0467978 	1.84536 	0
39.6961 	0.110465 	-0.0467978 	1.84536 	0
39.7662 	0.110465 	-0.0467978 	1.84536 	0
39.8363 	0.110465 	-0.0467978 	1.84536 	0
39.9065 	0.110465 	-0.0467978 	1.84536 	0
39.9766 	0.110465 	-0.0467978 	1.84536 	0
40.0467 	0.110465 	-0.0467978 	1.84536 	0
40.1169 	0.110465 	-0.0467978 	1.84536 	0
40.187 	0.110465 	-0.0467978 	1.84536 	0
40.2571 	0.110465 	-0.0467978 	1.84536 	0
40.3273 	0.110465 	-0.0467978 	1.84536 	0
40.3974 	0.110465 	-0.0467978 	1.84536 	0
40.4675 	0.110465 	-0.0467978 	1.84536 	0
40.5377 	0.110465 	-0.0467978 	1.84536 	0
40.6078 	0.110465 	-0.0467978 	1.84536 	0
40.6779 	0.0471323 	-0.0517568 	1.83195 	-3.14944e-20
40.7481 	0.0471323 	-0.0517568 	1.83195 	-3.14944e-20
40.8182 	0.0471323 	-0.0517568 	1.83195 	-3.14944e-20
40.8883 	0.0471323 	-0.0517568 	1.83195 	-3.14944e-20
40.9585 	0.0471323 	-0.0517568 	1.83195 	-3.14944e-20
41.0286 	0.0471323 	-0.0517568 	1.83195 	-3.14944e-20
41.0988 	0.0471323 	-0.0517568 	1.83195 	-3.14944e-20
41.1689 	0.0471323 	-0.0517568 	1.83195 	-3.14944e-20
41.239 	0.0633851 	-0.0409859 	1.82241 	5.84631e-20
41.3092 	0.0633851 	-0.0409859 	1.82241 	5.84631e-20
41.3793 	0.0633851 	-0.0409859 	1.82241 	5.84631e-20
41.4494 	0.0633851 	-0.0409859 	1.82241 	5.84631e-20
41.5196 	0.0633851 	-0.0409859 	1.82241 	5.84631e-20
41.5897 	0.0633851 	-0.0409859 	1.82241 	5.84631e-20
41.6598 	0.0633851 	-0.0409859 	1.82241 	5.84631e-20
41.73 	0.0633851 	-0.0409859 	1.82241 	5.84631e-20
41.8001 	0.0633851 	-0.0409859 	1.82241 	5.84631e-20
41.8702 	0.0633851 	-0.0409859 	1.82241 	5.84631e-20
41.9404 	0.0633851 	-0.0409859 	1.82241 	5.84631e-20
42.0105 	0.0633851 	-0.0409859 	1.82241 	5.84631e-20
42.0806 	0.0633851 	-0.0409859 	1.82241 	5.84631e-20
42.1508 	0.0633851 	-0.0409859 	1.82241 	5.84631e-20
42.2209 	0.0633851 	-0.0409859 	1.82241 	5.84631e-20
42.291 	0.0633851 	-0.0409859 	1.82241 	5.84631e-20
42.3612 	0.0633851 	-0.0409859 	1.82241 	5.84631e-20
42.4313 	0.0633851 	-0.0409859 	1.82241 	5.84631e-20
42.5014 	0.0633851 	-0.0409859 	1.82241 	5.84631e-20
42.5716 	0.0633851 	-0.0409859 	1.82241 	5.84631e-20
42.6417 	0.0633851 	-0.0409859 	1.82241 	5.84631e-20
42.7118 	0.0574332 	-0.0337672 	1.81364 	0
42.782 	0.0574332 	-0.0337672 	1.81364 	0
42.8521 	0.0574332 	-0.0337672 	1.81364 	0
42.9222 	0.0574332 	-0.0337672 	1.81364 	0
42.9924 	0.0759204 	-0.0191547 	1.80513 	0