0.490941 	1.09839 	0.00612517 	3.0028 	0
0.561075 	1.09839 	0.00612517 	3.0028 	0
0.63121 	1.09839 	0.00612517 	3.0028 	0
0.701344 	1.09839 	0.00612517 	3.0028 	0
0.771478 	1.09839 	0.00612517 	3.0028 	0
0.841613 	1.09839 	0.00612517 	3.0028 	0
0.911747 	1.09839 	0.00612517 	3.0028 	0
0.981881 	1.09839 	0.00612517 	3.0028 	0
1.05202 	1.09839 	0.00612517 	3.0028 	0
1.12215 	1.09839 	0.00612517 	3.0028 	0
1.19228 	1.09839 	0.00612517 	3.0028 	0
1.26242 	1.07225 	0.0115096 	3.00796 	0
1.33255 	1.07225 	0.0115096 	3.00796 	0
1.40269 	1.07225 	0.0115096 	3.00796 	0
1.47282 	1.07225 	0.0115096 	3.00796 	0
1.54296 	1.07225 	0.0115096 	3.00796 	0
1.61309 	1.07225 	0.0115096 	3.00796 	0
1.68323 	1.07225 	0.0115096 	3.00796 	0
1.75336 	1.07225 	0.0115096 	3.00796 	0
1.82349 	1.02242 	0.0148279 	3.02393 	3.91801e-19
1.89363 	1.02242 	0.0148279 	3.02393 	3.91801e-19
1.96376 	1.02242 	0.0148279 	3.02393 	3.91801e-19
2.0339 	1.02242 	0.0148279 	3.02393 	3.91801e-19
2.10403 	1.02242 	0.0148279 	3.02393 	3.91801e-19
2.17417 	1.02242 	0.0148279 	3.02393 	3.91801e-19
2.2443 	1.02242 	0.0148279 	3.02393 	3.91801e-19
2.31443 	1.02242 	0.0148279 	3.02393 	3.91801e-19
2.38457 	1.02242 	0.0148279 	3.02393 	3.91801e-19
2.4547 	1.02242 	0.0148279 	3.02393 	3.91801e-19
2.52484 	1.02242 	0.0148279 	3.02393 	3.91801e-19
2.59497 	0.987876 	0.00734843 	3.0368 	-6.19956e-19
2.66511 	0.987876 	0.00734843 	3.0368 	-6.19956e-19
2.73524 	0.987876 	0.00734843 	3.0368 	-6.19956e-19
2.80538 	0.987876 	0.00734843 	3.0368 	-6.19956e-19
2.87551 	0.987876 	0.00734843 	3.0368 	-6.19956e-19
2.94564 	0.987876 	0.00734843 	3.0368 	-6.19956e-19
3.01578 	0.987876 	0.00734843 	3.0368 	-6.19956e-19
3.08591 	0.987876 	0.00734843 	3.0368 	-6.19956e-19
3.15605 	0.987876 	0.00734843 	3.0368 	-6.19956e-19
3.22618 	0.987876 	0.00734843 	3.0368 	-6.19956e-19
3.29632 	0.955496 	0.0201331 	3.04338 	6.26108e-19
3.36645 	0.955496 	0.0201331 	3.04338 	6.26108e-19
3.43659 	0.955496 	0.0201331 	3.04338 	6.26108e-19
3.50672 	0.955496 	0.0201331 	3.04338 	6.26108e-19
3.57685 	0.955496 	0.0201331 	3.04338 	6.26108e-19
3.64699 	0.955496 	0.0201331 	3.04338 	6.26108e-19
3.71712 	0.955496 	0.0201331 	3.04338 	6.26108e-19
3.78726 	0.955496 	0.0201331 	3.04338 	6.26108e-19
3.85739 	0.955496 	0.0201331 	3.04338 	6.26108e-19
3.92753 	0.955496 	0.0201331 	3.04338 	6.26108e-19
3.99766 	0.955496 	0.0201331 	3.04338 	6.26108e-19
4.06779 	0.937186 	0.00363421 	3.05025 	-1.75905e-20
4.13793 	0.937186 	0.00363421 	3.05025 	-1.75905e-20
4.20806 	0.937186 	0.00363421 	3.05025 	-1.75905e-20
4.2782 	0.937186 	0.00363421 	3.05025 	-1.75905e-20
4.34833 	0.937186 	0.00363421 	3.05025 	-1.75905e-20
4.41847 	0.937186 	0.00363421 	3.05025 	-1.75905e-20
4.4886 	0.91216 	0.01661 	3.05777 	0
4.55874 	0.91216 	0.01661 	3.05777 	0
4.62887 	0.91216 	0.01661 	3.05777 	0
4.699 	0.91216 	0.01661 	3.05777 	0
4.76914 	0.91216 	0.01661 	3.05777 	0
4.83927 	0.91216 	0.01661 	3.05777 	0
4.90941 	0.91216 	0.01661 	3.05777 	0
4.97954 	0.91216 	0.01661 	3.05777 	0
5.04968 	0.91216 	0.01661 	3.05777 	0
5.11981 	0.91216 	0.01661 	3.05777 	0
5.18994 	0.889751 	0.00582733 	3.06495 	-8.29604e-21
5.26008 	0.889751 	0.00582733 	3.06495 	-8.29604e-21
5.33021 	0.889751 	0.00582733 	3.06495 	-8.29604e-21
5.40035 	0.889751 	0.00582733 	3.06495 	-8.29604e-21
5.47048 	0.889751 	0.00582733 	3.06495 	-8.29604e-21
5.54062 	0.889751 	0.00582733 	3.06495 	-8.29604e-21
5.61075 	0.889751 	0.00582733 	3.06495 	-8.29604e-21
5.68089 	0.861024 	0.0112053 	3.07432 	0
5.75102 	0.861024 	0.0112053 	3.07432 	0
5.82115 	0.861024 	0.0112053 	3.07432 	0
5.89129 	0.861024 	0.0112053 	3.07432 	0
5.96142 	0.861024 	0.0112053 	3.07432 	0
6.03156 	0.861024 	0.0112053 	3.07432 	0
6.10169 	0.861024 	0.0112053 	3.07432 	0
6.17183 	0.861024 	0.0112053 	3.07432 	0
6.24196 	0.861024 	0.0112053 	3.07432 	0
6.3121 	0.831691 	0.00713979 	3.08248 	0
6.38223 	0.831691 	0.00713979 	3.08248 	0
6.45236 	0.831691 	0.00713979 	3.08248 	0
6.5225 	0.831691 	0.00713979 	3.08248 	0
6.59263 	0.831691 	0.00713979 	3.08248 	0
6.66277 	0.831691 	0.00713979 	3.08248 	0
6.7329 	0.831691 	0.00713979 	3.08248 	0
6.80304 	0.831691 	0.00713979 	3.08248 	0
6.87317 	0.805873 	0.00634342 	3.09185 	2.76397e-19
6.9433 	0.805873 	0.00634342 	3.09185 	2.76397e-19
7.01344 	0.805873 	0.00634342 	3.09185 	2.76397e-19
7.08357 	0.805873 	0.00634342 	3.09185 	2.76397e-19
7.15371 	0.805873 	0.00634342 	3.09185 	2.76397e-19
7.22384 	0.805873 	0.00634342 	3.09185 	2.76397e-19
7.29398 	0.805873 	0.00634342 	3.09185 	2.76397e-19
7.36411 	0.805873 	0.00634342 	3.09185 	2.76397e-19
7.43425 	0.805873 	0.00634342 	3.09185 	2.76397e-19
7.50438 	0.775172 	0.0086003 	3.09866 	-2.05137e-18
7.57451 	0.775172 	0.0086003 	3.09866 	-2.05137e-18
7.64465 	0.775172 	0.0086003 	3.09866 	-2.05137e-18
7.71478 	0.775172 	0.0086003 	3.09866 	-2.05137e-18
7.78492 	0.775172 	0.0086003 	3.09866 	-2.05137e-18
7.85505 	0.775172 	0.0086003 	3.09866 	-2.05137e-18
7.92519 	0.775172 	0.0086003 	3.09866 	-2.05137e-18
7.99532 	0.775172 	0.0086003 	3.09866 	-2.05137e-18
8.06545 	0.753797 	0.00186709 	3.10667 	2.028e-18
8.13559 	0.753797 	0.00186709 	3.10667 	2.028e-18
8.20572 	0.753797 	0.00186709 	3.10667 	2.028e-18
8.27586 	0.753797 	0.00186709 	3.10667 	2.028e-18
8.34599 	0.753797 	0.00186709 	3.10667 	2.028e-18
8.41613 	0.753797 	0.00186709 	3.10667 	2.028e-18
8.48626 	0.753797 	0.00186709 	3.10667 	2.028e-18
8.5564 	0.753797 	0.00186709 	3.10667 	2.028e-18
8.62653 	0.753797 	0.00186709 	3.10667 	2.028e-18
8.69666 	0.723615 	0.0147004 	3.11838 	1.68043e-18
8.7668 	0.723615 	0.0147004 	3.11838 	1.68043e-18
8.83693 	0.723615 	0.0147004 	3.11838 	1.68043e-18
8.90707 	0.723615 	0.0147004 	3.11838 	1.68043e-18
8.9772 	0.723615 	0.0147004 	3.11838 	1.68043e-18
9.04734 	0.723615 	0.0147004 	3.11838 	1.68043e-18
9.11747 	0.723615 	0.0147004 	3.11838 	1.68043e-18
9.18761 	0.723615 	0.0147004 	3.11838 	1.68043e-18
9.25774 	0.693615 	0.00533317 	3.11793 	-1.55932e-18
9.32787 	0.693615 	0.00533317 	3.11793 	-1.55932e-18
9.39801 	0.693615 	0.00533317 	3.11793 	-1.55932e-18
9.46814 	0.693615 	0.00533317 	3.11793 	-1.55932e-18
9.53828 	0.693615 	0.00533317 	3.11793 	-1.55932e-18
9.60841 	0.693615 	0.00533317 	3.11793 	-1.55932e-18
9.67855 	0.693615 	0.00533317 	3.11793 	-1.55932e-18
9.74868 	0.693615 	0.00533317 	3.11793 	-1.55932e-18
9.81881 	0.676479 	0.0171051 	3.12953 	-5.24813e-19
9.88895 	0.676479 	0.0171051 	3.12953 	-5.24813e-19
9.95908 	0.676479 	0.0171051 	3.12953 	-5.24813e-19
10.0292 	0.676479 	0.0171051 	3.12953 	-5.24813e-19
10.0994 	0.676479 	0.0171051 	3.12953 	-5.24813e-19
10.1695 	0.676479 	0.0171051 	3.12953 	-5.24813e-19
10.2396 	0.676479 	0.0171051 	3.12953 	-5.24813e-19
10.3098 	0.676479 	0.0171051 	3.12953 	-5.24813e-19
10.3799 	0.676479 	0.0171051 	3.12953 	-5.24813e-19
10.45 	0.676479 	0.0171051 	3.12953 	-5.24813e-19
10.5202 	0.676479 	0.0171051 	3.12953 	-5.24813e-19
10.5903 	0.676479 	0.0171051 	3.12953 	-5.24813e-19
10.6604 	0.698423 	0.0148688 	3.12558 	7.72431e-19
10.7306 	0.646306 	0.0356071 	3.13992 	0
10.8007 	0.646306 	0.0356071 	3.13992 	0
10.8708 	0.646306 	0.0356071 	3.13992 	0
10.941 	0.646306 	0.0356071 	3.13992 	0
11.0111 	0.646306 	0.0356071 	3.13992 	0
11.0812 	0.646306 	0.0356071 	3.13992 	0
11.1514 	0.646306 	0.0356071 	3.13992 	0
11.2215 	0.646306 	0.0356071 	3.13992 	0
11.2916 	0.646306 	0.0356071 	3.13992 	0
11.3618 	0.646306 	0.0356071 	3.13992 	0
11.4319 	0.646306 	0.0356071 	3.13992 	0
11.502 	0.646306 	0.0356071 	3.13992 	0
11.5722 	0.646306 	0.0356071 	3.13992 	0
11.6423 	0.646306 	0.0356071 	3.13992 	0
11.7124 	0.654817 	0.0228575 	3.12952 	0
11.7826 	0.593723 	0.0770184 	3.161 	8.67404e-19
11.8527 	0.593723 	0.0770184 	3.161 	8.67404e-19
11.9228 	0.593723 	0.0770184 	3.161 	8.67404e-19
11.993 	0.593723 	0.0770184 	3.161 	8.67404e-19
12.0631 	0.593723 	0.0770184 	3.161 	8.67404e-19
12.1332 	0.593723 	0.0770184 	3.161 	8.67404e-19
12.2034 	0.495968 	0.069915 	3.18696 	-4.2282e-19
12.2735 	0.495968 	0.069915 	3.18696 	-4.2282e-19
12.3437 	0.495968 	0.069915 	3.18696 	-4.2282e-19
12.4138 	0.495968 	0.069915 	3.18696 	-4.2282e-19
12.4839 	0.495968 	0.069915 	3.18696 	-4.2282e-19
12.5541 	0.495968 	0.069915 	3.18696 	-4.2282e-19
12.6242 	0.495968 	0.069915 	3.18696 	-4.2282e-19
12.6943 	0.495968 	0.069915 	3.18696 	-4.2282e-19
12.7645 	0.495968 	0.069915 	3.18696 	-4.2282e-19
12.8346 	0.381084 	0.0364377 	3.17937 	3.76694e-19
12.9047 	0.366781 	0.137848 	3.22287 	-1.7673e-19
12.9749 	0.366781 	0.137848 	3.22287 	-1.7673e-19
13.045 	0.366781 	0.137848 	3.22287 	-1.7673e-19
13.1151 	0.366781 	0.137848 	3.22287 	-1.7673e-19
13.1853 	0.366781 	0.137848 	3.22287 	-1.7673e-19
13.2554 	0.366781 	0.137848 	3.22287 	-1.7673e-19
13.3255 	0.366781 	0.137848 	3.22287 	-1.7673e-19
13.3957 	0.593652 	0.142925 	3.19416 	1.34607e-18
13.4658 	0.593652 	0.142925 	3.19416 	1.34607e-18
13.5359 	0.593652 	0.142925 	3.19416 	1.34607e-18
13.6061 	0.593652 	0.142925 	3.19416 	1.34607e-18
13.6762 	0.593652 	0.142925 	3.19416 	1.34607e-18
13.7463 	0.593652 	0.142925 	3.19416 	1.34607e-18
13.8165 	0.673169 	0.115839 	2.86856 	-1.11687e-18
13.8866 	0.876591 	0.139137 	2.96257 	4.80941e-19
13.9567 	0.876591 	0.139137 	2.96257 	4.80941e-19
14.0269 	0.29473 	0.24702 	3.03575 	-1.64465e-18
14.097 	0.29473 	0.24702 	3.03575 	-1.64465e-18
14.1671 	0.29473 	0.24702 	3.03575 	-1.64465e-18
14.2373 	0.29473 	0.24702 	3.03575 	-1.64465e-18
14.3074 	0.29473 	0.24702 	3.03575 	-1.64465e-18
14.3776 	0.29473 	0.24702 	3.03575 	-1.64465e-18
14.4477 	0.29473 	0.24702 	3.03575 	-1.64465e-18
14.5178 	0.29473 	0.24702 	3.03575 	-1.64465e-18
14.588 	0.29473 	0.24702 	3.03575 	-1.64465e-18
14.6581 	0.29473 	0.24702 	3.03575 	-1.64465e-18
14.7282 	0.29473 	0.24702 	3.03575 	-1.64465e-18
14.7984 	0.29473 	0.24702 	3.03575 	-1.64465e-18
14.8685 	0.29473 	0.24702 	3.03575 	-1.64465e-18
14.9386 	0.117419 	0.341567 	3.19452 	0
15.0088 	0.117419 	0.341567 	3.19452 	0
15.0789 	0.117419 	0.341567 	3.19452 	0
15.149 	0.117419 	0.341567 	3.19452 	0
15.2192 	0.117419 	0.341567 	3.19452 	0
15.2893 	-0.390217 	0.340476 	3.42185 	-2.4693e-19
15.3594 	-0.390217 	0.340476 	3.42185 	-2.4693e-19
15.4296 	-0.390217 	0.340476 	3.42185 	-2.4693e-19
15.4997 	-0.390217 	0.340476 	3.42185 	-2.4693e-19
15.5698 	-0.390217 	0.340476 	3.42185 	-2.4693e-19
15.64 	-0.390217 	0.340476 	3.42185 	-2.4693e-19
15.7101 	-0.885864 	0.395681 	3.49284 	0
15.7802 	-0.885864 	0.395681 	3.49284 	0
15.8504 	-0.782281 	0.647742 	3.55079 	1.33391e-18
15.9205 	-0.782281 	0.647742 	3.55079 	1.33391e-18
15.9906 	-0.782281 	0.647742 	3.55079 	1.33391e-18
16.0608 	-0.782281 	0.647742 	3.55079 	1.33391e-18
16.1309 	-0.782281 	0.647742 	3.55079 	1.33391e-18
16.201 	-0.782281 	0.647742 	3.55079 	1.33391e-18
16.2712 	-0.782281 	0.647742 	3.55079 	1.33391e-18
16.3413 	-0.782281 	0.647742 	3.55079 	1.33391e-18
16.4114 	-0.782281 	0.647742 	3.55079 	1.33391e-18
16.4816 	-0.782281 	0.647742 	3.55079 	1.33391e-18
16.5517 	-0.782281 	0.647742 	3.55079 	1.33391e-18
16.6219 	-0.782281 	0.647742 	3.55079 	1.33391e-18
16.692 	-0.782281 	0.647742 	3.55079 	1.33391e-18
16.7621 	-0.782281 	0.647742 	3.55079 	1.33391e-18
16.8323 	-0.332422 	0.872461 	3.11834 	1.26934e-19
16.9024 	-0.332422 	0.872461 	3.11834 	1.26934e-19
16.9725 	-0.332422 	0.872461 	3.11834 	1.26934e-19
17.0427 	-0.332422 	0.872461 	3.11834 	1.26934e-19
17.1128 	-0.332422 	0.872461 	3.11834 	1.26934e-19
17.1829 	-0.332422 	0.872461 	3.11834 	1.26934e-19
17.2531 	-0.332422 	0.872461 	3.11834 	1.26934e-19
17.3232 	-0.332422 	0.872461 	3.11834 	1.26934e-19
17.3933 	-0.332422 	0.872461 	3.11834 	1.26934e-19
17.4635 	-0.332422 	0.872461 	3.11834 	1.26934e-19
17.5336 	-0.240955 	0.91351 	3.03512 	-1.09628e-19
17.6037 	-0.240955 	0.91351 	3.03512 	-1.09628e-19
17.6739 	-0.240955 	0.91351 	3.03512 	-1.09628e-19
17.744 	-0.332036 	1.04246 	3.16466 	1.96351e-19
17.8141 	-0.332036 	1.04246 	3.16466 	1.96351e-19
17.8843 	-0.332036 	1.04246 	3.16466 	1.96351e-19
17.9544 	-0.332036 	1.04246 	3.16466 	1.96351e-19
18.0245 	-0.332036 	1.04246 	3.16466 	1.96351e-19
18.0947 	-0.332036 	1.04246 	3.16466 	1.96351e-19
18.1648 	-0.332036 	1.04246 	3.16466 	1.96351e-19
18.2349 	-0.332036 	1.04246 	3.16466 	1.96351e-19
18.3051 	-0.332036 	1.04246 	3.16466 	1.96351e-19
18.3752 	-0.0422341 	1.00458 	2.76827 	-1.49299e-19
18.4453 	-0.0422341 	1.00458 	2.76827 	-1.49299e-19
18.5155 	-0.0422341 	1.00458 	2.76827 	-1.49299e-19
18.5856 	-0.0422341 	1.00458 	2.76827 	-1.49299e-19
18.6557 	-0.0422341 	1.00458 	2.76827 	-1.49299e-19
18.7259 	-0.0422341 	1.00458 	2.76827 	-1.49299e-19
18.796 	-0.0422341 	1.00458 	2.76827 	-1.49299e-19
18.8662 	0.0247439 	1.04174 	2.82403 	-8.81286e-20
18.9363 	0.0247439 	1.04174 	2.82403 	-8.81286e-20
19.0064 	0.0247439 	1.04174 	2.82403 	-8.81286e-20
19.0766 	0.0247439 	1.04174 	2.82403 	-8.81286e-20
19.1467 	0.0247439 	1.04174 	2.82403 	-8.81286e-20
19.2168 	0.0247439 	1.04174 	2.82403 	-8.81286e-20
19.287 	0.0247439 	1.04174 	2.82403 	-8.81286e-20
19.3571 	0.0247439 	1.04174 	2.82403 	-8.81286e-20
19.4272 	0.0247439 	1.04174 	2.82403 	-8.81286e-20
19.4974 	0.0247439 	1.04174 	2.82403 	-8.81286e-20
19.5675 	0.0247439 	1.04174 	2.82403 	-8.81286e-20
19.6376 	0.0247439 	1.04174 	2.82403 	-8.81286e-20
19.7078 	0.0247439 	1.04174 	2.82403 	-8.81286e-20
19.7779 	0.172961 	0.990399 	2.45124 	-1.07428e-19
19.848 	0.172961 	0.990399 	2.45124 	-1.07428e-19
19.9182 	0.172961 	0.990399 	2.45124 	-1.07428e-19
19.9883 	0.172961 	0.990399 	2.45124 	-1.07428e-19
20.0584 	0.172961 	0.990399 	2.45124 	-1.07428e-19
20.1286 	0.172961 	0.990399 	2.45124 	-1.07428e-19
20.1987 	0.172961 	0.990399 	2.45124 	-1.07428e-19
20.2688 	0.168301 	0.995366 	2.44393 	2.21643e-19
20.339 	0.168301 	0.995366 	2.44393 	2.21643e-19
20.4091 	0.168301 	0.995366 	2.44393 	2.21643e-19
20.4792 	0.168301 	0.995366 	2.44393 	2.21643e-19
20.5494 	0.168301 	0.995366 	2.44393 	2.21643e-19
20.6195 	0.168301 	0.995366 	2.44393 	2.21643e-19
20.6896 	0.168301 	0.995366 	2.44393 	2.21643e-19
20.7598 	0.168301 	0.995366 	2.44393 	2.21643e-19
20.8299 	0.168301 	0.995366 	2.44393 	2.21643e-19
20.9 	0.168301 	0.995366 	2.44393 	2.21643e-19
20.9702 	0.168301 	0.995366 	2.44393 	2.21643e-19
21.0403 	0.168301 	0.995366 	2.44393 	2.21643e-19
21.1105 	0.168301 	0.995366 	2.44393 	2.21643e-19
21.1806 	0.168301 	0.995366 	2.44393 	2.21643e-19
21.2507 	0.168301 	0.995366 	2.44393 	2.21643e-19
21.3209 	0.168301 	0.995366 	2.44393 	2.21643e-19
21.391 	0.168301 	0.995366 	2.44393 	2.21643e-19
21.4611 	0.182257 	0.700518 	1.91057 	-3.21199e-19
21.5313 	0.182257 	0.700518 	1.91057 	-3.21199e-19
21.6014 	0.182257 	0.700518 	1.91057 	-3.21199e-19
21.6715 	0.0772836 	0.614207 	1.4125 	-4.05144e-21
21.7417 	0.0772836 	0.614207 	1.4125 	-4.05144e-21
21.8118 	0.0772836 	0.614207 	1.4125 	-4.05144e-21
21.8819 	0.0772836 	0.614207 	1.4125 	-4.05144e-21
21.9521 	0.0772836 	0.614207 	1.4125 	-4.05144e-21
22.0222 	-0.0546498 	0.933872 	2.34678 	4.06384e-20
22.0923 	-0.0546498 	0.933872 	2.34678 	4.06384e-20
22.1625 	-0.0546498 	0.933872 	2.34678 	4.06384e-20
22.2326 	-0.0546498 	0.933872 	2.34678 	4.06384e-20
22.3027 	-0.0546498 	0.933872 	2.34678 	4.06384e-20
22.3729 	-0.0546498 	0.933872 	2.34678 	4.06384e-20
22.443 	-0.0546498 	0.933872 	2.34678 	4.06384e-20
22.5131 	-0.0546498 	0.933872 	2.34678 	4.06384e-20
22.5833 	-0.0546498 	0.933872 	2.34678 	4.06384e-20
22.6534 	-0.0546498 	0.933872 	2.34678 	4.06384e-20
22.7235 	-0.0546498 	0.933872 	2.34678 	4.06384e-20
22.7937 	-0.0546498 	0.933872 	2.34678 	4.06384e-20
22.8638 	-0.0546498 	0.933872 	2.34678 	4.06384e-20
22.9339 	-0.0546498 	0.933872 	2.34678 	4.06384e-20
23.0041 	-0.0546498 	0.933872 	2.34678 	4.06384e-20
23.0742 	-0.0546498 	0.933872 	2.34678 	4.06384e-20
23.1443 	-0.0546498 	0.933872 	2.34678 	4.06384e-20
23.2145 	-0.0546498 	0.933872 	2.34678 	4.06384e-20
23.2846 	-0.0546498 	0.933872 	2.34678 	4.06384e-20
23.3548 	-0.0546498 	0.933872 	2.34678 	4.06384e-20
23.4249 	-0.0546498 	0.933872 	2.34678 	4.06384e-20
23.495 	0.132641 	0.901325 	2.32609 	-6.47412e-20
23.5652 	0.132641 	0.901325 	2.32609 	-6.47412e-20
23.6353 	0.132641 	0.901325 	2.32609 	-6.47412e-20
23.7054 	0.132641 	0.901325 	2.32609 	-6.47412e-20
23.7756 	0.132641 	0.901325 	2.32609 	-6.47412e-20
23.8457 	0.132641 	0.901325 	2.32609 	-6.47412e-20
23.9158 	0.132641 	0.901325 	2.32609 	-6.47412e-20
23.986 	0.259494 	0.842029 	2.18899 	2.92585e-21
24.0561 	0.259494 	0.842029 	2.18899 	2.92585e-21
24.1262 	0.259494 	0.842029 	2.18899 	2.92585e-21
24.1964 	0.259494 	0.842029 	2.18899 	2.92585e-21
24.2665 	0.259494 	0.842029 	2.18899 	2.92585e-21
24.3366 	0.259494 	0.842029 	2.18899 	2.92585e-21
24.4068 	0.259494 	0.842029 	2.18899 	2.92585e-21
24.4769 	0.259494 	0.842029 	2.18899 	2.92585e-21
24.547 	0.259494 	0.842029 	2.18899 	2.92585e-21
24.6172 	0.259494 	0.842029 	2.18899 	2.92585e-21
24.6873 	0.259494 	0.842029 	2.18899 	2.92585e-21
24.7574 	0.259494 	0.842029 	2.18899 	2.92585e-21
24.8276 	0.259494 	0.842029 	2.18899 	2.92585e-21
24.8977 	0.259494 	0.842029 	2.18899 	2.92585e-21
24.9678 	0.259494 	0.842029 	2.18899 	2.92585e-21
25.038 	0.259494 	0.842029 	2.18899 	2.92585e-21
25.1081 	0.259494 	0.842029 	2.18899 	2.92585e-21
25.1782 	0.205589 	0.504578 	1.36523 	0
25.2484 	0.205589 	0.504578 	1.36523 	0
25.3185 	0.205589 	0.504578 	1.36523 	0
25.3886 	0.205589 	0.504578 	1.36523 	0
25.4588 	0.205589 	0.504578 	1.36523 	0
25.5289 	0.205589 	0.504578 	1.36523 	0
25.5991 	0.205589 	0.504578 	1.36523 	0
25.6692 	0.205589 	0.504578 	1.36523 	0
25.7393 	0.205589 	0.504578 	1.36523 	0
25.8095 	0.205589 	0.504578 	1.36523 	0
25.8796 	0.205589 	0.504578 	1.36523 	0
25.9497 	0.205589 	0.504578 	1.36523 	0
26.0199 	0.205589 	0.504578 	1.36523 	0
26.09 	0.205589 	0.504578 	1.36523 	0
26.1601 	0.205589 	0.504578 	1.36523 	0
26.2303 	0.108963 	0.500636 	1.37741 	-1.56465e-19
26.3004 	0.108963 	0.500636 	1.37741 	-1.56465e-19
26.3705 	0.108963 	0.500636 	1.37741 	-1.56465e-19
26.4407 	0.108963 	0.500636 	1.37741 	-1.56465e-19
26.5108 	0.108963 	0.500636 	1.37741 	-1.56465e-19
26.5809 	0.108963 	0.500636 	1.37741 	-1.56465e-19
26.6511 	0.108963 	0.500636 	1.37741 	-1.56465e-19
26.7212 	0.108963 	0.500636 	1.37741 	-1.56465e-19
26.7913 	0.108963 	0.500636 	1.37741 	-1.56465e-19
26.8615 	0.108963 	0.500636 	1.37741 	-1.56465e-19
26.9316 	0.108963 	0.500636 	1.37741 	-1.56465e-19
27.0017 	0.108963 	0.500636 	1.37741 	-1.56465e-19
27.0719 	0.108963 	0.500636 	1.37741 	-1.56465e-19
27.142 	0.108963 	0.500636 	1.37741 	-1.56465e-19
27.2121 	0.108963 	0.500636 	1.37741 	-1.56465e-19
27.2823 	0.108963 	0.500636 	1.37741 	-1.56465e-19
27.3524 	0.0511247 	0.494461 	1.38362 	1.73378e-19
27.4225 	0.0511247 	0.494461 	1.38362 	1.73378e-19
27.4927 	0.0511247 	0.494461 	1.38362 	1.73378e-19
27.5628 	0.0511247 	0.494461 	1.38362 	1.73378e-19
27.6329 	0.0511247 	0.494461 	1.38362 	1.73378e-19
27.7031 	0.0511247 	0.494461 	1.38362 	1.73378e-19
27.7732 	0.0511247 	0.494461 	1.38362 	1.73378e-19
27.8434 	0.0511247 	0.494461 	1.38362 	1.73378e-19
27.9135 	0.0511247 	0.494461 	1.38362 	1.73378e-19
27.9836 	0.0511247 	0.494461 	1.38362 	1.73378e-19
28.0538 	0.0511247 	0.494461 	1.38362 	1.73378e-19
28.1239 	0.0511247 	0.494461 	1.38362 	1.73378e-19
28.194 	0.0511247 	0.494461 	1.38362 	1.73378e-19
28.2642 	0.0511247 	0.494461 	1.38362 	1.73378e-19
28.3343 	0.0511247 	0.494461 	1.38362 	1.73378e-19
28.4044 	0.0511247 	0.494461 	1.38362 	1.73378e-19
28.4746 	0.0511247 	0.494461 	1.38362 	1.73378e-19
28.5447 	0.0511247 	0.494461 	1.38362 	1.73378e-19
28.6148 	0.0511247 	0.494461 	1.38362 	1.73378e-19
28.685 	0.0511247 	0.494461 	1.38362 	1.73378e-19
28.7551 	0.0511247 	0.494461 	1.38362 	1.73378e-19
28.8252 	0.0511247 	0.494461 	1.38362 	1.73378e-19
28.8954 	0.0511247 	0.494461 	1.38362 	1.73378e-19
28.9655 	0.00446825 	0.437193 	1.2953 	2.32083e-21
29.0356 	0.00446825 	0.437193 	1.2953 	2.32083e-21
29.1058 	0.00446825 	0.437193 	1.2953 	2.32083e-21
29.1759 	0.00446825 	0.437193 	1.2953 	2.32083e-21
29.246 	0.00446825 	0.437193 	1.2953 	2.32083e-21
29.3162 	0.00446825 	0.437193 	1.2953 	2.32083e-21
29.3863 	0.00446825 	0.437193 	1.2953 	2.32083e-21
29.4564 	0.00446825 	0.437193 	1.2953 	2.32083e-21
29.5266 	0.00446825 	0.437193 	1.2953 	2.32083e-21
29.5967 	0.00446825 	0.437193 	1.2953 	2.32083e-21
29.6668 	0.00446825 	0.437193 	1.2953 	2.32083e-21
29.737 	0.00446825 	0.437193 	1.2953 	2.32083e-21
29.8071 	0.00446825 	0.437193 	1.2953 	2.32083e-21
29.8773 	0.00446825 	0.437193 	1.2953 	2.32083e-21
29.9474 	0.00446825 	0.437193 	1.2953 	2.32083e-21
30.0175 	0.00446825 	0.437193 	1.2953 	2.32083e-21
30.0877 	0.00446825 	0.437193 	1.2953 	2.32083e-21
30.1578 	0.00446825 	0.437193 	1.2953 	2.32083e-21
30.2279 	0.00446825 	0.437193 	1.2953 	2.32083e-21
30.2981 	0.00446825 	0.437193 	1.2953 	2.32083e-21
30.3682 	0.00446825 	0.437193 	1.2953 	2.32083e-21
30.4383 	0.00446825 	0.437193 	1.2953 	2.32083e-21
30.5085 	0.00446825 	0.437193 	1.2953 	2.32083e-21
30.5786 	0.00446825 	0.437193 	1.2953 	2.32083e-21
30.6487 	0.00446825 	0.437193 	1.2953 	2.32083e-21
30.7189 	0.00446825 	0.437193 	1.2953 	2.32083e-21
30.789 	-0.00655065 	0.363188 	1.28468 	5.2347e-20
30.8591 	-0.00655065 	0.363188 	1.28468 	5.2347e-20
30.9293 	-0.00655065 	0.363188 	1.28468 	5.2347e-20
30.9994 	-0.00655065 	0.363188 	1.28468 	5.2347e-20
31.0695 	-0.00655065 	0.363188 	1.28468 	5.2347e-20
31.1397 	-0.00655065 	0.363188 	1.28468 	5.2347e-20
31.2098 	-0.00655065 	0.363188 	1.28468 	5.2347e-20
31.2799 	-0.00655065 	0.363188 	1.28468 	5.2347e-20
31.3501 	-0.00655065 	0.363188 	1.28468 	5.2347e-20
31.4202 	-0.00655065 	0.363188 	1.28468 	5.2347e-20
31.4903 	-0.00655065 	0.363188 	1.28468 	5.2347e-20
31.5605 	-0.00655065 	0.363188 	1.28468 	5.2347e-20
31.6306 	-0.00655065 	0.363188 	1.28468 	5.2347e-20
31.7007 	-0.00655065 	0.363188 	1.28468 	5.2347e-20
31.7709 	-0.00655065 	0.363188 	1.28468 	5.2347e-20
31.841 	-0.00655065 	0.363188 	1.28468 	5.2347e-20
31.9111 	-0.00655065 	0.363188 	1.28468 	5.2347e-20
31.9813 	-0.00655065 	0.363188 	1.28468 	5.2347e-20
32.0514 	-0.00655065 	0.363188 	1.28468 	5.2347e-20
32.1216 	-0.00655065 	0.363188 	1.28468 	5.2347e-20
32.1917 	-0.00655065 	0.363188 	1.28468 	5.2347e-20
32.2618 	-0.00655065 	0.363188 	1.28468 	5.2347e-20
32.332 	-0.00655065 	0.363188 	1.28468 	5.2347e-20
32.4021 	-0.00655065 	0.363188 	1.28468 	5.2347e-20
32.4722 	-0.00655065 	0.363188 	1.28468 	5.2347e-20
32.5424 	-0.00655065 	0.363188 	1.28468 	5.2347e-20
32.6125 	-0.00655065 	0.363188 	1.28468 	5.2347e-20
32.6826 	-0.00655065 	0.363188 	1.28468 	5.2347e-20
32.7528 	-0.00655065 	0.363188 	1.28468 	5.2347e-20
32.8229 	-0.00655065 	0.363188 	1.28468 	5.2347e-20
32.893 	-0.00655065 	0.363188 	1.28468 	5.2347e-20
32.9632 	-0.00655065 	0.363188 	1.28468 	5.2347e-20
33.0333 	-0.00655065 	0.363188 	1.28468 	5.2347e-20
33.1034 	-0.00655065 	0.363188 	1.28468 	5.2347e-20
33.1736 	-0.00655065 	0.363188 	1.28468 	5.2347e-20
33.2437 	-0.00655065 	0.363188 	1.28468 	5.2347e-20
33.3138 	-0.00655065 	0.363188 	1.28468 	5.2347e-20
33.384 	-0.00655065 	0.363188 	1.28468 	5.2347e-20
33.4541 	-0.00655065 	0.363188 	1.28468 	5.2347e-20
33.5242 	-0.00655065 	0.363188 	1.28468 	5.2347e-20
33.5944 	-0.00655065 	0.363188 	1.28468 	5.2347e-20
33.6645 	-0.00655065 	0.363188 	1.28468 	5.2347e-20
33.7346 	-0.0430391 	0.362412 	1.35742 	-3.94141e-20
33.8048 	-0.0430391 	0.362412 	1.35742 	-3.94141e-20
33.8749 	-0.0430391 	0.362412 	1.35742 	-3.94141e-20
33.945 	-0.0430391 	0.362412 	1.35742 	-3.94141e-20
34.0152 	-0.0430391 	0.362412 	1.35742 	-3.94141e-20
34.0853 	-0.0430391 	0.362412 	1.35742 	-3.94141e-20
34.1554 	-0.0483026 	0.269735 	1.30745 	-3.16688e-20
34.2256 	-0.0483026 	0.269735 	1.30745 	-3.16688e-20
34.2957 	-0.0483026 	0.269735 	1.30745 	-3.16688e-20
34.3659 	-0.0483026 	0.269735 	1.30745 	-3.16688e-20
34.436 	-0.0483026 	0.269735 	1.30745 	-3.16688e-20
34.5061 	-0.0483026 	0.269735 	1.30745 	-3.16688e-20
34.5763 	-0.0483026 	0.269735 	1.30745 	-3.16688e-20
34.6464 	-0.0483026 	0.269735 	1.30745 	-3.16688e-20
34.7165 	0.157119 	0.261217 	1.61528 	5.85879e-20
34.7867 	0.157119 	0.261217 	1.61528 	5.85879e-20
34.8568 	0.157119 	0.261217 	1.61528 	5.85879e-20
34.9269 	0.157119 	0.261217 	1.61528 	5.85879e-20
34.9971 	0.157119 	0.261217 	1.61528 	5.85879e-20
35.0672 	0.157119 	0.261217 	1.61528 	5.85879e-20
35.1373 	0.157119 	0.261217 	1.61528 	5.85879e-20
35.2075 	0.157119 	0.261217 	1.61528 	5.85879e-20
35.2776 	0.157119 	0.261217 	1.61528 	5.85879e-20
35.3477 	0.157119 	0.261217 	1.61528 	5.85879e-20
35.4179 	0.157119 	0.261217 	1.61528 	5.85879e-20
35.488 	0.157119 	0.261217 	1.61528 	5.85879e-20
35.5581 	0.157119 	0.261217 	1.61528 	5.85879e-20
35.6283 	0.157119 	0.261217 	1.61528 	5.85879e-20
35.6984 	0.157119 	0.261217 	1.61528 	5.85879e-20
35.7685 	0.157119 	0.261217 	1.61528 	5.85879e-20
35.8387 	0.157119 	0.261217 	1.61528 	5.85879e-20
35.9088 	0.157119 	0.261217 	1.61528 	5.85879e-20
35.9789 	0.157119 	0.261217 	1.61528 	5.85879e-20
36.0491 	0.131659 	0.238547 	1.57344 	0
36.1192 	0.131659 	0.238547 	1.57344 	0
36.1893 	0.131659 	0.238547 	1.57344 	0
36.2595 	0.131659 	0.238547 	1.57344 	0
36.3296 	0.131659 	0.238547 	1.57344 	0
36.3997 	0.131659 	0.238547 	1.57344 	0
36.4699 	0.131659 	0.238547 	1.57344 	0
36.54 	0.131659 	0.238547 	1.57344 	0
36.6102 	0.131659 	0.238547 	1.57344 	0
36.6803 	0.131659 	0.238547 	1.57344 	0
36.7504 	0.131659 	0.238547 	1.57344 	0
36.8206 	0.131659 	0.238547 	1.57344 	0
36.8907 	0.00596235 	0.184644 	1.43925 	1.84826e-20
36.9608 	0.00596235 	0.184644 	1.43925 	1.84826e-20
37.031 	0.00596235 	0.184644 	1.43925 	1.84826e-20
37.1011 	0.00596235 	0.184644 	1.43925 	1.84826e-20
37.1712 	0.00596235 	0.184644 	1.43925 	1.84826e-20
37.2414 	0.00596235 	0.184644 	1.43925 	1.84826e-20
37.3115 	0.00596235 	0.184644 	1.43925 	1.84826e-20
37.3816 	0.00596235 	0.184644 	1.43925 	1.84826e-20
37.4518 	0.00596235 	0.184644 	1.43925 	1.84826e-20
37.5219 	0.00596235 	0.184644 	1.43925 	1.84826e-20
37.592 	0.00596235 	0.184644 	1.43925 	1.84826e-20
37.6622 	0.00596235 	0.184644 	1.43925 	1.84826e-20
37.7323 	0.00596235 	0.184644 	1.43925 	1.84826e-20
37.8024 	0.00596235 	0.184644 	1.43925 	1.84826e-20
37.8726 	0.00596235 	0.184644 	1.43925 	1.84826e-20
37.9427 	0.00596235 	0.184644 	1.43925 	1.84826e-20
38.0128 	0.00596235 	0.184644 	1.43925 	1.84826e-20
38.083 	0.00596235 	0.184644 	1.43925 	1.84826e-20
38.1531 	0.00596235 	0.184644 	1.43925 	1.84826e-20
38.2232 	0.0309231 	0.129304 	1.5895 	-2.11904e-20
38.2934 	0.0309231 	0.129304 	1.5895 	-2.11904e-20
38.3635 	0.0309231 	0.129304 	1.5895 	-2.11904e-20
38.4336 	0.0309231 	0.129304 	1.5895 	-2.11904e-20
38.5038 	0.0309231 	0.129304 	1.5895 	-2.11904e-20
38.5739 	0.0309231 	0.129304 	1.5895 	-2.11904e-20
38.644 	0.0309231 	0.129304 	1.5895 	-2.11904e-20
38.7142 	0.0309231 	0.129304 	1.5895 	-2.11904e-20
38.7843 	0.0309231 	0.129304 	1.5895 	-2.11904e-20
38.8545 	0.0309231 	0.129304 	1.5895 	-2.11904e-20
38.9246 	0.0309231 	0.129304 	1.5895 	-2.11904e-20
38.9947 	0.0309231 	0.129304 	1.5895 	-2.11904e-20
39.0649 	0.0309231 	0.129304 	1.5895 	-2.11904e-20
39.135 	0.0309231 	0.129304 	1.5895 	-2.11904e-20
39.2051 	-0.00206489 	0.108543 	1.55839 	0
39.2753 	-0.00206489 	0.108543 	1.55839 	0
39.3454 	-0.00206489 	0.108543 	1.55839 	0
39.4155 	-0.00206489 	0.108543 	1.55839 	0
39.4857 	-0.00206489 	0.108543 	1.55839 	0
39.5558 	-0.00206489 	0.108543 	1.55839 	0
39.6259 	-0.00206489 	0.108543 	1.55839 	0
39.6961 	-0.00206489 	0.108543 	1.55839 	0
39.7662 	-0.00206489 	0.108543 	1.55839 	0
39.8363 	-0.00206489 	0.108543 	1.55839 	0
39.9065 	-0.00206489 	0.108543 	1.55839 	0
39.9766 	-0.00206489 	0.108543 	1.55839 	0
40.0467 	-0.00206489 	0.108543 	1.55839 	0
40.1169 	-0.00206489 	0.108543 	1.55839 	0
40.187 	-0.00206489 	0.108543 	1.55839 	0
40.2571 	-0.00206489 	0.108543 	1.55839 	0
40.3273 	-0.00206489 	0.108543 	1.55839 	0
40.3974 	-0.00206489 	0.108543 	1.55839 	0
40.4675 	-0.00206489 	0.108543 	1.55839 	0
40.5377 	-0.00206489 	0.108543 	1.55839 	0
40.6078 	-0.00206489 	0.108543 	1.55839 	0
40.6779 	-0.0147523 	0.107418 	1.49227 	9.3121e-21
40.7481 	-0.0147523 	0.107418 	1.49227 	9.3121e-21
40.8182 	-0.0147523 	0.107418 	1.49227 	9.3121e-21
40.8883 	-0.0147523 	0.107418 	1.49227 	9.3121e-21
40.9585 	-0.0147523 	0.107418 	1.49227 	9.3121e-21
41.0286 	-0.0147523 	0.107418 	1.49227 	9.3121e-21
41.0988 	-0.0147523 	0.107418 	1.49227 	9.3121e-21
41.1689 	-0.0147523 	0.107418 	1.49227 	9.3121e-21
41.239 	-0.0167136 	0.0777857 	1.51547 	-1.74703e-20
41.3092 	-0.0167136 	0.0777857 	1.51547 	-1.74703e-20
41.3793 	-0.0167136 	0.0777857 	1.51547 	-1.74703e-20
41.4494 	-0.0167136 	0.0777857 	1.51547 	-1.74703e-20
41.5196 	-0.0167136 	0.0777857 	1.51547 	-1.74703e-20
41.5897 	-0.0167136 	0.0777857 	1.51547 	-1.74703e-20
41.6598 	-0.0167136 	0.0777857 	1.51547 	-1.74703e-20
41.73 	-0.0167136 	0.0777857 	1.51547 	-1.74703e-20
41.8001 	-0.0167136 	0.0777857 	1.51547 	-1.74703e-20
41.8702 	-0.0167136 	0.0777857 	1.51547 	-1.74703e-20
41.9404 	-0.0167136 	0.0777857 	1.51547 	-1.74703e-20
42.0105 	-0.0167136 	0.0777857 	1.51547 	-1.74703e-20
42.0806 	-0.0167136 	0.0777857 	1.51547 	-1.74703e-20
42.1508 	-0.0167136 	0.0777857 	1.51547 	-1.74703e-20
42.2209 	-0.0167136 	0.0777857 	1.51547 	-1.74703e-20
42.291 	-0.0167136 	0.0777857 	1.51547 	-1.74703e-20
42.3612 	-0.0167136 	0.0777857 	1.51547 	-1.74703e-20
42.4313 	-0.0167136 	0.0777857 	1.51547 	-1.74703e-20
42.5014 	-0.0167136 	0.0777857 	1.51547 	-1.74703e-20
42.5716 	-0.0167136 	0.0777857 	1.51547 	-1.74703e-20
42.6417 	-0.0167136 	0.0777857 	1.51547 	-1.74703e-20
42.7118 	-0.0259174 	0.0841652 	1.50133 	0
42.782 	-0.0259174 	0.0841652 	1.50133 	0
42.8521 	-0.0259174 	0.0841652 	1.50133 	0
42.9222 	-0.0259174 	0.0841652 	1.50133 	0
42.9924 	-0.00381711 	0.0398743 	1.56874 	0
43.0625 	-0.00381711 	0.0398743 	1.56874 	0
43.1327 	-0.00381711 	0.0398743 	1.56874 	0
43.2028 	-0.00381711 	0.0398743 	1.56874 	0
43.2729 	-0.00381711 	0.0398743 	1.56874 	0