0.490941 	1.69792 	0.00528495 	3.00068 	-5.24874e-20
0.561075 	1.69792 	0.00528495 	3.00068 	-5.24874e-20
0.63121 	1.69792 	0.00528495 	3.00068 	-5.24874e-20
0.701344 	1.69792 	0.00528495 	3.00068 	-5.24874e-20
0.771478 	1.69792 	0.00528495 	3.00068 	-5.24874e-20
0.841613 	1.69792 	0.00528495 	3.00068 	-5.24874e-20
0.911747 	1.69792 	0.00528495 	3.00068 	-5.24874e-20
0.981881 	1.69792 	0.00528495 	3.00068 	-5.24874e-20
1.05202 	1.69792 	0.00528495 	3.00068 	-5.24874e-20
1.12215 	1.69792 	0.00528495 	3.00068 	-5.24874e-20
1.19228 	1.69792 	0.00528495 	3.00068 	-5.24874e-20
1.26242 	1.69792 	0.00528495 	3.00068 	-5.24874e-20
1.33255 	1.65843 	0.0146717 	3.01407 	-5.36789e-20
1.40269 	1.65843 	0.0146717 	3.01407 	-5.36789e-20
1.47282 	1.65843 	0.0146717 	3.01407 	-5.36789e-20
1.54296 	1.65843 	0.0146717 	3.01407 	-5.36789e-20
1.61309 	1.65843 	0.0146717 	3.01407 	-5.36789e-20
1.68323 	1.65843 	0.0146717 	3.01407 	-5.36789e-20
1.75336 	1.65843 	0.0146717 	3.01407 	-5.36789e-20
1.82349 	1.65843 	0.0146717 	3.01407 	-5.36789e-20
1.89363 	1.65843 	0.0146717 	3.01407 	-5.36789e-20
1.96376 	1.65843 	0.0146717 	3.01407 	-5.36789e-20
2.0339 	1.65843 	0.0146717 	3.01407 	-5.36789e-20
2.10403 	1.65843 	0.0146717 	3.01407 	-5.36789e-20
2.17417 	1.59774 	0.0136386 	3.03228 	1.11817e-19
2.2443 	1.59774 	0.0136386 	3.03228 	1.11817e-19
2.31443 	1.59774 	0.0136386 	3.03228 	1.11817e-19
2.38457 	1.59774 	0.0136386 	3.03228 	1.11817e-19
2.4547 	1.59774 	0.0136386 	3.03228 	1.11817e-19
2.52484 	1.59774 	0.0136386 	3.03228 	1.11817e-19
2.59497 	1.59774 	0.0136386 	3.03228 	1.11817e-19
2.66511 	1.59774 	0.0136386 	3.03228 	1.11817e-19
2.73524 	1.59774 	0.0136386 	3.03228 	1.11817e-19
2.80538 	1.59774 	0.0136386 	3.03228 	1.11817e-19
2.87551 	1.59774 	0.0136386 	3.03228 	1.11817e-19
2.94564 	1.59774 	0.0136386 	3.03228 	1.11817e-19
3.01578 	1.52381 	0.0169968 	3.05846 	-1.29751e-20
3.08591 	1.52381 	0.0169968 	3.05846 	-1.29751e-20
3.15605 	1.52381 	0.0169968 	3.05846 	-1.29751e-20
3.22618 	1.52381 	0.0169968 	3.05846 	-1.29751e-20
3.29632 	1.52381 	0.0169968 	3.05846 	-1.29751e-20
3.36645 	1.52381 	0.0169968 	3.05846 	-1.29751e-20
3.43659 	1.52381 	0.0169968 	3.05846 	-1.29751e-20
3.50672 	1.52381 	0.0169968 	3.05846 	-1.29751e-20
3.57685 	1.52381 	0.0169968 	3.05846 	-1.29751e-20
3.64699 	1.52381 	0.0169968 	3.05846 	-1.29751e-20
3.71712 	1.52381 	0.0169968 	3.05846 	-1.29751e-20
3.78726 	1.51664 	0.0070523 	3.05577 	2.54201e-20
3.85739 	1.43764 	-0.000726271 	3.08386 	-1.86997e-19
3.92753 	1.43764 	-0.000726271 	3.08386 	-1.86997e-19
3.99766 	1.43764 	-0.000726271 	3.08386 	-1.86997e-19
4.06779 	1.43764 	-0.000726271 	3.08386 	-1.86997e-19
4.13793 	1.43764 	-0.000726271 	3.08386 	-1.86997e-19
4.20806 	1.43764 	-0.000726271 	3.08386 	-1.86997e-19
4.2782 	1.43764 	-0.000726271 	3.08386 	-1.86997e-19
4.34833 	1.43764 	-0.000726271 	3.08386 	-1.86997e-19
4.41847 	1.43764 	-0.000726271 	3.08386 	-1.86997e-19
4.4886 	1.43764 	-0.000726271 	3.08386 	-1.86997e-19
4.55874 	1.43764 	-0.000726271 	3.08386 	-1.86997e-19
4.62887 	1.43764 	-0.000726271 	3.08386 	-1.86997e-19
4.699 	1.43764 	-0.000726271 	3.08386 	-1.86997e-19
4.76914 	1.35893 	0.00547941 	3.10692 	3.63637e-19
4.83927 	1.35893 	0.00547941 	3.10692 	3.63637e-19
4.90941 	1.35893 	0.00547941 	3.10692 	3.63637e-19
4.97954 	1.35893 	0.00547941 	3.10692 	3.63637e-19
5.04968 	1.35893 	0.00547941 	3.10692 	3.63637e-19
5.11981 	1.35893 	0.00547941 	3.10692 	3.63637e-19
5.18994 	1.35893 	0.00547941 	3.10692 	3.63637e-19
5.26008 	1.35893 	0.00547941 	3.10692 	3.63637e-19
5.33021 	1.35893 	0.00547941 	3.10692 	3.63637e-19
5.40035 	1.35893 	0.00547941 	3.10692 	3.63637e-19
5.47048 	1.35893 	0.00547941 	3.10692 	3.63637e-19
5.54062 	1.35893 	0.00547941 	3.10692 	3.63637e-19
5.61075 	1.28429 	-0.0020432 	3.13325 	-1.76414e-19
5.68089 	1.28429 	-0.0020432 	3.13325 	-1.76414e-19
5.75102 	1.28429 	-0.0020432 	3.13325 	-1.76414e-19
5.82115 	1.28429 	-0.0020432 	3.13325 	-1.76414e-19
5.89129 	1.28429 	-0.0020432 	3.13325 	-1.76414e-19
5.96142 	1.28429 	-0.0020432 	3.13325 	-1.76414e-19
6.03156 	1.28429 	-0.0020432 	3.13325 	-1.76414e-19
6.10169 	1.28429 	-0.0020432 	3.13325 	-1.76414e-19
6.17183 	1.28429 	-0.0020432 	3.13325 	-1.76414e-19
6.24196 	1.28429 	-0.0020432 	3.13325 	-1.76414e-19
6.3121 	1.28429 	-0.0020432 	3.13325 	-1.76414e-19
6.38223 	1.28429 	-0.0020432 	3.13325 	-1.76414e-19
6.45236 	1.21305 	0.00512516 	3.15361 	0
6.5225 	1.21305 	0.00512516 	3.15361 	0
6.59263 	1.21305 	0.00512516 	3.15361 	0
6.66277 	1.21305 	0.00512516 	3.15361 	0
6.7329 	1.21305 	0.00512516 	3.15361 	0
6.80304 	1.21305 	0.00512516 	3.15361 	0
6.87317 	1.21305 	0.00512516 	3.15361 	0
6.9433 	1.21305 	0.00512516 	3.15361 	0
7.01344 	1.21305 	0.00512516 	3.15361 	0
7.08357 	1.21305 	0.00512516 	3.15361 	0
7.15371 	1.21305 	0.00512516 	3.15361 	0
7.22384 	1.21305 	0.00512516 	3.15361 	0
7.29398 	1.14502 	-0.00137879 	3.17752 	0
7.36411 	1.14502 	-0.00137879 	3.17752 	0
7.43425 	1.14502 	-0.00137879 	3.17752 	0
7.50438 	1.14502 	-0.00137879 	3.17752 	0
7.57451 	1.14502 	-0.00137879 	3.17752 	0
7.64465 	1.14502 	-0.00137879 	3.17752 	0
7.71478 	1.14502 	-0.00137879 	3.17752 	0
7.78492 	1.14502 	-0.00137879 	3.17752 	0
7.85505 	1.14502 	-0.00137879 	3.17752 	0
7.92519 	1.14502 	-0.00137879 	3.17752 	0
7.99532 	1.14502 	-0.00137879 	3.17752 	0
8.06545 	1.14502 	-0.00137879 	3.17752 	0
8.13559 	1.14502 	-0.00137879 	3.17752 	0
8.20572 	1.07783 	0.00711594 	3.19633 	3.60943e-22
8.27586 	1.07783 	0.00711594 	3.19633 	3.60943e-22
8.34599 	1.07783 	0.00711594 	3.19633 	3.60943e-22
8.41613 	1.07783 	0.00711594 	3.19633 	3.60943e-22
8.48626 	1.07783 	0.00711594 	3.19633 	3.60943e-22
8.5564 	1.07783 	0.00711594 	3.19633 	3.60943e-22
8.62653 	1.07783 	0.00711594 	3.19633 	3.60943e-22
8.69666 	1.07783 	0.00711594 	3.19633 	3.60943e-22
8.7668 	1.07783 	0.00711594 	3.19633 	3.60943e-22
8.83693 	1.07783 	0.00711594 	3.19633 	3.60943e-22
8.90707 	1.07783 	0.00711594 	3.19633 	3.60943e-22
8.9772 	1.07783 	0.00711594 	3.19633 	3.60943e-22
9.04734 	1.01134 	0.00279649 	3.21944 	2.61021e-19
9.11747 	1.01134 	0.00279649 	3.21944 	2.61021e-19
9.18761 	1.01134 	0.00279649 	3.21944 	2.61021e-19
9.25774 	1.01134 	0.00279649 	3.21944 	2.61021e-19
9.32787 	1.01134 	0.00279649 	3.21944 	2.61021e-19
9.39801 	1.01134 	0.00279649 	3.21944 	2.61021e-19
9.46814 	1.01134 	0.00279649 	3.21944 	2.61021e-19
9.53828 	1.01134 	0.00279649 	3.21944 	2.61021e-19
9.60841 	1.01134 	0.00279649 	3.21944 	2.61021e-19
9.67855 	1.01134 	0.00279649 	3.21944 	2.61021e-19
9.74868 	1.01134 	0.00279649 	3.21944 	2.61021e-19
9.81881 	1.01134 	0.00279649 	3.21944 	2.61021e-19
9.88895 	1.01134 	0.00279649 	3.21944 	2.61021e-19
9.95908 	0.944075 	0.0155678 	3.23811 	-2.58287e-21
10.0292 	0.944075 	0.0155678 	3.23811 	-2.58287e-21
10.0994 	0.944075 	0.0155678 	3.23811 	-2.58287e-21
10.1695 	0.944075 	0.0155678 	3.23811 	-2.58287e-21
10.2396 	0.944075 	0.0155678 	3.23811 	-2.58287e-21
10.3098 	0.944075 	0.0155678 	3.23811 	-2.58287e-21
10.3799 	0.944075 	0.0155678 	3.23811 	-2.58287e-21
10.45 	0.944075 	0.0155678 	3.23811 	-2.58287e-21
10.5202 	0.944075 	0.0155678 	3.23811 	-2.58287e-21
10.5903 	0.944075 	0.0155678 	3.23811 	-2.58287e-21
10.6604 	0.944075 	0.0155678 	3.23811 	-2.58287e-21
10.7306 	0.944075 	0.0155678 	3.23811 	-2.58287e-21
10.8007 	0.876454 	0.0201739 	3.26111 	-2.56336e-19
10.8708 	0.876454 	0.0201739 	3.26111 	-2.56336e-19
10.941 	0.876454 	0.0201739 	3.26111 	-2.56336e-19
11.0111 	0.876454 	0.0201739 	3.26111 	-2.56336e-19
11.0812 	0.876454 	0.0201739 	3.26111 	-2.56336e-19
11.1514 	0.876454 	0.0201739 	3.26111 	-2.56336e-19
11.2215 	0.876454 	0.0201739 	3.26111 	-2.56336e-19
11.2916 	0.876454 	0.0201739 	3.26111 	-2.56336e-19
11.3618 	0.876454 	0.0201739 	3.26111 	-2.56336e-19
11.4319 	0.876454 	0.0201739 	3.26111 	-2.56336e-19
11.502 	0.876454 	0.0201739 	3.26111 	-2.56336e-19
11.5722 	0.876454 	0.0201739 	3.26111 	-2.56336e-19
11.6423 	0.876454 	0.0201739 	3.26111 	-2.56336e-19
11.7124 	0.804764 	0.0488089 	3.28147 	-3.94447e-19
11.7826 	0.804764 	0.0488089 	3.28147 	-3.94447e-19
11.8527 	0.804764 	0.0488089 	3.28147 	-3.94447e-19
11.9228 	0.804764 	0.0488089 	3.28147 	-3.94447e-19
11.993 	0.804764 	0.0488089 	3.28147 	-3.94447e-19
12.0631 	0.804764 	0.0488089 	3.28147 	-3.94447e-19
12.1332 	0.804764 	0.0488089 	3.28147 	-3.94447e-19
12.2034 	0.804764 	0.0488089 	3.28147 	-3.94447e-19
12.2735 	0.804764 	0.0488089 	3.28147 	-3.94447e-19
12.3437 	0.804764 	0.0488089 	3.28147 	-3.94447e-19
12.4138 	0.804764 	0.0488089 	3.28147 	-3.94447e-19
12.4839 	0.804764 	0.0488089 	3.28147 	-3.94447e-19
12.5541 	0.804764 	0.0488089 	3.28147 	-3.94447e-19
12.6242 	0.725958 	0.0731377 	3.30589 	7.58405e-19
12.6943 	0.725958 	0.0731377 	3.30589 	7.58405e-19
12.7645 	0.725958 	0.0731377 	3.30589 	7.58405e-19
12.8346 	0.725958 	0.0731377 	3.30589 	7.58405e-19
12.9047 	0.725958 	0.0731377 	3.30589 	7.58405e-19
12.9749 	0.725958 	0.0731377 	3.30589 	7.58405e-19
13.045 	0.725958 	0.0731377 	3.30589 	7.58405e-19
13.1151 	0.725958 	0.0731377 	3.30589 	7.58405e-19
13.1853 	0.725958 	0.0731377 	3.30589 	7.58405e-19
13.2554 	0.725958 	0.0731377 	3.30589 	7.58405e-19
13.3255 	0.725958 	0.0731377 	3.30589 	7.58405e-19
13.3957 	0.725958 	0.0731377 	3.30589 	7.58405e-19
13.4658 	0.725958 	0.0731377 	3.30589 	7.58405e-19
13.5359 	0.628907 	0.144429 	3.33914 	-3.65959e-19
13.6061 	0.628907 	0.144429 	3.33914 	-3.65959e-19
13.6762 	0.628907 	0.144429 	3.33914 	-3.65959e-19
13.7463 	0.628907 	0.144429 	3.33914 	-3.65959e-19
13.8165 	0.628907 	0.144429 	3.33914 	-3.65959e-19
13.8866 	0.628907 	0.144429 	3.33914 	-3.65959e-19
13.9567 	0.628907 	0.144429 	3.33914 	-3.65959e-19
14.0269 	0.628907 	0.144429 	3.33914 	-3.65959e-19
14.097 	0.628907 	0.144429 	3.33914 	-3.65959e-19
14.1671 	0.628907 	0.144429 	3.33914 	-3.65959e-19
14.2373 	0.628907 	0.144429 	3.33914 	-3.65959e-19
14.3074 	0.628907 	0.144429 	3.33914 	-3.65959e-19
14.3776 	0.54021 	0.167736 	3.35506 	0
14.4477 	0.343669 	0.168151 	3.41222 	3.46234e-19
14.5178 	0.343669 	0.168151 	3.41222 	3.46234e-19
14.588 	0.343669 	0.168151 	3.41222 	3.46234e-19
14.6581 	0.343669 	0.168151 	3.41222 	3.46234e-19
14.7282 	0.343669 	0.168151 	3.41222 	3.46234e-19
14.7984 	0.343669 	0.168151 	3.41222 	3.46234e-19
14.8685 	0.374025 	0.192336 	3.40172 	-7.04175e-19
14.9386 	0.374025 	0.192336 	3.40172 	-7.04175e-19
15.0088 	0.374025 	0.192336 	3.40172 	-7.04175e-19
15.0789 	0.374025 	0.192336 	3.40172 	-7.04175e-19
15.149 	0.374025 	0.192336 	3.40172 	-7.04175e-19
15.2192 	0.139437 	0.257955 	3.46757 	3.37972e-19
15.2893 	0.139437 	0.257955 	3.46757 	3.37972e-19
15.3594 	0.139437 	0.257955 	3.46757 	3.37972e-19
15.4296 	0.27244 	0.325563 	3.42144 	5.17249e-20
15.4997 	0.27244 	0.325563 	3.42144 	5.17249e-20
15.5698 	0.27244 	0.325563 	3.42144 	5.17249e-20
15.64 	0.27244 	0.325563 	3.42144 	5.17249e-20
15.7101 	0.27244 	0.325563 	3.42144 	5.17249e-20
15.7802 	0.27244 	0.325563 	3.42144 	5.17249e-20
15.8504 	0.27244 	0.325563 	3.42144 	5.17249e-20
15.9205 	0.0210149 	0.331382 	3.52008 	9.08601e-20
15.9906 	0.0210149 	0.331382 	3.52008 	9.08601e-20
16.0608 	0.0210149 	0.331382 	3.52008 	9.08601e-20
16.1309 	0.23696 	0.417321 	3.43047 	2.09496e-19
16.201 	0.23696 	0.417321 	3.43047 	2.09496e-19
16.2712 	0.23696 	0.417321 	3.43047 	2.09496e-19
16.3413 	0.23696 	0.417321 	3.43047 	2.09496e-19
16.4114 	0.23696 	0.417321 	3.43047 	2.09496e-19
16.4816 	0.23696 	0.417321 	3.43047 	2.09496e-19
16.5517 	0.23696 	0.417321 	3.43047 	2.09496e-19
16.6219 	0.0544869 	0.516952 	3.50587 	0
16.692 	0.0544869 	0.516952 	3.50587 	0
16.7621 	0.0544869 	0.516952 	3.50587 	0
16.8323 	0.0544869 	0.516952 	3.50587 	0
16.9024 	0.0544869 	0.516952 	3.50587 	0
16.9725 	0.287952 	0.526448 	3.4106 	1.99875e-19
17.0427 	0.287952 	0.526448 	3.4106 	1.99875e-19
17.1128 	0.287952 	0.526448 	3.4106 	1.99875e-19
17.1829 	0.287952 	0.526448 	3.4106 	1.99875e-19
17.2531 	0.136552 	0.610716 	3.46104 	1.50613e-19
17.3232 	0.136552 	0.610716 	3.46104 	1.50613e-19
17.3933 	0.136552 	0.610716 	3.46104 	1.50613e-19
17.4635 	0.136552 	0.610716 	3.46104 	1.50613e-19
17.5336 	0.136552 	0.610716 	3.46104 	1.50613e-19
17.6037 	0.136552 	0.610716 	3.46104 	1.50613e-19
17.6739 	0.136552 	0.610716 	3.46104 	1.50613e-19
17.744 	0.136552 	0.610716 	3.46104 	1.50613e-19
17.8141 	0.136552 	0.610716 	3.46104 	1.50613e-19
17.8843 	0.136552 	0.610716 	3.46104 	1.50613e-19
17.9544 	0.214158 	0.626672 	3.38361 	0
18.0245 	0.214158 	0.626672 	3.38361 	0
18.0947 	0.214158 	0.626672 	3.38361 	0
18.1648 	0.214158 	0.626672 	3.38361 	0
18.2349 	0.214158 	0.626672 	3.38361 	0
18.3051 	0.214158 	0.626672 	3.38361 	0
18.3752 	0.214158 	0.626672 	3.38361 	0
18.4453 	0.214158 	0.626672 	3.38361 	0
18.5155 	0.214158 	0.626672 	3.38361 	0
18.5856 	0.120255 	0.717472 	3.42444 	0
18.6557 	0.120255 	0.717472 	3.42444 	0
18.7259 	0.120255 	0.717472 	3.42444 	0
18.796 	0.120255 	0.717472 	3.42444 	0
18.8662 	0.120255 	0.717472 	3.42444 	0
18.9363 	0.120255 	0.717472 	3.42444 	0
19.0064 	0.120255 	0.717472 	3.42444 	0
19.0766 	0.120255 	0.717472 	3.42444 	0
19.1467 	0.120255 	0.717472 	3.42444 	0
19.2168 	0.0702133 	0.764115 	3.40466 	2.62449e-20
19.287 	0.298715 	0.68921 	3.20912 	-5.89923e-20
19.3571 	0.298715 	0.68921 	3.20912 	-5.89923e-20
19.4272 	0.298715 	0.68921 	3.20912 	-5.89923e-20
19.4974 	0.298715 	0.68921 	3.20912 	-5.89923e-20
19.5675 	0.298715 	0.68921 	3.20912 	-5.89923e-20
19.6376 	0.298715 	0.68921 	3.20912 	-5.89923e-20
19.7078 	0.298715 	0.68921 	3.20912 	-5.89923e-20
19.7779 	0.298715 	0.68921 	3.20912 	-5.89923e-20
19.848 	0.298715 	0.68921 	3.20912 	-5.89923e-20
19.9182 	0.243025 	0.751466 	3.28107 	-2.20703e-19
19.9883 	0.243025 	0.751466 	3.28107 	-2.20703e-19
20.0584 	0.243025 	0.751466 	3.28107 	-2.20703e-19
20.1286 	0.243025 	0.751466 	3.28107 	-2.20703e-19
20.1987 	0.243025 	0.751466 	3.28107 	-2.20703e-19
20.2688 	0.243025 	0.751466 	3.28107 	-2.20703e-19
20.339 	0.243025 	0.751466 	3.28107 	-2.20703e-19
20.4091 	0.243025 	0.751466 	3.28107 	-2.20703e-19
20.4792 	0.243025 	0.751466 	3.28107 	-2.20703e-19
20.5494 	0.243025 	0.751466 	3.28107 	-2.20703e-19
20.6195 	0.180569 	0.802173 	3.30995 	1.28145e-20
20.6896 	0.180569 	0.802173 	3.30995 	1.28145e-20
20.7598 	0.180569 	0.802173 	3.30995 	1.28145e-20
20.8299 	0.180569 	0.802173 	3.30995 	1.28145e-20
20.9 	0.26332 	0.697615 	2.76193 	-3.03439e-19
20.9702 	0.26332 	0.697615 	2.76193 	-3.03439e-19
21.0403 	0.26332 	0.697615 	2.76193 	-3.03439e-19
21.1105 	0.26332 	0.697615 	2.76193 	-3.03439e-19
21.1806 	0.26332 	0.697615 	2.76193 	-3.03439e-19
21.2507 	0.26332 	0.697615 	2.76193 	-3.03439e-19
21.3209 	0.221216 	0.749784 	2.94516 	0
21.391 	0.221216 	0.749784 	2.94516 	0
21.4611 	0.221216 	0.749784 	2.94516 	0
21.5313 	0.221216 	0.749784 	2.94516 	0
21.6014 	0.221216 	0.749784 	2.94516 	0
21.6715 	0.221216 	0.749784 	2.94516 	0
21.7417 	0.221216 	0.749784 	2.94516 	0
21.8118 	0.221216 	0.749784 	2.94516 	0
21.8819 	0.221216 	0.749784 	2.94516 	0
21.9521 	0.221216 	0.749784 	2.94516 	0
22.0222 	0.221216 	0.749784 	2.94516 	0
22.0923 	0.177449 	0.797913 	3.06685 	-1.14194e-19
22.1625 	0.177449 	0.797913 	3.06685 	-1.14194e-19
22.2326 	0.177449 	0.797913 	3.06685 	-1.14194e-19
22.3027 	0.177449 	0.797913 	3.06685 	-1.14194e-19
22.3729 	0.177449 	0.797913 	3.06685 	-1.14194e-19
22.443 	0.177449 	0.797913 	3.06685 	-1.14194e-19
22.5131 	0.177449 	0.797913 	3.06685 	-1.14194e-19
22.5833 	0.177449 	0.797913 	3.06685 	-1.14194e-19
22.6534 	0.177449 	0.797913 	3.06685 	-1.14194e-19
22.7235 	0.177449 	0.797913 	3.06685 	-1.14194e-19
22.7937 	0.177449 	0.797913 	3.06685 	-1.14194e-19
22.8638 	0.12487 	0.8382 	3.13619 	1.81755e-19
22.9339 	0.12487 	0.8382 	3.13619 	1.81755e-19
23.0041 	0.12487 	0.8382 	3.13619 	1.81755e-19
23.0742 	0.132899 	0.684889 	2.26106 	7.22966e-20
23.1443 	0.132899 	0.684889 	2.26106 	7.22966e-20
23.2145 	0.132899 	0.684889 	2.26106 	7.22966e-20
23.2846 	0.132899 	0.684889 	2.26106 	7.22966e-20
23.3548 	0.132899 	0.684889 	2.26106 	7.22966e-20
23.4249 	0.132899 	0.684889 	2.26106 	7.22966e-20
23.495 	0.132899 	0.684889 	2.26106 	7.22966e-20
23.5652 	0.132899 	0.684889 	2.26106 	7.22966e-20
23.6353 	0.132899 	0.684889 	2.26106 	7.22966e-20
23.7054 	0.0844614 	0.726064 	2.43901 	-3.11436e-21
23.7756 	0.0844614 	0.726064 	2.43901 	-3.11436e-21
23.8457 	0.0844614 	0.726064 	2.43901 	-3.11436e-21
23.9158 	0.0844614 	0.726064 	2.43901 	-3.11436e-21
23.986 	0.0844614 	0.726064 	2.43901 	-3.11436e-21
24.0561 	0.0844614 	0.726064 	2.43901 	-3.11436e-21
24.1262 	0.0844614 	0.726064 	2.43901 	-3.11436e-21
24.1964 	0.0844614 	0.726064 	2.43901 	-3.11436e-21
24.2665 	0.0844614 	0.726064 	2.43901 	-3.11436e-21
24.3366 	0.0844614 	0.726064 	2.43901 	-3.11436e-21
24.4068 	0.0844614 	0.726064 	2.43901 	-3.11436e-21
24.4769 	0.0844614 	0.726064 	2.43901 	-3.11436e-21
24.547 	0.0844614 	0.726064 	2.43901 	-3.11436e-21
24.6172 	0.0404448 	0.766413 	2.59572 	5.04274e-20
24.6873 	0.0404448 	0.766413 	2.59572 	5.04274e-20
24.7574 	0.0404448 	0.766413 	2.59572 	5.04274e-20
24.8276 	0.0404448 	0.766413 	2.59572 	5.04274e-20
24.8977 	0.0404448 	0.766413 	2.59572 	5.04274e-20
24.9678 	0.0404448 	0.766413 	2.59572 	5.04274e-20
25.038 	0.0404448 	0.766413 	2.59572 	5.04274e-20
25.1081 	0.0404448 	0.766413 	2.59572 	5.04274e-20
25.1782 	0.0404448 	0.766413 	2.59572 	5.04274e-20
25.2484 	0.0404448 	0.766413 	2.59572 	5.04274e-20
25.3185 	0.0404448 	0.766413 	2.59572 	5.04274e-20
25.3886 	0.0404448 	0.766413 	2.59572 	5.04274e-20
25.4588 	-0.000276207 	0.801157 	2.71461 	-6.50333e-21
25.5289 	-0.000276207 	0.801157 	2.71461 	-6.50333e-21
25.5991 	-0.000276207 	0.801157 	2.71461 	-6.50333e-21
25.6692 	-0.000276207 	0.801157 	2.71461 	-6.50333e-21
25.7393 	-0.000276207 	0.801157 	2.71461 	-6.50333e-21
25.8095 	-0.000276207 	0.801157 	2.71461 	-6.50333e-21
25.8796 	-0.000276207 	0.801157 	2.71461 	-6.50333e-21
25.9497 	-0.000276207 	0.801157 	2.71461 	-6.50333e-21
26.0199 	-0.000276207 	0.801157 	2.71461 	-6.50333e-21
26.09 	-0.00397237 	0.608753 	1.76661 	-1.12411e-20
26.1601 	-0.00397237 	0.608753 	1.76661 	-1.12411e-20
26.2303 	-0.00397237 	0.608753 	1.76661 	-1.12411e-20
26.3004 	-0.00397237 	0.608753 	1.76661 	-1.12411e-20
26.3705 	-0.00397237 	0.608753 	1.76661 	-1.12411e-20
26.4407 	-0.0493352 	0.622781 	1.85122 	-2.09402e-20
26.5108 	-0.0493352 	0.622781 	1.85122 	-2.09402e-20
26.5809 	-0.0493352 	0.622781 	1.85122 	-2.09402e-20
26.6511 	-0.0493352 	0.622781 	1.85122 	-2.09402e-20
26.7212 	-0.0493352 	0.622781 	1.85122 	-2.09402e-20
26.7913 	-0.0493352 	0.622781 	1.85122 	-2.09402e-20
26.8615 	-0.0493352 	0.622781 	1.85122 	-2.09402e-20
26.9316 	-0.0493352 	0.622781 	1.85122 	-2.09402e-20
27.0017 	-0.0493352 	0.622781 	1.85122 	-2.09402e-20
27.0719 	-0.0493352 	0.622781 	1.85122 	-2.09402e-20
27.142 	-0.0493352 	0.622781 	1.85122 	-2.09402e-20
27.2121 	-0.0493352 	0.622781 	1.85122 	-2.09402e-20
27.2823 	-0.0493352 	0.622781 	1.85122 	-2.09402e-20
27.3524 	-0.093778 	0.629772 	1.92298 	0
27.4225 	-0.093778 	0.629772 	1.92298 	0
27.4927 	-0.093778 	0.629772 	1.92298 	0
27.5628 	-0.093778 	0.629772 	1.92298 	0
27.6329 	-0.093778 	0.629772 	1.92298 	0
27.7031 	-0.093778 	0.629772 	1.92298 	0
27.7732 	-0.093778 	0.629772 	1.92298 	0
27.8434 	-0.093778 	0.629772 	1.92298 	0
27.9135 	-0.093778 	0.629772 	1.92298 	0
27.9836 	-0.093778 	0.629772 	1.92298 	0
28.0538 	-0.093778 	0.629772 	1.92298 	0
28.1239 	-0.093778 	0.629772 	1.92298 	0
28.194 	-0.093778 	0.629772 	1.92298 	0
28.2642 	-0.093778 	0.629772 	1.92298 	0
28.3343 	-0.093778 	0.629772 	1.92298 	0
28.4044 	-0.135206 	0.635255 	1.98732 	0
28.4746 	-0.135206 	0.635255 	1.98732 	0
28.5447 	-0.135206 	0.635255 	1.98732 	0
28.6148 	-0.135206 	0.635255 	1.98732 	0
28.685 	-0.135206 	0.635255 	1.98732 	0
28.7551 	-0.135206 	0.635255 	1.98732 	0
28.8252 	-0.135206 	0.635255 	1.98732 	0
28.8954 	-0.135206 	0.635255 	1.98732 	0
28.9655 	-0.135206 	0.635255 	1.98732 	0
29.0356 	-0.135206 	0.635255 	1.98732 	0
29.1058 	-0.135206 	0.635255 	1.98732 	0
29.1759 	-0.135206 	0.635255 	1.98732 	0
29.246 	-0.135206 	0.635255 	1.98732 	0
29.3162 	-0.135206 	0.635255 	1.98732 	0
29.3863 	-0.135206 	0.635255 	1.98732 	0
29.4564 	-0.172134 	0.627657 	2.01819 	-7.92356e-20
29.5266 	-0.172134 	0.627657 	2.01819 	-7.92356e-20
29.5967 	-0.172134 	0.627657 	2.01819 	-7.92356e-20
29.6668 	-0.172134 	0.627657 	2.01819 	-7.92356e-20
29.737 	-0.172134 	0.627657 	2.01819 	-7.92356e-20
29.8071 	-0.172134 	0.627657 	2.01819 	-7.92356e-20
29.8773 	-0.172134 	0.627657 	2.01819 	-7.92356e-20
29.9474 	-0.172134 	0.627657 	2.01819 	-7.92356e-20
30.0175 	-0.172134 	0.627657 	2.01819 	-7.92356e-20
30.0877 	-0.172134 	0.627657 	2.01819 	-7.92356e-20
30.1578 	-0.172134 	0.627657 	2.01819 	-7.92356e-20
30.2279 	-0.172134 	0.627657 	2.01819 	-7.92356e-20
30.2981 	-0.172134 	0.627657 	2.01819 	-7.92356e-20
30.3682 	-0.172134 	0.627657 	2.01819 	-7.92356e-20
30.4383 	-0.172134 	0.627657 	2.01819 	-7.92356e-20
30.5085 	-0.172134 	0.627657 	2.01819 	-7.92356e-20
30.5786 	-0.203367 	0.615172 	2.02725 	-1.4888e-21
30.6487 	-0.203367 	0.615172 	2.02725 	-1.4888e-21
30.7189 	-0.203367 	0.615172 	2.02725 	-1.4888e-21
30.789 	-0.203367 	0.615172 	2.02725 	-1.4888e-21
30.8591 	-0.203367 	0.615172 	2.02725 	-1.4888e-21
30.9293 	-0.203367 	0.615172 	2.02725 	-1.4888e-21
30.9994 	-0.203367 	0.615172 	2.02725 	-1.4888e-21
31.0695 	-0.203367 	0.615172 	2.02725 	-1.4888e-21
31.1397 	-0.203367 	0.615172 	2.02725 	-1.4888e-21
31.2098 	-0.203367 	0.615172 	2.02725 	-1.4888e-21
31.2799 	-0.203367 	0.615172 	2.02725 	-1.4888e-21
31.3501 	-0.203367 	0.615172 	2.02725 	-1.4888e-21
31.4202 	-0.203367 	0.615172 	2.02725 	-1.4888e-21
31.4903 	-0.203367 	0.615172 	2.02725 	-1.4888e-21
31.5605 	-0.258494 	0.513926 	1.66332 	-1.61586e-19
31.6306 	-0.258494 	0.513926 	1.66332 	-1.61586e-19
31.7007 	-0.278654 	0.496455 	1.67468 	9.9373e-20
31.7709 	-0.278654 	0.496455 	1.67468 	9.9373e-20
31.841 	-0.278654 	0.496455 	1.67468 	9.9373e-20
31.9111 	-0.278654 	0.496455 	1.67468 	9.9373e-20
31.9813 	-0.278654 	0.496455 	1.67468 	9.9373e-20
32.0514 	-0.278654 	0.496455 	1.67468 	9.9373e-20
32.1216 	-0.278654 	0.496455 	1.67468 	9.9373e-20
32.1917 	-0.278654 	0.496455 	1.67468 	9.9373e-20
32.2618 	-0.278654 	0.496455 	1.67468 	9.9373e-20
32.332 	-0.278654 	0.496455 	1.67468 	9.9373e-20
32.4021 	-0.278654 	0.496455 	1.67468 	9.9373e-20
32.4722 	-0.278654 	0.496455 	1.67468 	9.9373e-20
32.5424 	-0.278654 	0.496455 	1.67468 	9.9373e-20
32.6125 	-0.278654 	0.496455 	1.67468 	9.9373e-20
32.6826 	-0.278654 	0.496455 	1.67468 	9.9373e-20
32.7528 	-0.278654 	0.496455 	1.67468 	9.9373e-20
32.8229 	-0.278654 	0.496455 	1.67468 	9.9373e-20
32.893 	-0.278654 	0.496455 	1.67468 	9.9373e-20
32.9632 	-0.288045 	0.47556 	1.67948 	2.78147e-20
33.0333 	-0.288045 	0.47556 	1.67948 	2.78147e-20
33.1034 	-0.288045 	0.47556 	1.67948 	2.78147e-20
33.1736 	-0.288045 	0.47556 	1.67948 	2.78147e-20
33.2437 	-0.288045 	0.47556 	1.67948 	2.78147e-20
33.3138 	-0.288045 	0.47556 	1.67948 	2.78147e-20
33.384 	-0.288045 	0.47556 	1.67948 	2.78147e-20
33.4541 	-0.288045 	0.47556 	1.67948 	2.78147e-20
33.5242 	-0.288045 	0.47556 	1.67948 	2.78147e-20
33.5944 	-0.288045 	0.47556 	1.67948 	2.78147e-20
33.6645 	-0.288045 	0.47556 	1.67948 	2.78147e-20
33.7346 	-0.288045 	0.47556 	1.67948 	2.78147e-20
33.8048 	-0.288045 	0.47556 	1.67948 	2.78147e-20
33.8749 	-0.288045 	0.47556 	1.67948 	2.78147e-20
33.945 	-0.288045 	0.47556 	1.67948 	2.78147e-20
34.0152 	-0.288045 	0.47556 	1.67948 	2.78147e-20
34.0853 	-0.288045 	0.47556 	1.67948 	2.78147e-20
34.1554 	-0.288045 	0.47556 	1.67948 	2.78147e-20
34.2256 	-0.283114 	0.452076 	1.67229 	-2.20776e-20
34.2957 	-0.283114 	0.452076 	1.67229 	-2.20776e-20
34.3659 	-0.283114 	0.452076 	1.67229 	-2.20776e-20
34.436 	-0.283114 	0.452076 	1.67229 	-2.20776e-20
34.5061 	-0.283114 	0.452076 	1.67229 	-2.20776e-20
34.5763 	-0.283114 	0.452076 	1.67229 	-2.20776e-20
34.6464 	-0.283114 	0.452076 	1.67229 	-2.20776e-20
34.7165 	-0.283114 	0.452076 	1.67229 	-2.20776e-20
34.7867 	-0.283114 	0.452076 	1.67229 	-2.20776e-20
34.8568 	-0.283114 	0.452076 	1.67229 	-2.20776e-20
34.9269 	-0.283114 	0.452076 	1.67229 	-2.20776e-20
34.9971 	-0.283114 	0.452076 	1.67229 	-2.20776e-20
35.0672 	-0.283114 	0.452076 	1.67229 	-2.20776e-20
35.1373 	-0.283114 	0.452076 	1.67229 	-2.20776e-20
35.2075 	-0.283114 	0.452076 	1.67229 	-2.20776e-20
35.2776 	-0.283114 	0.452076 	1.67229 	-2.20776e-20
35.3477 	-0.283114 	0.452076 	1.67229 	-2.20776e-20
35.4179 	-0.283114 	0.452076 	1.67229 	-2.20776e-20
35.488 	-0.283114 	0.452076 	1.67229 	-2.20776e-20
35.5581 	-0.283114 	0.452076 	1.67229 	-2.20776e-20
35.6283 	-0.264413 	0.423471 	1.66082 	-5.94694e-21
35.6984 	-0.264413 	0.423471 	1.66082 	-5.94694e-21
35.7685 	-0.264413 	0.423471 	1.66082 	-5.94694e-21
35.8387 	-0.264413 	0.423471 	1.66082 	-5.94694e-21
35.9088 	-0.264413 	0.423471 	1.66082 	-5.94694e-21
35.9789 	-0.264413 	0.423471 	1.66082 	-5.94694e-21
36.0491 	-0.264413 	0.423471 	1.66082 	-5.94694e-21
36.1192 	-0.264413 	0.423471 	1.66082 	-5.94694e-21
36.1893 	-0.264413 	0.423471 	1.66082 	-5.94694e-21
36.2595 	-0.264413 	0.423471 	1.66082 	-5.94694e-21
36.3296 	-0.264413 	0.423471 	1.66082 	-5.94694e-21
36.3997 	-0.264413 	0.423471 	1.66082 	-5.94694e-21
36.4699 	-0.264413 	0.423471 	1.66082 	-5.94694e-21
36.54 	-0.264413 	0.423471 	1.66082 	-5.94694e-21
36.6102 	-0.264413 	0.423471 	1.66082 	-5.94694e-21
36.6803 	-0.264413 	0.423471 	1.66082 	-5.94694e-21
36.7504 	-0.264413 	0.423471 	1.66082 	-5.94694e-21
36.8206 	-0.264413 	0.423471 	1.66082 	-5.94694e-21
36.8907 	-0.264413 	0.423471 	1.66082 	-5.94694e-21
36.9608 	-0.264413 	0.423471 	1.66082 	-5.94694e-21
37.031 	-0.264413 	0.423471 	1.66082 	-5.94694e-21
37.1011 	-0.239292 	0.388584 	1.64584 	0
37.1712 	-0.239292 	0.388584 	1.64584 	0
37.2414 	-0.239292 	0.388584 	1.64584 	0
37.3115 	-0.239292 	0.388584 	1.64584 	0
37.3816 	-0.239292 	0.388584 	1.64584 	0
37.4518 	-0.239292 	0.388584 	1.64584 	0
37.5219 	-0.239292 	0.388584 	1.64584 	0
37.592 	-0.239292 	0.388584 	1.64584 	0
37.6622 	-0.239292 	0.388584 	1.64584 	0
37.7323 	-0.239292 	0.388584 	1.64584 	0
37.8024 	-0.239292 	0.388584 	1.64584 	0
37.8726 	-0.239292 	0.388584 	1.64584 	0
37.9427 	-0.239292 	0.388584 	1.64584 	0
38.0128 	-0.239292 	0.388584 	1.64584 	0
38.083 	-0.239292 	0.388584 	1.64584 	0
38.1531 	-0.239292 	0.388584 	1.64584 	0
38.2232 	-0.239292 	0.388584 	1.64584 	0
38.2934 	-0.218166 	0.348226 	1.63464 	0
38.3635 	-0.218166 	0.348226 	1.63464 	0
38.4336 	-0.218166 	0.348226 	1.63464 	0
38.5038 	-0.218166 	0.348226 	1.63464 	0
38.5739 	-0.218166 	0.348226 	1.63464 	0
38.644 	-0.218166 	0.348226 	1.63464 	0
38.7142 	-0.218166 	0.348226 	1.63464 	0
38.7843 	-0.218166 	0.348226 	1.63464 	0
38.8545 	-0.218166 	0.348226 	1.63464 	0
38.9246 	-0.218166 	0.348226 	1.63464 	0
38.9947 	-0.218166 	0.348226 	1.63464 	0
39.0649 	-0.218166 	0.348226 	1.63464 	0
39.135 	-0.218166 	0.348226 	1.63464 	0
39.2051 	-0.218166 	0.348226 	1.63464 	0
39.2753 	-0.218166 	0.348226 	1.63464 	0
39.3454 	-0.218166 	0.348226 	1.63464 	0
39.4155 	-0.218166 	0.348226 	1.63464 	0
39.4857 	-0.218166 	0.348226 	1.63464 	0
39.5558 	-0.205287 	0.300612 	1.62925 	0
39.6259 	-0.205287 	0.300612 	1.62925 	0
39.6961 	-0.205287 	0.300612 	1.62925 	0
39.7662 	-0.205287 	0.300612 	1.62925 	0
39.8363 	-0.205287 	0.300612 	1.62925 	0
39.9065 	-0.205287 	0.300612 	1.62925 	0
39.9766 	-0.205287 	0.300612 	1.62925 	0
40.0467 	-0.205287 	0.300612 	1.62925 	0
40.1169 	-0.205287 	0.300612 	1.62925 	0
40.187 	-0.205287 	0.300612 	1.62925 	0
40.2571 	-0.205287 	0.300612 	1.62925 	0
40.3273 	-0.205287 	0.300612 	1.62925 	0
40.3974 	-0.205287 	0.300612 	1.62925 	0
40.4675 	-0.205287 	0.300612 	1.62925 	0
40.5377 	-0.205287 	0.300612 	1.62925 	0
40.6078 	-0.205287 	0.300612 	1.62925 	0
40.6779 	-0.205287 	0.300612 	1.62925 	0
40.7481 	-0.202369 	0.2518 	1.62926 	0
40.8182 	-0.202369 	0.2518 	1.62926 	0
40.8883 	-0.202369 	0.2518 	1.62926 	0
40.9585 	-0.202369 	0.2518 	1.62926 	0
41.0286 	-0.202369 	0.2518 	1.62926 	0
41.0988 	-0.202369 	0.2518 	1.62926 	0
41.1689 	-0.202369 	0.2518 	1.62926 	0
41.239 	-0.202369 	0.2518 	1.62926 	0
41.3092 	-0.202369 	0.2518 	1.62926 	0
41.3793 	-0.202369 	0.2518 	1.62926 	0
41.4494 	-0.202369 	0.2518 	1.62926 	0
41.5196 	-0.202369 	0.2518 	1.62926 	0
41.5897 	-0.202369 	0.2518 	1.62926 	0
41.6598 	-0.202369 	0.2518 	1.62926 	0
41.73 	-0.202369 	0.2518 	1.62926 	0
41.8001 	-0.202369 	0.2518 	1.62926 	0
41.8702 	-0.202369 	0.2518 	1.62926 	0
41.9404 	-0.202369 	0.2518 	1.62926 	0
42.0105 	-0.210789 	0.204546 	1.63684 	0
42.0806 	-0.210789 	0.204546 	1.63684 	0
42.1508 	-0.210789 	0.204546 	1.63684 	0
42.2209 	-0.210789 	0.204546 	1.63684 	0
42.291 	-0.210789 	0.204546 	1.63684 	0
42.3612 	-0.210789 	0.204546 	1.63684 	0
42.4313 	-0.210789 	0.204546 	1.63684 	0
42.5014 	-0.210789 	0.204546 	1.63684 	0
42.5716 	-0.210789 	0.204546 	1.63684 	0
42.6417 	-0.210789 	0.204546 	1.63684 	0
42.7118 	-0.210789 	0.204546 	1.63684 	0
42.782 	-0.210789 	0.204546 	1.63684 	0
42.8521 	-0.210789 	0.204546 	1.63684 	0
42.9222 	-0.210789 	0.204546 	1.63684 	0
42.9924 	-0.210789 	0.204546 	1.63684 	0
43.0625 	-0.210789 	0.204546 	1.63684 	0
43.1327 	-0.210789 	0.204546 	1.63684 	0
43.2028 	-0.226564 	0.15829 	1.64771 	0
43.2729 	-0.226564 	0.15829 	1.64771 	0
43.3431 	-0.226564 	0.15829 	1.64771 	0
43.4132 	-0.226564 	0.15829 	1.64771 	0
43.4833 	-0.226564 	0.15829 	1.64771 	0
43.5535 	-0.226564 	0.15829 	1.64771 	0
43.6236 	-0.226564 	0.15829 	1.64771 	0
43.6937 	-0.226564 	0.15829 	1.64771 	0
43.7639 	-0.226564 	0.15829 	1.64771 	0
43.834 	-0.226564 	0.15829 	1.64771 	0
43.9041 	-0.226564 	0.15829 	1.64771 	0
43.9743 	-0.226564 	0.15829 	1.64771 	0
44.0444 	-0.226564 	0.15829 	1.64771 	0
44.1145 	-0.226564 	0.15829 	1.64771 	0
44.1847 	-0.226564 	0.15829 	1.64771 	0
44.2548 	-0.226564 	0.15829 	1.64771 	0
44.3249 	-0.226564 	0.15829 	1.64771 	0
44.3951 	-0.226564 	0.15829 	1.64771 	0