/*--------------------------------*- C++ -*----------------------------------*\
| =========                 |                                                 |
| \\      /  F ield         | OpenFOAM: The Open Source CFD Toolbox           |
|  \\    /   O peration     | Version:  2306                                  |
|   \\  /    A nd           | Website:  www.openfoam.com                      |
|    \\/     M anipulation  |                                                 |
\*---------------------------------------------------------------------------*/
FoamFile
{
    version     2.0;
    format      ascii;
    arch        "LSB;label=32;scalar=64";
    class       volScalarField;
    location    "4";
    object      p;
}
// * * * * * * * * * * * * * * * * * * * * * * * * * * * * * * * * * * * * * //

dimensions      [0 2 -2 0 0 0 0];

internalField   nonuniform List<scalar> 
8800
(
0.658416
0.61114
0.573782
0.546281
0.526767
0.513104
0.503444
0.496742
0.492423
0.490474
0.491343
0.49478
0.500433
0.508634
0.520207
0.536563
0.559834
0.592236
0.633701
0.690492
0.489707
0.497528
0.50782
0.512621
0.512358
0.508413
0.502967
0.497606
0.493101
0.490108
0.489555
0.491819
0.495898
0.501063
0.506684
0.511699
0.514065
0.511989
0.504251
0.4937
0.470992
0.477247
0.482195
0.485847
0.488165
0.489006
0.48834
0.486759
0.48515
0.484384
0.484871
0.486431
0.488383
0.489825
0.489924
0.488364
0.485427
0.481076
0.475692
0.472238
0.47521
0.477073
0.479714
0.481974
0.483601
0.484229
0.484124
0.483503
0.48274
0.482324
0.482752
0.483752
0.484734
0.485285
0.485163
0.484147
0.482248
0.479751
0.477364
0.476594
0.473307
0.47355
0.474069
0.47474
0.475494
0.47629
0.476871
0.477123
0.477132
0.47715
0.477502
0.477942
0.478128
0.477923
0.477339
0.476633
0.47598
0.475391
0.475045
0.474946
0.469542
0.469731
0.470098
0.47054
0.470999
0.47143
0.471784
0.47203
0.472178
0.47237
0.472704
0.473063
0.473249
0.473189
0.472973
0.472638
0.472254
0.47188
0.471614
0.47153
0.465293
0.465358
0.465489
0.465697
0.465974
0.466306
0.466661
0.467009
0.467345
0.467713
0.46809
0.468364
0.468481
0.468447
0.4683
0.468115
0.467937
0.467791
0.467701
0.467666
0.460435
0.460488
0.460583
0.460724
0.460917
0.461166
0.461471
0.461827
0.462234
0.462703
0.46317
0.463515
0.463702
0.463771
0.463761
0.463711
0.463647
0.463585
0.463541
0.46352
0.455438
0.455475
0.455551
0.455666
0.45583
0.456057
0.456361
0.456754
0.457246
0.45784
0.458434
0.458878
0.459156
0.459312
0.459382
0.459404
0.4594
0.459384
0.459367
0.459354
0.450293
0.450314
0.450374
0.450475
0.45063
0.45086
0.451186
0.451634
0.452225
0.452967
0.453723
0.454308
0.4547
0.454952
0.455101
0.455182
0.455222
0.455236
0.455237
0.455229
0.444951
0.444971
0.445029
0.44513
0.445295
0.445549
0.445924
0.446457
0.447182
0.448113
0.449074
0.449829
0.450366
0.450721
0.450946
0.451081
0.451157
0.451195
0.451208
0.451203
0.439399
0.439415
0.439477
0.439592
0.439783
0.440084
0.440536
0.441189
0.44209
0.443264
0.444491
0.445474
0.446169
0.446641
0.446947
0.447137
0.447249
0.447309
0.447333
0.447329
0.433589
0.433606
0.433679
0.433816
0.434048
0.434417
0.434977
0.435793
0.436927
0.438415
0.439976
0.441232
0.442131
0.442747
0.44315
0.443402
0.443553
0.443634
0.443669
0.443665
0.427459
0.427479
0.427569
0.42774
0.42803
0.428493
0.429199
0.43023
0.431667
0.433556
0.435543
0.437144
0.438294
0.439082
0.439601
0.439929
0.440125
0.440233
0.44028
0.440276
0.420926
0.420951
0.421065
0.421281
0.421649
0.422238
0.423136
0.424449
0.426279
0.428683
0.43121
0.433246
0.434709
0.435714
0.436375
0.436793
0.437043
0.437182
0.437243
0.437238
0.413878
0.41391
0.414056
0.414334
0.414806
0.415561
0.416712
0.418391
0.420729
0.423792
0.427004
0.429586
0.431441
0.432713
0.433552
0.434083
0.434401
0.434577
0.434654
0.434648
0.406163
0.406205
0.406394
0.406755
0.407366
0.40834
0.409822
0.41198
0.414972
0.418877
0.422955
0.426225
0.42857
0.430177
0.431235
0.431904
0.432306
0.432529
0.432626
0.432618
0.397581
0.397637
0.397886
0.398357
0.399152
0.400419
0.402339
0.405122
0.408961
0.413941
0.419113
0.423243
0.426198
0.428221
0.429553
0.430396
0.430901
0.431181
0.431303
0.431293
0.387861
0.387936
0.388266
0.388888
0.389936
0.391595
0.394097
0.3977
0.402636
0.408988
0.415535
0.420739
0.424455
0.426996
0.428668
0.429725
0.430359
0.430709
0.430862
0.430849
0.376625
0.376731
0.377176
0.378009
0.379403
0.381598
0.384884
0.389576
0.395935
0.404029
0.412295
0.418828
0.423484
0.426669
0.428766
0.430092
0.430888
0.431328
0.431519
0.431503
0.363345
0.363498
0.364109
0.365247
0.367134
0.370079
0.37444
0.380587
0.388798
0.399096
0.409487
0.417652
0.423464
0.427446
0.430075
0.431741
0.432743
0.433298
0.433538
0.433517
0.347253
0.347482
0.348346
0.349939
0.352555
0.356581
0.362449
0.370564
0.381185
0.39424
0.40722
0.417359
0.424588
0.429562
0.432864
0.434968
0.436239
0.436943
0.437247
0.437221
0.32719
0.327545
0.328812
0.331136
0.334891
0.340544
0.348575
0.359375
0.373106
0.389554
0.405623
0.418107
0.427045
0.433256
0.437429
0.440117
0.441753
0.442663
0.443056
0.443026
0.301274
0.301842
0.303835
0.307459
0.313137
0.321354
0.332553
0.347004
0.364682
0.385192
0.404829
0.420016
0.430983
0.438735
0.444059
0.447571
0.44975
0.45097
0.451492
0.451459
0.266021
0.267038
0.270706
0.276996
0.286152
0.29851
0.314336
0.333647
0.35617
0.381355
0.404949
0.423137
0.436435
0.446076
0.45294
0.457677
0.460762
0.462561
0.463337
0.4633
0.214183
0.217267
0.225649
0.237725
0.253131
0.271983
0.294273
0.319729
0.347898
0.378197
0.40596
0.427313
0.443166
0.455019
0.463874
0.470423
0.475134
0.478274
0.479881
0.479893
0.133272
0.148916
0.16866
0.191074
0.215894
0.24343
0.273538
0.305892
0.340096
0.375714
0.407798
0.432545
0.45131
0.465867
0.477382
0.486634
0.494179
0.500265
0.505121
0.5068
0.0481751
0.0804112
0.112273
0.145424
0.180074
0.216236
0.253885
0.292859
0.332904
0.373831
0.410498
0.439039
0.461129
0.478804
0.493322
0.505549
0.516036
0.525071
0.534534
0.537008
-0.0100889
0.0247966
0.0644072
0.105802
0.14836
0.191986
0.236413
0.281337
0.326495
0.371806
0.411944
0.443101
0.467272
0.486642
0.502487
0.515641
0.526678
0.536031
0.544222
0.546585
-0.0514353
-0.0143376
0.0291246
0.0751463
0.122956
0.171965
0.221557
0.271163
0.320321
0.368904
0.411402
0.444125
0.469331
0.489342
0.505519
0.518761
0.529718
0.538923
0.546849
0.549259
-0.0807525
-0.0430074
0.00291212
0.0520381
0.103401
0.156258
0.209734
0.262896
0.314985
0.365721
0.409501
0.442897
0.468456
0.488615
0.504798
0.517952
0.528762
0.537746
0.545287
0.54766
-0.103534
-0.0650316
-0.0174105
0.0340728
0.0882346
0.144118
0.200549
0.256306
0.310329
0.362155
0.40627
0.439691
0.465199
0.485267
0.501324
0.514325
0.52495
0.533746
0.541005
0.543363
-0.121763
-0.0824389
-0.0333355
0.0200367
0.0764275
0.134712
0.193471
0.25113
0.30628
0.358258
0.401866
0.4348
0.460002
0.479882
0.495794
0.508645
0.519144
0.527773
0.53479
0.537147
-0.136759
-0.0966351
-0.0461321
0.00893714
0.0672751
0.127588
0.188221
0.247241
0.302823
0.354079
0.396371
0.428367
0.453135
0.47285
0.488692
0.501487
0.511904
0.520447
0.527303
0.529678
-0.149389
-0.108431
-0.056661
1.91128e-05
0.0601371
0.122276
0.184514
0.244512
0.299966
0.349648
0.389776
0.420405
0.444704
0.464411
0.48038
0.493286
0.503746
0.512273
0.519012
0.521398
-0.160526
-0.118564
-0.0655075
-0.00725234
0.0545635
0.118425
0.182123
0.242867
0.297729
0.345014
0.382011
0.4108
0.434678
0.454694
0.471145
0.48445
0.495151
0.503785
0.510501
0.512935
-0.170438
-0.127444
-0.0731581
-0.0133553
0.0501621
0.115742
0.180869
0.24225
0.296184
0.340248
0.372969
0.399287
0.422868
0.443723
0.461249
0.475429
0.486707
0.495651
0.502447
0.504958
-0.179681
-0.135769
-0.0799957
-0.0186374
0.046626
0.113959
0.180575
0.242615
0.295429
0.335463
0.362508
0.38546
0.408882
0.431383
0.450909
0.466724
0.479092
0.488647
0.495721
0.498373
-0.188432
-0.143553
-0.0863426
-0.0233798
0.0436761
0.112853
0.181088
0.243921
0.29558
0.330861
0.350505
0.368749
0.39208
0.417376
0.440297
0.458906
0.473184
0.483823
0.491401
0.494237
-0.19711
-0.151062
-0.092434
-0.0278261
0.0410838
0.11221
0.182229
0.246102
0.296755
0.326707
0.336907
0.348417
0.371468
0.401133
0.429529
0.452585
0.470091
0.482462
0.490892
0.493997
-0.20587
-0.158521
-0.0984635
-0.0321655
0.0386472
0.111836
0.183837
0.249067
0.299056
0.323351
0.321782
0.323624
0.345635
0.381736
0.418703
0.448921
0.470982
0.486164
0.495958
0.499484
-0.214919
-0.166103
-0.104576
-0.0365591
0.0362109
0.111557
0.185754
0.252698
0.302534
0.321174
0.305376
0.293437
0.312779
0.357772
0.407638
0.448299
0.477527
0.496771
0.508769
0.512983
-0.22412
-0.173895
-0.110852
-0.0411113
0.0336382
0.111205
0.187788
0.256854
0.307197
0.320606
0.288183
0.256924
0.270265
0.327249
0.395663
0.451713
0.491586
0.517032
0.531773
0.536641
-0.233511
-0.181938
-0.117355
-0.0458851
0.0308347
0.110651
0.189771
0.261365
0.312994
0.322032
0.270987
0.212347
0.215171
0.286647
0.380242
0.459916
0.515484
0.549399
0.567244
0.571617
-0.243285
-0.19021
-0.124091
-0.0509157
0.0277433
0.109808
0.191548
0.266004
0.319785
0.325782
0.254829
0.159732
0.141741
0.230588
0.361562
0.474975
0.552441
0.596911
0.616467
0.618608
-0.253215
-0.198709
-0.131015
-0.0561831
0.0243207
0.108603
0.193021
0.270588
0.327345
0.332061
0.240929
0.098767
0.0428833
0.15047
0.336276
0.500042
0.607372
0.665182
0.682491
0.671745
-0.263539
-0.207412
-0.138071
-0.0616908
0.0205418
0.106998
0.194099
0.275023
0.335534
0.341041
0.230451
0.0280082
-0.0961579
0.0289475
0.299179
0.530335
0.672106
0.747492
0.769692
0.751264
-0.274123
-0.216216
-0.145211
-0.0675282
0.0162862
0.104885
0.194672
0.279222
0.344403
0.353288
0.224989
-0.057218
-0.313869
-0.181735
0.235185
0.554413
0.730643
0.786842
0.784546
0.729955
-0.284583
-0.224703
-0.15221
-0.0736233
0.0116805
0.102351
0.194644
0.283014
0.353548
0.36856
0.228091
-0.155858
-0.675292
-0.625242
0.0504081
0.51721
0.723011
0.731683
0.610771
0.524426
-0.29426
-0.232044
-0.158519
-0.0793955
0.00733392
0.0998087
0.194195
0.286415
0.36273
0.386605
0.242384
-0.265057
-1.20493
-1.32636
-0.322593
0.313195
0.496336
0.467606
0.349221
0.27276
-0.367141
-0.236179
-0.165309
-0.0855991
0.00217023
0.0961812
0.193394
0.289219
0.372061
0.408291
0.274665
-0.321235
-1.67936
-2.06793
-0.877598
-0.174928
0.0133743
0.0615334
-0.00118095
-0.0360751
-0.261642
-0.241766
-0.176285
-0.0955364
-0.006248
0.0901555
0.190241
0.291027
0.382594
0.436434
0.337737
-0.309322
-1.98883
-2.35715
-1.37961
-0.898292
-0.646587
-0.535251
-0.541597
-0.386636
-0.304412
-0.254571
-0.186092
-0.104772
-0.0141948
0.0837276
0.186478
0.29066
0.388683
0.457301
0.395317
-0.173703
-1.56832
-1.91872
-1.42174
-1.10561
-0.978034
-0.908467
-0.933897
-0.74606
-0.329626
-0.272775
-0.199681
-0.116483
-0.0242562
0.0754796
0.180671
0.28811
0.39163
0.472734
0.446044
0.0182785
-0.978006
-1.33149
-1.21457
-1.17713
-1.2115
-1.24582
-1.34122
-1.16314
-0.35469
-0.291974
-0.214774
-0.128995
-0.034792
0.0668239
0.174215
0.284458
0.392361
0.484421
0.49138
0.210163
-0.446228
-0.816491
-0.991039
-1.18075
-1.39762
-1.58604
-1.80081
-1.70566
-0.378243
-0.311629
-0.231113
-0.142729
-0.0463857
0.057186
0.166557
0.279127
0.391263
0.492196
0.52518
0.360277
-0.0674708
-0.44994
-0.79861
-1.18108
-1.55973
-1.87341
-2.27673
-2.59279
-0.401109
-0.332188
-0.249012
-0.158149
-0.0595572
0.0459843
0.157205
0.272257
0.387398
0.493159
0.545849
0.45677
0.159073
-0.231153
-0.666505
-1.16593
-1.69816
-2.10198
-2.27241
-2.6022
-0.424597
-0.354061
-0.268717
-0.175517
-0.0747527
0.0327204
0.145896
0.262769
0.38002
0.49051
0.556186
0.51114
0.291613
-0.0808667
-0.545169
-1.11931
-1.7774
-2.21704
-2.20694
-2.25562
-0.44912
-0.377479
-0.290308
-0.194928
-0.0921554
0.0172754
0.132228
0.250937
0.370192
0.482451
0.554159
0.53374
0.362483
0.0262309
-0.429958
-1.04392
-1.82917
-2.47568
-2.42548
-2.37496
-0.475563
-0.402705
-0.313865
-0.216482
-0.11173
-0.000356375
0.116311
0.236162
0.356315
0.470162
0.545669
0.540997
0.407229
0.132204
-0.27954
-0.895665
-1.69515
-2.46325
-2.50883
-2.35268
-0.504295
-0.430141
-0.339555
-0.24025
-0.133625
-0.0205465
0.0975981
0.218957
0.34079
0.455556
0.533292
0.540989
0.445203
0.245291
-0.0615507
-0.529921
-1.08182
-1.50162
-1.56337
-1.45835
-0.535321
-0.459786
-0.3675
-0.266355
-0.157757
-0.0426768
0.0772308
0.199837
0.32237
0.438174
0.520896
0.544121
0.492839
0.371626
0.202169
-0.0161742
-0.216811
-0.320212
-0.327634
-0.300514
-0.568422
-0.491683
-0.397562
-0.294401
-0.183809
-0.0670055
0.0543514
0.178357
0.301928
0.420206
0.510136
0.552414
0.544361
0.498995
0.443311
0.387288
0.361609
0.378616
0.41613
0.430859
-0.603927
-0.525871
-0.429842
-0.32468
-0.212041
-0.0931977
0.0300051
0.155464
0.280293
0.402339
0.500578
0.561443
0.589836
0.597824
0.605151
0.622196
0.658461
0.708769
0.749111
0.760126
-0.641618
-0.562008
-0.463703
-0.356264
-0.241385
-0.120553
0.00436643
0.131447
0.258732
0.385306
0.492606
0.569638
0.623993
0.666148
0.707303
0.752547
0.803201
0.852917
0.88725
0.89592
-0.680916
-0.599456
-0.498812
-0.388937
-0.271722
-0.148807
-0.0217807
0.107571
0.238312
0.369847
0.486303
0.576565
0.647198
0.707126
0.761689
0.813218
0.861704
0.904111
0.933585
0.941781
-0.720599
-0.637472
-0.534158
-0.42165
-0.301961
-0.176754
-0.0472409
0.0848671
0.219277
0.356004
0.479976
0.580116
0.661109
0.729599
0.788572
0.840021
0.884423
0.92129
0.947793
0.955821
-0.759291
-0.673877
-0.568223
-0.453011
-0.330795
-0.203094
-0.0709545
0.0640584
0.201896
0.343186
0.474752
0.581456
0.668236
0.740209
0.800503
0.850975
0.892986
0.927301
0.951381
0.959567
-0.794003
-0.706855
-0.59899
-0.481156
-0.356501
-0.226404
-0.0919452
0.0456087
0.18637
0.332089
0.468057
0.579405
0.669091
0.742494
0.802841
0.852452
0.89304
0.926107
0.949257
0.957374
-0.821219
-0.733441
-0.623666
-0.503727
-0.377195
-0.245346
-0.109344
0.0298867
0.172691
0.321074
0.459523
0.573317
0.663922
0.737553
0.797495
0.846278
0.885932
0.917988
0.940415
0.948542
-0.836508
-0.750226
-0.639287
-0.518343
-0.390939
-0.258504
-0.122259
0.0172233
0.160517
0.30965
0.448666
0.562786
0.652994
0.725944
0.785068
0.83303
0.871955
0.90338
0.925445
0.933587
-0.837505
-0.752681
-0.642221
-0.521941
-0.395513
-0.264432
-0.129804
0.00803063
0.14971
0.297083
0.434458
0.546802
0.635552
0.70709
0.765075
0.812161
0.850444
0.881371
0.903166
0.911432
-0.816981
-0.73613
-0.628524
-0.511041
-0.388046
-0.261029
-0.130732
0.00272791
0.139988
0.282675
0.415958
0.52427
0.610138
0.679465
0.735873
0.781879
0.819451
0.849888
0.871636
0.880164
-0.7683
-0.693594
-0.592581
-0.481299
-0.365548
-0.246201
-0.123734
0.00189872
0.131424
0.266478
0.392168
0.493995
0.574992
0.640717
0.694617
0.73895
0.775428
0.805291
0.827364
0.836028
-0.68298
-0.617873
-0.527606
-0.428626
-0.325223
-0.218346
-0.107945
0.00608997
0.12433
0.247961
0.362638
0.45503
0.528322
0.587875
0.637116
0.678046
0.71187
0.739628
0.761803
0.770489
-0.554727
-0.505547
-0.431346
-0.350605
-0.265955
-0.176711
-0.0828955
0.0156054
0.11898
0.22764
0.327956
0.407643
0.469718
0.51918
0.55943
0.592874
0.620357
0.641845
0.657405
0.66339
-0.359755
-0.337495
-0.296425
-0.246376
-0.188387
-0.122952
-0.0501579
0.0298121
0.116702
0.210137
0.297215
0.366027
0.418648
0.459246
0.490471
0.514208
0.532758
0.548136
0.560305
0.564405
-0.178865
-0.173189
-0.158713
-0.136229
-0.104791
-0.0636326
-0.012506
0.0483895
0.118446
0.196634
0.270709
0.329045
0.372736
0.405197
0.429169
0.44668
0.458768
0.466134
0.470031
0.471217
-0.0670621
-0.0661967
-0.0614599
-0.0514211
-0.0348997
-0.0102227
0.0239538
0.0683218
0.122746
0.186217
0.24779
0.296293
0.331965
0.357617
0.375365
0.38696
0.394121
0.398303
0.400263
0.400572
-0.00456552
-0.0047972
-0.00324018
0.00200161
0.0122268
0.0286707
0.0526139
0.0852082
0.127033
0.177596
0.22763
0.267107
0.295744
0.31582
0.329416
0.338274
0.343643
0.346457
0.34754
0.347726
0.0332232
0.033381
0.0346296
0.0380255
0.044669
0.0558969
0.0730783
0.0973942
0.129592
0.169551
0.209758
0.24159
0.26455
0.280502
0.291131
0.297847
0.301814
0.303938
0.304864
0.305063
0.0584022
0.0586365
0.0596748
0.062221
0.0670599
0.0751796
0.0877511
0.105965
0.13071
0.162099
0.194119
0.219567
0.237849
0.250425
0.258722
0.263952
0.267052
0.268715
0.269444
0.269602
0.0749783
0.0752216
0.0760894
0.0780405
0.0816607
0.0877254
0.0971746
0.111018
0.130104
0.154682
0.180038
0.200269
0.214781
0.224736
0.231286
0.2354
0.237834
0.239145
0.239726
0.239851
0.0856765
0.0858939
0.0866025
0.0881244
0.0908926
0.0954959
0.102679
0.113279
0.128038
0.147261
0.167266
0.183283
0.194774
0.202642
0.207805
0.211045
0.212961
0.213995
0.214455
0.214553
0.0920078
0.0921861
0.0927476
0.0939306
0.0960633
0.0995985
0.105113
0.113277
0.124724
0.139749
0.155487
0.168133
0.177209
0.18342
0.187495
0.19005
0.191561
0.192376
0.192736
0.192811
0.095029
0.095172
0.0956134
0.0965335
0.0981836
0.100911
0.105167
0.111485
0.12038
0.132123
0.144489
0.154449
0.161605
0.166503
0.169713
0.171725
0.172913
0.173553
0.173835
0.173894
0.0955149
0.0956282
0.0959741
0.0966904
0.0979704
0.100084
0.103383
0.108287
0.11521
0.124387
0.134087
0.141919
0.147552
0.151409
0.153937
0.15552
0.156452
0.156954
0.157174
0.157219
0.0940507
0.0941398
0.0944099
0.094967
0.0959618
0.0976034
0.100166
0.103979
0.109375
0.116549
0.124154
0.130307
0.134735
0.137765
0.139749
0.140991
0.141725
0.142119
0.142291
0.142326
0.0910762
0.0911461
0.091357
0.0917914
0.0925652
0.0938414
0.0958352
0.0988059
0.103014
0.10862
0.114576
0.1194
0.122875
0.125256
0.126818
0.127795
0.128368
0.128675
0.128808
0.128834
0.0869333
0.0869878
0.087152
0.08749
0.0880927
0.0890868
0.0906397
0.0929534
0.0962351
0.100615
0.105276
0.109059
0.111786
0.113652
0.114874
0.115639
0.116089
0.11633
0.116435
0.116455
0.0818795
0.0819222
0.0820503
0.0823134
0.0827827
0.0835568
0.0847662
0.0865698
0.0891307
0.0925522
0.0961972
0.0991569
0.101291
0.102753
0.10371
0.104306
0.104657
0.104845
0.104926
0.104942
0.0761202
0.076153
0.0762523
0.076457
0.0768222
0.0774251
0.0783663
0.079771
0.0817671
0.0844351
0.0872816
0.0895935
0.0912597
0.0924015
0.0931508
0.0936202
0.0938953
0.0940414
0.0941038
0.0941157
0.0698088
0.0698346
0.0699121
0.0700715
0.0703553
0.0708236
0.0715564
0.0726503
0.0742042
0.0762822
0.0785024
0.0803064
0.0816064
0.0824977
0.083081
0.0834445
0.0836579
0.083771
0.0838191
0.0838284
0.063072
0.0630917
0.0631515
0.0632749
0.0634956
0.0638594
0.0644267
0.0652736
0.0664796
0.0680948
0.069819
0.0712214
0.0722351
0.0729297
0.0733822
0.073663
0.0738267
0.0739131
0.0739491
0.0739561
0.056003
0.0560182
0.0560641
0.0561587
0.056328
0.0566086
0.0570485
0.0577046
0.0586375
0.0598872
0.0612214
0.0623056
0.0630862
0.0636189
0.0639685
0.0641877
0.0643157
0.0643831
0.0644122
0.0644177
0.0486774
0.048689
0.0487243
0.0487969
0.0489267
0.0491409
0.0494774
0.049981
0.0506974
0.0516564
0.0526796
0.0535104
0.0541083
0.0545186
0.0547878
0.0549544
0.0550509
0.0551016
0.0551226
0.0551265
0.0411565
0.0411648
0.0411905
0.041245
0.0413436
0.0415059
0.0417599
0.0421405
0.0426819
0.0434076
0.0441842
0.0448169
0.0452728
0.0455839
0.0457847
0.0459082
0.0459802
0.0460186
0.046034
0.046037
0.0334847
0.0334913
0.0335113
0.0335519
0.0336233
0.0337442
0.0339344
0.0342175
0.0346194
0.0351575
0.0357314
0.0361972
0.0365319
0.0367578
0.0369037
0.0369954
0.0370491
0.0370782
0.0370914
0.0370939
0.0257024
0.0257074
0.0257216
0.025752
0.0258052
0.0258927
0.0260283
0.0262295
0.0265156
0.0268978
0.0273048
0.0276342
0.0278715
0.0280322
0.0281359
0.0281988
0.0282343
0.0282516
0.0282563
0.0282561
0.0178408
0.0178451
0.0178564
0.0178775
0.0179139
0.0179727
0.018061
0.0181919
0.0183779
0.0186268
0.0188933
0.0191089
0.0192641
0.0193704
0.0194387
0.0194792
0.0195001
0.0195079
0.0195087
0.0195083
0.00992785
0.00993117
0.00993893
0.00995222
0.00997289
0.0100034
0.0100513
0.0101212
0.0102201
0.0103523
0.0104938
0.0106067
0.0106851
0.0107399
0.0107756
0.0107942
0.0108003
0.010799
0.0107963
0.0107995
0.00198737
0.00198526
0.00198378
0.00198379
0.00198789
0.00199467
0.00200346
0.00201546
0.00203243
0.00205595
0.00208465
0.00210982
0.0021322
0.00214387
0.00215167
0.00215613
0.00216
0.00216462
0.00216794
0.00216865
-1.34614
-0.995622
-0.631878
-0.320854
-0.0443677
0.201718
0.411561
0.584324
0.687282
0.654851
-0.666803
-0.442551
-0.209156
-0.0001783
0.187244
0.348958
0.480454
0.574986
0.622064
0.620709
-0.223894
-0.0785811
0.072137
0.208848
0.330316
0.432969
0.512542
0.566984
0.597423
0.605318
0.0640429
0.159401
0.257451
0.347152
0.424693
0.489146
0.539296
0.574524
0.596458
0.606084
0.257898
0.321102
0.385522
0.443236
0.493048
0.534899
0.56815
0.593065
0.609253
0.616385
0.395138
0.435235
0.476166
0.515505
0.550579
0.580812
0.605097
0.621248
0.630927
0.635618
0.49502
0.522159
0.553725
0.584678
0.612197
0.634549
0.651402
0.66154
0.667254
0.672618
0.568553
0.592546
0.621113
0.646389
0.669556
0.690381
0.707586
0.720401
0.725782
0.734381
0.631245
0.659733
0.691433
0.722613
0.751809
0.776453
0.794762
0.806924
0.810527
0.823188
0.712846
0.75664
0.799637
0.83623
0.864994
0.887013
0.904002
0.915619
0.922293
0.93737
0.85309
0.895184
0.932862
0.962913
0.988003
1.00972
1.0277
1.04107
1.05145
1.06868
1.0251
1.05771
1.08478
1.10827
1.12837
1.14668
1.16369
1.17974
1.1951
1.2127
1.21398
1.23253
1.24815
1.26466
1.28105
1.2956
1.30851
1.32221
1.33891
1.35827
1.39634
1.40743
1.42002
1.43088
1.43993
1.44932
1.45996
1.47143
1.48134
1.49654
1.6068
1.60871
1.5938
1.57892
1.57266
1.57829
1.59693
1.6272
1.65912
1.68976
1.91314
1.77619
1.69967
1.65713
1.63971
1.6439
1.67101
1.72715
1.83081
2.04612
0.554136
0.551388
0.546773
0.538518
0.526985
0.515855
0.506587
0.49938
0.494169
0.490948
0.490407
0.492718
0.497185
0.503563
0.511879
0.522238
0.533895
0.54445
0.550138
0.554089
0.47256
0.478437
0.486837
0.492905
0.49668
0.497453
0.495737
0.492756
0.489728
0.487616
0.487255
0.488915
0.491833
0.495156
0.497811
0.498493
0.496259
0.491193
0.484183
0.475803
0.473161
0.47498
0.478934
0.482329
0.484487
0.485581
0.485722
0.485129
0.484055
0.483126
0.483029
0.483987
0.485346
0.486443
0.486819
0.48633
0.484754
0.482083
0.478218
0.475021
0.475068
0.475321
0.476295
0.477676
0.478982
0.480161
0.480933
0.481035
0.480781
0.480482
0.480554
0.481158
0.481818
0.482117
0.481838
0.480899
0.47976
0.478427
0.477194
0.476579
0.471365
0.471454
0.471774
0.472238
0.47273
0.473231
0.473687
0.474023
0.474152
0.47419
0.474396
0.474791
0.475095
0.475189
0.474978
0.474623
0.474209
0.473788
0.473414
0.473234
0.467547
0.467594
0.46776
0.468039
0.468395
0.468797
0.469196
0.469545
0.469832
0.4701
0.470432
0.470796
0.471013
0.47101
0.470863
0.470601
0.470303
0.470022
0.469804
0.469699
0.462889
0.462916
0.462988
0.463119
0.463308
0.463555
0.463853
0.464189
0.464546
0.464937
0.465368
0.465734
0.465957
0.466042
0.466017
0.465931
0.465826
0.465727
0.465648
0.465608
0.457952
0.457972
0.458037
0.458144
0.458294
0.458499
0.458767
0.459104
0.459513
0.460003
0.460548
0.461022
0.461334
0.461494
0.461557
0.461562
0.461537
0.461501
0.461466
0.461444
0.452887
0.452895
0.452943
0.453029
0.453158
0.453348
0.453614
0.453976
0.454452
0.455053
0.455742
0.456344
0.456765
0.457029
0.45718
0.457258
0.457292
0.4573
0.457296
0.457288
0.447649
0.447656
0.447693
0.447769
0.447894
0.44809
0.448379
0.448793
0.44936
0.450103
0.450972
0.451754
0.452306
0.452686
0.452925
0.453068
0.453149
0.453189
0.453205
0.453205
0.442203
0.442204
0.442244
0.442326
0.442465
0.442686
0.443024
0.443518
0.444211
0.445138
0.446238
0.447239
0.447975
0.448476
0.448807
0.449015
0.44914
0.449209
0.449241
0.449248
0.43653
0.43653
0.436574
0.436667
0.43683
0.437095
0.437505
0.438113
0.438977
0.440142
0.44154
0.442822
0.443768
0.444426
0.444864
0.445144
0.445315
0.445412
0.44546
0.445472
0.430568
0.430568
0.43062
0.430733
0.430933
0.431262
0.431774
0.432536
0.433625
0.435101
0.436876
0.438511
0.439721
0.440568
0.441136
0.441502
0.441726
0.441856
0.441921
0.441939
0.424249
0.424247
0.424312
0.424455
0.424707
0.425122
0.42577
0.426737
0.428119
0.429994
0.432253
0.434334
0.435876
0.436956
0.437682
0.438151
0.438439
0.438607
0.438692
0.438716
0.417475
0.417472
0.417555
0.417736
0.418059
0.418589
0.419416
0.420651
0.422415
0.424805
0.42768
0.430323
0.43228
0.433652
0.434575
0.435171
0.435538
0.435752
0.435861
0.435891
0.410115
0.410112
0.410219
0.410453
0.410869
0.411551
0.412614
0.4142
0.416458
0.41951
0.423168
0.426522
0.429
0.430737
0.431903
0.432657
0.433122
0.433392
0.43353
0.433568
0.401996
0.401992
0.402132
0.402437
0.402977
0.403862
0.405238
0.407282
0.410183
0.414085
0.418737
0.422986
0.426115
0.428305
0.429775
0.430725
0.431312
0.431652
0.431826
0.431874
0.392884
0.392881
0.393065
0.393467
0.394175
0.395331
0.397122
0.399771
0.403509
0.408503
0.414417
0.419788
0.423731
0.426486
0.428335
0.429528
0.430265
0.430692
0.43091
0.43097
0.382462
0.382459
0.382706
0.383243
0.384181
0.385708
0.388058
0.39151
0.396342
0.40274
0.410245
0.417016
0.42197
0.425427
0.427747
0.429244
0.430168
0.430703
0.430977
0.431051
0.370285
0.370286
0.370625
0.371353
0.372616
0.374656
0.377771
0.382304
0.388576
0.396775
0.406277
0.414778
0.420977
0.425301
0.428206
0.430084
0.431245
0.431918
0.432262
0.432355
0.355718
0.355727
0.356207
0.357222
0.358959
0.361733
0.365921
0.371929
0.380107
0.39061
0.402589
0.413203
0.420924
0.426319
0.429954
0.432312
0.433775
0.434626
0.435061
0.435178
0.337799
0.337828
0.338546
0.340015
0.342476
0.346344
0.352083
0.360142
0.370852
0.384276
0.39928
0.412429
0.421982
0.428693
0.43325
0.436229
0.438089
0.439179
0.439741
0.439894
0.314983
0.315071
0.316237
0.318484
0.322126
0.327712
0.335772
0.346726
0.360787
0.377857
0.396467
0.412582
0.424304
0.432621
0.438353
0.44216
0.444575
0.446017
0.446781
0.446997
0.284644
0.284928
0.287042
0.290739
0.296478
0.304935
0.316569
0.331603
0.350021
0.371512
0.394277
0.413746
0.427962
0.438213
0.445457
0.450422
0.45368
0.455705
0.456837
0.457186
0.241979
0.242872
0.247336
0.254154
0.263993
0.277419
0.294493
0.315089
0.338928
0.365529
0.392859
0.415946
0.432909
0.445407
0.454559
0.461149
0.465761
0.468865
0.470788
0.471415
0.178369
0.181134
0.192026
0.206231
0.224186
0.245729
0.270459
0.298071
0.328185
0.360312
0.392337
0.419081
0.438878
0.453813
0.465198
0.473904
0.480545
0.485611
0.489219
0.49005
0.098461
0.105867
0.127269
0.153804
0.182499
0.213335
0.246259
0.281127
0.317635
0.355454
0.392499
0.423457
0.446814
0.465036
0.479593
0.491428
0.501183
0.509406
0.515214
0.517596
0.020377
0.0363521
0.0690144
0.105602
0.143808
0.183369
0.224103
0.265811
0.308271
0.351291
0.392868
0.427519
0.453826
0.474618
0.491517
0.505493
0.517123
0.526826
0.53428
0.538381
-0.0289833
-0.0122948
0.0246312
0.067224
0.111979
0.158079
0.205028
0.252397
0.299795
0.346967
0.391879
0.42898
0.457046
0.479126
0.496906
0.511395
0.523247
0.532961
0.540301
0.544244
-0.0642264
-0.0471147
-0.00730721
0.0387666
0.0874699
0.137967
0.189457
0.241159
0.292368
0.342648
0.38983
0.428369
0.457282
0.479846
0.497865
0.512433
0.524259
0.533868
0.541215
0.54525
-0.0899681
-0.0729571
-0.0315624
0.0170084
0.0687182
0.122508
0.177408
0.232352
0.286315
0.338599
0.386932
0.425984
0.455104
0.477732
0.495714
0.510183
0.521882
0.531347
0.538662
0.542716
-0.110644
-0.0933204
-0.0504414
3.97904e-05
0.0540422
0.11045
0.168041
0.225454
0.28132
0.33467
0.383197
0.422031
0.450925
0.473383
0.491222
0.505548
0.51711
0.526444
0.533716
0.53779
-0.127431
-0.109763
-0.0655035
-0.0133447
0.0426134
0.101162
0.160929
0.220228
0.277329
0.330914
0.378729
0.416672
0.445031
0.467221
0.484911
0.499135
0.510613
0.519868
0.527083
0.531185
-0.141432
-0.123356
-0.0778208
-0.02413
0.033588
0.0940574
0.155677
0.21647
0.274266
0.327348
0.373548
0.409959
0.43755
0.459491
0.477158
0.491408
0.502902
0.512151
0.519369
0.523541
-0.153438
-0.13495
-0.0881442
-0.032983
0.0264165
0.0886473
0.151956
0.213997
0.272097
0.324009
0.367671
0.401833
0.428458
0.450302
0.46821
0.482736
0.494427
0.503782
0.511056
0.515286
-0.164138
-0.145136
-0.0970525
-0.0403982
0.0206145
0.0845803
0.149506
0.212682
0.270824
0.320977
0.361078
0.392138
0.417599
0.439637
0.458251
0.473471
0.485674
0.495341
0.50279
0.507166
-0.173899
-0.154242
-0.105034
-0.0468363
0.0158205
0.0815283
0.148094
0.212392
0.270472
0.318364
0.353788
0.380615
0.404628
0.427318
0.447379
0.463988
0.477209
0.487504
0.495283
0.499816
-0.183056
-0.16285
-0.112306
-0.0526289
0.0117234
0.0792355
0.147512
0.213043
0.271057
0.316348
0.345842
0.366917
0.388992
0.412975
0.435601
0.454658
0.469694
0.481129
0.48952
0.494368
-0.191912
-0.171133
-0.119235
-0.0580359
0.0080528
0.0774529
0.147582
0.214509
0.272632
0.315099
0.337391
0.350666
0.369897
0.395946
0.422775
0.445891
0.463969
0.477291
0.486704
0.492011
-0.200763
-0.179315
-0.126029
-0.063268
0.00460083
0.075962
0.148092
0.216662
0.27518
0.314876
0.328667
0.331459
0.346244
0.375178
0.408604
0.438144
0.46097
0.477318
0.488387
0.494379
-0.209667
-0.187498
-0.132849
-0.0684976
0.00119254
0.0745871
0.148859
0.219363
0.278698
0.315898
0.320074
0.308959
0.31656
0.349208
0.392465
0.431896
0.461924
0.482847
0.496466
0.503641
-0.218899
-0.195886
-0.139818
-0.0738475
-0.00231067
0.0731693
0.149709
0.222429
0.283107
0.318381
0.312144
0.282937
0.278832
0.315743
0.373059
0.427288
0.468089
0.49583
0.513113
0.521351
-0.228211
-0.204528
-0.147002
-0.0793921
-0.00600351
0.0715903
0.15049
0.225669
0.288261
0.32246
0.305545
0.253292
0.231425
0.272464
0.34875
0.424076
0.480922
0.518376
0.540657
0.550836
-0.237838
-0.213409
-0.154416
-0.0851781
-0.0099595
0.0697353
0.15107
0.228937
0.293982
0.328203
0.30099
0.220496
0.172223
0.213627
0.316338
0.422406
0.503328
0.554558
0.582504
0.593523
-0.24772
-0.222477
-0.162048
-0.0911928
-0.0141869
0.0675543
0.151325
0.232071
0.30009
0.335524
0.299236
0.185551
0.0967164
0.132244
0.272258
0.422425
0.536781
0.607189
0.641008
0.648007
-0.25793
-0.231836
-0.169849
-0.0973866
-0.0187115
0.0650031
0.151203
0.234895
0.306347
0.344281
0.300928
0.149742
0.000922423
0.016737
0.206442
0.426777
0.587151
0.678616
0.720344
0.712859
-0.268423
-0.241489
-0.177754
-0.103766
-0.0235953
0.0620166
0.150636
0.237387
0.312774
0.35472
0.307026
0.112448
-0.130678
-0.166143
0.103732
0.42342
0.636774
0.747903
0.797257
0.802265
-0.279072
-0.251369
-0.185532
-0.110296
-0.028874
0.0585393
0.149547
0.239353
0.319091
0.366564
0.318592
0.0765992
-0.318019
-0.492939
-0.118742
0.388373
0.665077
0.782039
0.75101
0.653133
-0.289203
-0.260878
-0.192858
-0.117069
-0.0345857