/*--------------------------------*- C++ -*----------------------------------*\
| =========                 |                                                 |
| \\      /  F ield         | OpenFOAM: The Open Source CFD Toolbox           |
|  \\    /   O peration     | Version:  2306                                  |
|   \\  /    A nd           | Website:  www.openfoam.com                      |
|    \\/     M anipulation  |                                                 |
\*---------------------------------------------------------------------------*/
FoamFile
{
    version     2.0;
    format      ascii;
    arch        "LSB;label=32;scalar=64";
    class       surfaceScalarField;
    location    "4";
    object      phi;
}
// * * * * * * * * * * * * * * * * * * * * * * * * * * * * * * * * * * * * * //

dimensions      [0 3 -1 0 0 0 0];

oriented        oriented;

internalField   nonuniform List<scalar> 
17370
(
-0.0911805
0.0938525
0.286339
-0.0752419
0.0566973
0.36532
-0.0401593
0.0291526
0.427175
-0.0205069
0.0149749
0.504784
-0.010676
0.00787251
0.602206
-0.00566457
0.00423364
0.720488
-0.00308928
0.00238292
0.863613
-0.00179653
0.00135228
1.03589
-0.0009135
0.000558906
1.24286
-0.000228333
-1.96954e-05
1.49144
0.000282149
-0.000635476
1.49154
0.000991975
-0.00142444
1.24312
0.00184623
-0.00241052
1.0362
0.00307698
-0.0041795
0.864009
0.00559955
-0.00782278
0.721281
0.0106446
-0.0149609
0.603531
0.0205039
-0.029157
0.508092
0.040167
-0.0567046
0.432706
0.0752462
-0.093854
0.365383
0.0911846
0.197826
-0.128508
0.0923272
0.0361806
-0.365351
0.355343
-0.0659939
0.0760017
-0.447722
0.454063
-0.074651
0.06831
-0.521209
0.529129
-0.0610405
0.0531205
-0.612482
0.619972
-0.0458106
0.0383204
-0.726639
0.732502
-0.0320831
0.0262198
-0.867088
0.871319
-0.0215836
0.0173526
-1.03798
1.04106
-0.0140524
0.0109796
-1.24418
1.24662
-0.00847649
0.00603715
-1.49247
1.49466
-0.00393329
0.00174498
-1.49238
1.49433
0.00019394
-0.00214867
-1.24371
1.24577
0.00431839
-0.00638611
-1.0371
1.03961
0.00879634
-0.0112998
-0.865722
0.868999
0.0143212
-0.0175982
-0.72418
0.728795
0.0217929
-0.0264079
-0.608546
0.614752
0.0322786
-0.0384852
-0.514863
0.522162
0.0459572
-0.0532563
-0.440591
0.447853
0.0611622
-0.0684241
-0.375826
0.377154
0.0747446
-0.0760722
-0.257275
0.227433
0.0660406
-0.0361979
-0.0765484
0.0706997
0.00584868
-0.0307437
0.0363028
-0.374011
0.368452
-0.038434
0.0386608
-0.450572
0.450346
-0.0376083
0.0362111
-0.525423
0.52682
-0.034238
0.0320816
-0.618967
0.621124
-0.029289
0.0264162
-0.73317
0.736043
-0.0229796
0.0197185
-0.872954
0.876215
-0.0161174
0.0128536
-1.04282
1.04609
-0.00932217
0.00624763
-1.24845
1.25153
-0.0028484
-0.000427569
-1.49681
1.50009
0.00368557
-0.00707187
-1.49732
1.5007
0.0101213
-0.0135752
-1.24967
1.25312
0.0167601
-0.0203254
-1.04479
1.04835
0.0235368
-0.0268705
-0.875854
0.879188
0.0296694
-0.0324214
-0.737241
0.739993
0.0345132
-0.0364316
-0.623932
0.62585
0.0377708
-0.0387748
-0.532216
0.53322
0.0385156
-0.0363803
-0.454854
0.452719
0.0307997
-0.018673
-0.342004
0.329877
0.00586182
-0.0764987
0.0706369
-0.0692593
0.0694354
-0.000176035
-0.00744578
0.0132578
-0.361788
0.355976
-0.0191649
0.0235576
-0.447235
0.442842
-0.0267666
0.0283796
-0.52671
0.525097
-0.028802
0.0281445
-0.622517
0.623174
-0.0266276
0.0247827
-0.738393
0.740238
-0.022326
0.019783
-0.879071
0.881614
-0.0167097
0.0137331
-1.04924
1.05221
-0.0103226
0.00695465
-1.25489
1.25826
-0.00305281
-0.000762312
-1.50381
1.50763
0.00454014
-0.00834855
-1.50449
1.50829
0.0116436
-0.0150377
-1.25661
1.26001
0.0179831
-0.0210021
-1.05163
1.05465
0.0234558
-0.0257969
-0.881965
0.884306
0.0275462
-0.0289461
-0.74196
0.74336
0.0295285
-0.0290227
-0.626746
0.62624
0.0273349
-0.0240536
-0.531738
0.528457
0.0195936
-0.0135957
-0.447589
0.441592
0.00768589
-0.00216126
-0.320955
0.31543
-0.000140776
-0.0691714
0.0693122
-0.0695458
0.069356
0.00018988
-0.00311722
0.00594189
-0.351857
0.349032
-0.00938981
0.0123465
-0.438942
0.435985
-0.0150412
0.0169067
-0.523004
0.521138
-0.0182837
0.0189547
-0.622779
0.622108
-0.0190402
0.0186715
-0.741255
0.741624
-0.0177296
0.0163902
-0.883666
0.885006
-0.0144528
0.0123094
-1.05489
1.05704
-0.0095703
0.00651898
-1.26159
1.26464
-0.0027545
-0.000933711
-1.51149
1.51518
0.00459071
-0.00824726
-1.51209
1.51574
0.0112225
-0.0139696
-1.26324
1.26599
0.0161499
-0.0180112
-1.05724
1.0591
0.0193032
-0.0202121
-0.886011
0.88692
0.0205091
-0.02021
-0.743629
0.743329
0.0193367
-0.0177571
-0.624681
0.623102
0.0157183
-0.0128461
-0.524996
0.522124
0.00973736
-0.00614375
-0.436659
0.433065
0.00322055
-0.00105939
-0.312157
0.309996
0.000208
-0.0693961
0.0691881
-0.0691922
0.0691676
2.4669e-05
-0.00113037
0.00241216
-0.347087
0.345805
-0.00416311
0.00583267
-0.433753
0.432083
-0.00756827
0.00897795
-0.519497
0.518087
-0.0102606
0.01115
-0.621272
0.620383
-0.0117503
0.0118989
-0.74166
0.741511
-0.0116129
0.0109598
-0.885933
0.886586
-0.00980905
0.00836681
-1.05879
1.06023
-0.0063561
0.00422993
-1.26725
1.26937
-0.00153257
-0.001213
-1.51844
1.52119
0.00389777
-0.00650142
-1.51896
1.52156
0.00853277
-0.0106297
-1.26839
1.27049
0.0120406
-0.0129738
-1.06044
1.06137
0.0134029
-0.0134431
-0.88731
0.88735
0.0130966
-0.0123304
-0.742723
0.741957
0.0112997
-0.00987208
-0.621563
0.620136
0.00834179
-0.00648771
-0.519789
0.517935
0.00472259
-0.00287168
-0.430467
0.428616
0.00148331
-0.000495592
-0.308518
0.307531
8.96565e-05
-0.0689912
0.0689015
-0.0691692
0.0691356
3.35387e-05
-0.000549911
0.00109864
-0.344981
0.344432
-0.00189547
0.00270726
-0.430895
0.430083
-0.00361665
0.00441739
-0.516985
0.516184
-0.00522049
0.00584511
-0.619587
0.618963
-0.00635077
0.00655952
-0.741292
0.741083
-0.00650957
0.00619807
-0.887033
0.887345
-0.00553824
0.00462516
-1.06139
1.0623
-0.0032981
0.00193768
-1.27107
1.27243
-0.000217936
-0.00158205
-1.52343
1.52523
0.00336546
-0.00496399
-1.52359
1.52519
0.00613446
-0.00730448
-1.27215
1.27332
0.00801309
-0.00839344
-1.06198
1.06236
0.00843336
-0.00819881
-0.887198
0.886963
0.00775712
-0.00706943
-0.741187
0.740499
0.0062967
-0.00533979
-0.618934
0.617978
0.0044088
-0.00336899
-0.516536
0.515497
0.0024435
-0.00151513
-0.427319
0.426391
0.000826531
-0.000312609
-0.306844
0.30633
7.23709e-05
-0.068836
0.0687636
-0.0690876
0.0690546
3.30053e-05
-0.000379386
0.000658647
-0.344046
0.343767
-0.00102007
0.00138208
-0.42954
0.429178
-0.00179679
0.00217572
-0.515625
0.515246
-0.00257019
0.00288805
-0.618506
0.618188
-0.00315433
0.00327492
-0.740914
0.740793
-0.00325408
0.00307405
-0.887572
0.887752
-0.00267269
0.00210556
-1.06302
1.06358
-0.00126393
0.000367074
-1.27353
1.27443
0.000778511
-0.00196355
-1.52668
1.52787
0.00312559
-0.00417823
-1.52648
1.52754
0.00489042
-0.00529083
-1.27405
1.27445
0.00546638
-0.00558433
-1.06259
1.06271
0.00550973
-0.00524334
-0.886702
0.886436
0.00486814
-0.00435579
-0.739906
0.739393
0.00382619
-0.00320974
-0.617216
0.616599
0.00263684
-0.0020189
-0.514705
0.514088
0.00148175
-0.000947521
-0.425699
0.425164
0.000542932
-0.000222777
-0.305929
0.305609
5.72462e-05
-0.0686971
0.0686399
-0.0690434
0.0690491
-5.70287e-06
-0.000106221
0.000228794
-0.343571
0.343449
-0.000385588
0.000537639
-0.428938
0.428786
-0.00070792
0.000860442
-0.514998
0.514845
-0.00101484
0.00113251
-0.617982
0.617864
-0.00121865
0.00123718
-0.740724
0.740705
-0.00117321
0.00102038
-0.887909
0.888062
-0.000729697
0.00034117
-1.06404
1.06443
0.000224777
-0.000842266
-1.27517
1.27578
0.00162569
-0.00241152
-1.52883
1.52962
0.00314769
-0.00378453
-1.52837
1.52901
0.00416557
-0.00425046
-1.27465
1.27473
0.00421891
-0.00415818
-1.06273
1.06267
0.0039991
-0.00372172
-0.886165
0.885888
0.00340145
-0.00300307
-0.738946
0.738548
0.00261568
-0.0021829
-0.61609
0.615657
0.0017926
-0.00138093
-0.513592
0.51318
0.001028
-0.000676892
-0.424739
0.424388
0.000404517
-0.000177232
-0.305345
0.305117
4.95136e-05
-0.0685881
0.0685386
-0.0690665
0.069095
-2.85012e-05
7.70178e-05
-7.1292e-05
-0.34339
0.343384
4.8378e-05
-2.48553e-05
-0.428703
0.428679
2.33308e-06
1.13895e-05
-0.514767
0.514754
-1.38776e-05
-1.74603e-06
-0.617818
0.617833
4.7097e-05
-0.000124442
-0.740736
0.740813
0.000259302
-0.000438946
-0.888224
0.888403
0.000708146
-0.00102593
-1.06478
1.06509
0.00145495
-0.00190788
-1.27631
1.27676
0.00245658
-0.00297263
-1.53026
1.53077
0.00341706
-0.00375355
-1.52948
1.52981
0.00391262
-0.00388065
-1.27474
1.27471
0.00375603
-0.00357728
-1.06255
1.06237
0.00335323
-0.00305662
-0.885602
0.885306
0.0027556
-0.00240809
-0.738182
0.737834
0.00208623
-0.00173876
-0.615277
0.614929
0.00143288
-0.00111499
-0.512825
0.512508
0.000844069
-0.000572989
-0.424086
0.423814
0.000356649
-0.000165756
-0.304914
0.304723
4.96475e-05
-0.0684896
0.06844
-0.0691312
0.0691745
-4.33589e-05
0.000206853
-0.000275757
-0.343416
0.343484
0.00034961
-0.000421489
-0.428708
0.42878
0.000508994
-0.000599708
-0.514796
0.514887
0.000713942
-0.00083513
-0.617905
0.618026
0.000990694
-0.00115806
-0.740936
0.741104
0.00137463
-0.00160683
-0.888607
0.888839
0.00190339
-0.00221235
-1.0654
1.06571
0.0025898
-0.00295717
-1.27716
1.27753
0.0033643
-0.00370597
-1.53119
1.53153
0.00395336
-0.00407592
-1.53004
1.53016
0.00406706
-0.00395583
-1.27465
1.27454
0.00376469
-0.00350386
-1.06214
1.06188
0.00322791
-0.00290053
-0.884995
0.884668
0.00259008
-0.00224833
-0.737494
0.737152
0.00194197
-0.00161907
-0.6146
0.614277
0.00133952
-0.00105182
-0.512211
0.511923
0.000807628
-0.000561842
-0.423561
0.423316
0.000360906
-0.000175241
-0.304537
0.304352
5.51369e-05
-0.0683882
0.0683331
-0.0692263
0.0692872
-6.08912e-05
0.000324074
-0.000461709
-0.34359
0.343728
0.000615385
-0.000765464
-0.428891
0.429041
0.000944724
-0.00112395
-0.515022
0.515201
0.00133907
-0.00155439
-0.618194
0.61841
0.0018124
-0.00207004
-0.741315
0.741573
0.0023771
-0.00268044
-0.889104
0.889408
0.00303561
-0.00337611
-1.06603
1.06637
0.00375686
-0.00409524
-1.27788
1.27822
0.00442963
-0.00466564
-1.53181
1.53205
0.00478459
-0.00477028
-1.53021
1.53019
0.00464697
-0.00440973
-1.27436
1.27412
0.00414062
-0.00380153
-1.06158
1.06125
0.00346807
-0.00309064
-0.884319
0.883941
0.00274559
-0.00237526
-0.736801
0.73643
0.00204983
-0.00171118
-0.61395
0.613612
0.00142048
-0.00112342
-0.511634
0.511337
0.000872083
-0.000617999
-0.423069
0.422815
0.000406079
-0.000203181
-0.30416
0.303957
6.58646e-05
-0.0682732
0.0682074
-0.0693575
0.0694378
-8.02786e-05
0.000444889
-0.000646859
-0.343897
0.344099
0.000878895
-0.00110653
-0.42923
0.429458
0.00137685
-0.00164428
-0.515424
0.515692
0.00196121
-0.00227319
-0.618672
0.618984
0.0026398
-0.00299644
-0.741879
0.742235
0.00340936
-0.00380251
-0.889754
0.890147
0.00424425
-0.00464734
-1.06674
1.06714
0.0050725
-0.00542357
-1.27856
1.27891
0.00573454
-0.00591013
-1.53225
1.53243
0.00593822
-0.00581003
-1.53012
1.52999
0.00558139
-0.00523827
-1.27383
1.27349
0.00487203
-0.00443609
-1.06086
1.06042
0.00402274
-0.00356772
-0.883529
0.883074
0.0031597
-0.00272836
-0.736034
0.735602
0.00235335
-0.00196603
-0.613253
0.612865
0.00163533
-0.00129867
-0.511024
0.510688
0.00101429
-0.00072575
-0.422546
0.422258
0.000482085
-0.000244414
-0.303739
0.303501
8.0257e-05
-0.0681348
0.0680545
-0.0695294
0.0696342
-0.000104721
0.000589128
-0.000863036
-0.344336
0.34461
0.00118057
-0.00149255
-0.429726
0.430038
0.00186259
-0.00222774
-0.516006
0.516371
0.00265857
-0.00308007
-0.619349
0.61977
0.00357097
-0.00404372
-0.742647
0.74312
0.0045834
-0.00508917
-0.890593
0.891099
0.00564586
-0.00614093
-1.06759
1.06808
0.00664542
-0.00704231
-1.27928
1.27967
0.00736504
-0.00750872
-1.53258
1.53273
0.00746506
-0.00723216
-1.52981
1.52958
0.00689434
-0.00642975
-1.27309
1.27262
0.00595118
-0.00539535
-1.05993
1.05938
0.00487771
-0.00431518
-0.882569
0.882006
0.00381565
-0.00329154
-0.735128
0.734604
0.00283808
-0.00237215
-0.612443
0.611977
0.00197585
-0.00157308
-0.510321
0.509919
0.00123264
-0.000886312
-0.421943
0.421597
0.000592128
-0.000302383
-0.30324
0.30295
0.000100086
-0.067965
0.0678649
-0.0697533
0.069889
-0.000135713
0.00076829
-0.00112882
-0.344925
0.345285
0.00154824
-0.00196056
-0.430398
0.43081
0.00244911
-0.00293018
-0.516792
0.517273
0.00349636
-0.00404876
-0.620254
0.620806
0.00468998
-0.00530434
-0.74366
0.744274
0.00600149
-0.0066495
-0.891671
0.892319
0.00735521
-0.00797407
-1.06863
1.06925
0.00859245
-0.00906455
-1.2801
1.28058
0.00942707
-0.00955667
-1.53286
1.53299
0.00944972
-0.00910629
-1.52929
1.52895
0.00864617
-0.00803374
-1.27209
1.27148
0.00741568
-0.00670656
-1.05875
1.05804
0.00605266
-0.00534727
-0.881377
0.880672
0.00472437
-0.00407328
-0.734021
0.73337
0.0035117
-0.00293585
-0.61146
0.610884
0.00244671
-0.00195007
-0.509472
0.508975
0.00153036
-0.0011033
-0.421214
0.420787
0.000739489
-0.000379189
-0.302627
0.302267
0.000125934
-0.0677525
0.0676265
-0.0700434
0.070219
-0.000175574
0.000995423
-0.00146403
-0.345697
0.346165
0.00200975
-0.0025462
-0.431281
0.431817
0.00318168
-0.00380702
-0.517822
0.518447
0.00454218
-0.005258
-0.621436
0.622152
0.00608683
-0.00687862
-0.744972
0.745764
0.00777388
-0.00860201
-0.893052
0.89388
0.00949833
-0.0102778
-1.06995
1.07073
0.0110477
-0.0116243
-1.2811
1.28167
0.0120497
-0.0121757
-1.53312
1.53325
0.0120003
-0.0115295
-1.52854
1.52807
0.0109205
-0.010126
-1.27078
1.26998
0.00933249
-0.00842854
-1.05724
1.05633
0.00759979
-0.00670838
-0.879879
0.878988
0.00592375
-0.00510542
-0.732641
0.731823
0.00440125
-0.00367994
-0.61024
0.609519
0.00306755
-0.00244602
-0.508421
0.5078
0.00192114
-0.00138672
-0.42031
0.419775
0.0009305
-0.000477466
-0.301863
0.30141
0.000158504
-0.0674855
0.067327
-0.0704191
0.0706473
-0.000228131
0.00129021
-0.00189672
-0.346698
0.347305
0.00260299
-0.00329715
-0.432428
0.433122
0.00411885
-0.00492669
-0.519158
0.519966
0.00587546
-0.00679832
-0.622964
0.623887
0.0078653
-0.00888266
-0.746662
0.747679
0.0100295
-0.0110868
-0.894816
0.895873
0.0122256
-0.01321
-1.0716
1.07259
0.0141733
-0.014885
-1.28231
1.28303
0.0153941
-0.0155196
-1.53337
1.5335
0.0152627
-0.0146339
-1.52753
1.5269
0.0138399
-0.0128152
-1.26908
1.26806
0.0117984
-0.0106465
-1.05531
1.05416
0.00959292
-0.00846358
-0.877985
0.876856
0.00747073
-0.00643695
-0.730903
0.729869
0.00554792
-0.00463796
-0.608709
0.607799
0.00386589
-0.00308286
-0.507102
0.506319
0.00242181
-0.00174855
-0.419176
0.418502
0.00117336
-0.000601937
-0.300902
0.30033
0.000199715
-0.0671492
0.0669495
-0.0709075
0.0712049
-0.000297405
0.00167533
-0.00246024
-0.347995
0.34878
0.00337365
-0.00427127
-0.433911
0.434809
0.00533301
-0.00637614
-0.520884
0.521927
0.00759984
-0.00878831
-0.624935
0.626123
0.0101599
-0.0114646
-0.748831
0.750136
0.0129318
-0.0142793
-0.897067
0.898415
0.0157248
-0.0169668
-1.07369
1.07494
0.0181725
-0.0190514
-1.28382
1.2847
0.0196623
-0.0197828
-1.53362
1.53374
0.019419
-0.0185873
-1.52618
1.52534
0.0175566
-0.0162381
-1.26689
1.26557
0.0149381
-0.0134697
-1.05286
1.05139
0.012131
-0.0106981
-0.875583
0.87415
0.00944049
-0.00813229
-0.728706
0.727398
0.00700787
-0.00585765
-0.606776
0.605626
0.00488213
-0.00389287
-0.505439
0.50445
0.00305763
-0.00220695
-0.417745
0.416895
0.00148034
-0.000758858
-0.299688
0.298967
0.000251521
-0.0667255
0.0664739
-0.0715454
0.0719356
-0.000390214
0.00218496
-0.00320349
-0.349673
0.350692
0.00438741
-0.00555016
-0.43583
0.436992
0.00692381
-0.0082718
-0.523112
0.52446
0.00985101
-0.0113823
-0.627472
0.629003
0.0131458
-0.0148192
-0.751613
0.753287
0.0166944
-0.0184102
-0.899935
0.901651
0.0202407
-0.0218032
-1.07633
1.07789
0.0233057
-0.0243846
-1.28567
1.28675
0.0251087
-0.025209
-1.53385
1.53395
0.0246985
-0.0236015
-1.52439
1.52329
0.0222661
-0.0205736
-1.26408
1.26239
0.0189126
-0.0170435
-1.04974
1.04787
0.0153431
-0.0135257
-0.872537
0.87072
0.0119327
-0.0102763
-0.725926
0.72427
0.00885378
-0.0073991
-0.604332
0.602878
0.00616588
-0.00491561
-0.503338
0.502088
0.00386007
-0.00278516
-0.415939
0.414864
0.00186717
-0.00095613
-0.298156
0.297245
0.000316302
-0.0661916
0.0658753
-0.0723849
0.0729022
-0.000517286
0.00287165
-0.00419987
-0.351853
0.353182
0.00574067
-0.00725264
-0.438317
0.439829
0.00903587
-0.010783
-0.525994
0.527741
0.0128257
-0.0148019
-0.630743
0.632719
0.0170713
-0.0192169
-0.755182
0.757327
0.0216113
-0.0237902
-0.903585
0.905764
0.0260993
-0.0280533
-1.07964
1.08159
0.0299095
-0.0312166
-1.28794
1.28925
0.0320545
-0.0321029
-1.53403
1.53408
0.0313856
-0.0299385
-1.52203
1.52058
0.0282116
-0.0260424
-1.26047
1.2583
0.0239261
-0.021551
-1.04576
1.04338
0.0193946
-0.0170929
-0.868674
0.866372
0.0150767
-0.0129818
-0.722407
0.720312
0.0111833
-0.00934445
-0.601242
0.599403
0.00778562
-0.00620507
-0.500682
0.499101
0.00487075
-0.00351202
-0.413655
0.412296
0.0023523
-0.00120271
-0.296222
0.295072
0.000397045
-0.0655215
0.0651245
-0.0735021
0.0741963
-0.000694268
0.00381262
-0.00555975
-0.354699
0.356446
0.00758055
-0.00955967
-0.441555
0.443534
0.0118867
-0.0141604
-0.529734
0.532008
0.0168107
-0.0193663
-0.634967
0.637523
0.0222891
-0.0250396
-0.759758
0.762509
0.0280904
-0.0308461
-0.908217
0.910972
0.033739
-0.0361578
-1.08377
1.08619
0.0384172
-0.0399669
-1.29068
1.29222
0.040895
-0.0408327
-1.53409
1.53402
0.0398208
-0.0379116
-1.51892
1.51701
0.0356814
-0.0329104
-1.25585
1.25308
0.0302206
-0.0272132
-1.04071
1.0377
0.0244875
-0.0215813
-0.863784
0.860878
0.0190363
-0.0163923
-0.717957
0.715313
0.0141217
-0.0118
-0.597336
0.595014
0.00983125
-0.00783468
-0.497325
0.495328
0.0061486
-0.00443124
-0.41077
0.409052
0.00296564
-0.00151421
-0.293782
0.29233
0.000498842
-0.0646797
0.0641809
-0.0750119
0.0759656
-0.000953759
0.00515661
-0.00749084
-0.35844
0.360774
0.0101729
-0.0127851
-0.445797
0.448409
0.0158369
-0.0188056
-0.534615
0.537583
0.0222511
-0.0255599
-0.640442
0.64375
0.0293251
-0.0328446
-0.765626
0.769145
0.0367144
-0.0401724
-0.914063
0.917521
0.0437537
-0.0466976
-1.08886
1.09181
0.0493835
-0.0511553
-1.29389
1.29566
0.0521065
-0.0518323
-1.53387
1.5336
0.0504004
-0.0478838
-1.51482
1.5123
0.0450173
-0.0414957
-1.24995
1.24643
0.0380994
-0.0343122
-1.03432
1.03054
0.0308843
-0.02723
-0.857615
0.853961
0.0240299
-0.0207035
-0.712343
0.709017
0.0178457
-0.0149204
-0.592405
0.58948
0.0124371
-0.00991507
-0.493086
0.490564
0.00778162
-0.00560548
-0.407125
0.404949
0.00374773
-0.00191038
-0.2907
0.288863
0.000628281
-0.0636218
0.0629935
-0.0770954
0.0784672
-0.0013718
0.00721971
-0.0104167
-0.363407
0.366604
0.0140267
-0.0174926
-0.451413
0.454879
0.0214971
-0.0253726
-0.541035
0.544911
0.029851
-0.0341335
-0.647561
0.651844
0.038974
-0.0434559
-0.77313
0.777612
0.0483202
-0.0525979
-0.92137
0.925648
0.0569408
-0.0604241
-1.09502
1.0985
0.0634951
-0.0654045
-1.29752
1.29943
0.0662396
-0.0655925
-1.53316
1.53251
0.0635679
-0.0602643
-1.50942
1.50611
0.056605
-0.0521705
-1.24247
1.23804
0.047922
-0.0431985
-1.0263
1.02158
0.0389258
-0.0343681
-0.849867
0.845309
0.0303714
-0.0262105
-0.705279
0.701118
0.0226291
-0.0189564
-0.586187
0.582514
0.0158307
-0.0126455
-0.487731
0.484546
0.00993903
-0.00716563
-0.402517
0.399744
0.00479046
-0.00244129
-0.286806
0.284457
0.000804365
-0.0622898
0.0614855
-0.0800569
0.0821986
-0.00214177
0.0107201
-0.0151965
-0.370123
0.374599
0.0200666
-0.0246243
-0.45899
0.463548
0.0298305
-0.0348687
-0.549581
0.55462
0.0406841
-0.0462209
-0.656839
0.662376
0.0524203
-0.0580715
-0.782649
0.7883
0.0640786
-0.0692341
-0.930324
0.93548
0.074319
-0.078255
-1.1022
1.10614
0.0815522
-0.0834094
-1.30132
1.30318
0.0838875
-0.0826289
-1.53159
1.53033
0.0797847
-0.075484
-1.50233
1.49803
0.0708662
-0.0653575
-1.23308
1.22757
0.0601207
-0.0543152
-1.01632
1.01051
0.0490667
-0.0434599
-0.840214
0.834607
0.0385333
-0.0333893
-0.696425
0.691281
0.0289493
-0.0243816
-0.578343
0.573775
0.0204765
-0.0164703
-0.480951
0.476944
0.0130296
-0.00945553
-0.396681
0.393107
0.00634829
-0.00324779
-0.281872
0.278772
0.00108056
-0.0606006
0.0595201
-0.084488
0.088226
-0.00373805
0.0172788
-0.0235319
-0.37956
0.385813
0.0299517
-0.0358459
-0.469485
0.475379
0.0425904
-0.0491638
-0.561048
0.567621
0.0567508
-0.063877
-0.668827
0.675954
0.0716801
-0.078593
-0.79445
0.801362
0.0857019
-0.0915905
-0.940881
0.94677
0.0971691
-0.101269
-1.11009
1.11419
0.104432
-0.10589
-1.30482
1.30627
0.10563
-0.103429
-1.52859
1.52639
0.0994867
-0.0939602
-1.49312
1.48759
0.0882269
-0.0815146
-1.22145
1.21474
0.0751957
-0.0682213
-1.0041
0.997125
0.0619211
-0.0551833
-0.828357
0.821619
0.0492466
-0.0430256
-0.68543
0.679209
0.0376331
-0.0320642
-0.568464
0.562895
0.0272719
-0.0223008
-0.472305
0.467334
0.0179519
-0.0132957
-0.389207
0.38455
0.00906738
-0.00470878
-0.275569
0.27121
0.00159178
-0.0584281
0.0568363
-0.0917532
0.0992444
-0.00749119
0.0314404
-0.0400631
-0.393645
0.402268
0.0481821
-0.0557109
-0.484242
0.491771
0.0645185
-0.0730549
-0.576198
0.584734
0.0826727
-0.0913615
-0.683809
0.692498
0.100467
-0.108177
-0.80837
0.81608
0.115763
-0.121751
-0.952495
0.958483
0.12711
-0.130723
-1.11791
1.12152
0.133075
-0.133545
-1.30715
1.30762
0.131978
-0.128377
-1.52343
1.51983
0.122991
-0.115997
-1.48128
1.47429
0.109009
-0.101016
-1.20733
1.19934
0.0935901
-0.0854594
-0.989493
0.981363
0.0781381
-0.0703108
-0.814156
0.806329
0.0634041
-0.0561458
-0.67208
0.664821
0.0498304
-0.0432736
-0.556194
0.549638
0.0375875
-0.0316361
-0.461259
0.455307
0.0262974
-0.0201713
-0.379425
0.373299
0.0140372
-0.00725049
-0.267143
0.260356
0.00237587
-0.0555012
0.0531253
-0.107207
0.109562
-0.00235507
0.0182462
-0.0264465
-0.414888
0.423088
0.0348646
-0.0432714
-0.504052
0.512458
0.0533547
-0.0635709
-0.594775
0.604991
0.0746048
-0.0843787
-0.700961
0.710734
0.0951849
-0.104697
-0.823138
0.832649
0.114527
-0.122919
-0.963671
0.972064
0.131224
-0.137838
-1.1242
1.13081
0.143698
-0.14752
-1.30705
1.31087
0.149554
-0.148973
-1.51514
1.51456
0.145661
-0.139997
-1.46634
1.46067
0.133309
-0.124756
-1.19061
1.18206
0.116344
-0.106171
-0.972587
0.962413
0.0967226
-0.0861822
-0.797816
0.787276
0.0766145
-0.066301
-0.656607
0.646293
0.0568899
-0.0471742
-0.541701
0.531985
0.0389303
-0.0300222
-0.447713
0.438805
0.0221789
-0.0137653
-0.366491
0.358078
0.00675506
-0.00153598
-0.254294
0.249075
-0.000467377
-0.0507828
0.0512502
-0.116867
0.111247
0.00561988
-0.00481034
-0.000686305
-0.435343
0.440839
0.00850879
-0.0161393
-0.523864
0.531494
0.0255044
-0.0342041
-0.615128
0.623828
0.0439579
-0.0528051
-0.720486
0.729333
0.0622021
-0.0706802
-0.841712
0.85019
0.0794522
-0.0866694
-0.980183
0.9874
0.0940001
-0.0995477
-1.13734
1.14288
0.104426
-0.107371
-1.31459
1.31753
0.108366
-0.107138
-1.51349
1.51226
0.103433
-0.0976816
-1.45463
1.44888
0.0909994
-0.0827889
-1.17351
1.1653
0.0749354
-0.0659672
-0.952511
0.943543
0.0575859
-0.0482708
-0.776773
0.767458
0.039941
-0.0313758
-0.635288
0.626723
0.0240932
-0.0166577
-0.520865
0.513429
0.0104649
-0.00454843
-0.427453
0.421536
-7.95992e-05
0.00409816
-0.347394
0.343375
-0.00599248
0.0053966
-0.240676
0.241272
-0.0027851
-0.0489399
0.051725
-0.113094
0.108866
0.00422842
-0.00835548
0.00551755
-0.450412
0.45325
-0.000535289
-0.00524507
-0.540805
0.546585
0.0124122
-0.0194395
-0.632472
0.6395
0.0273715
-0.0346443
-0.737565
0.744838
0.0426055
-0.0496747
-0.85789
0.864959
0.0568041
-0.063019
-0.994368
1.00058
0.0691818
-0.0739473
-1.14805
1.15281
0.0777718
-0.0798791
-1.31998
1.32209
0.0805107
-0.0790225
-1.51069
1.5092
0.0753866
-0.0700897
-1.44305
1.43775
0.0641971
-0.0573428
-1.15762
1.15076
0.0506224
-0.043365
-0.935054
0.927796
0.0367652
-0.0296221
-0.759285
0.752142
0.0235819
-0.0174174
-0.618742
0.612578
0.0124144
-0.00731465
-0.50559
0.500491
0.00346601
-8.9085e-05
-0.413902
0.410525
-0.00233581
0.00424519
-0.336413
0.334504
-0.00483213
0.00357541
-0.235271
0.236528
-0.00178882
-0.050188
0.0519768
-0.110314
0.107063
0.00325088
-0.00791122
0.00648476
-0.4607
0.462127
-0.00304621
-0.00150968
-0.553381
0.557937
0.00730653
-0.0127574
-0.646041
0.651492
0.0190883
-0.0249423
-0.751663
0.757517
0.0313561
-0.0370926
-0.871436
0.877172
0.0432528
-0.0482768
-1.00629
1.01131
0.0534638
-0.0570505
-1.15715
1.16074
0.0601876
-0.0618302
-1.32407
1.32571
0.062038
-0.0602749
-1.50757
1.5058
0.0570579
-0.0525391
-1.43245
1.42793
0.0475757
-0.0416341
-1.14432
1.13838
0.0362107
-0.0304845
-0.920984
0.915258
0.0252196
-0.0198942
-0.745762
0.740437
0.0150991
-0.0104401
-0.606592
0.601933
0.00662644
-0.00302858
-0.495095
0.491498
0.000379495
0.00198263
-0.405078
0.402716
-0.00363827
0.00447298
-0.32924
0.328405
-0.00468359
0.00331146
-0.231444
0.232816
-0.00158556
-0.050283
0.0518685
-0.109181
0.106802
0.00237908
-0.00634024
0.00567906
-0.468195
0.468856
-0.00273221
-0.000811403
-0.563383
0.566926
0.00526233
-0.0099248
-0.656821
0.661483
0.0149874
-0.019925
-0.76288
0.767817
0.0252274
-0.0299856
-0.882423
0.887181
0.0350308
-0.039308
-1.01611
1.02039
0.0434786
-0.0466315
-1.16413
1.16729
0.0491315
-0.050333
-1.32703
1.32824
0.0502479
-0.0484454
-1.50404
1.50224
0.0454631
-0.041279
-1.42315
1.41896
0.0369831
-0.0320719
-1.13286
1.12795
0.0275772
-0.0227638
-0.909773
0.904959
0.0185597
-0.0142267
-0.735352
0.731019
0.0105256
-0.0068243
-0.597443
0.593742
0.0038781
-0.00112279
-0.487336
0.484581
-0.00104411
0.00282976
-0.398643
0.396858
-0.00378343
0.00441837
-0.324235
0.3236
-0.00449641
0.00295595
-0.228495
0.230035
-0.00142561
-0.0503793
0.0518049
-0.109084
0.107019
0.00206442
-0.00523986
0.00441627
-0.474167
0.474991
-0.00217281
-0.00100501
-0.570998
0.574176
0.00518526
-0.00905277
-0.665641
0.669509
0.0133013
-0.0174837
-0.772175
0.776357
0.0220662
-0.0261928
-0.891595
0.895721
0.0306719
-0.0342595
-1.02433
1.02792
0.0378351
-0.040496
-1.17008
1.17275
0.042465
-0.0432544
-1.32913
1.32992
0.0428177
-0.0412065
-1.50037
1.49876
0.0382397
-0.0344746
-1.41458
1.41081
0.0305683
-0.0261898
-1.12317
1.11879
0.0224736
-0.0182292
-0.90037
0.896126
0.0146161
-0.0110712
-0.726909
0.723364
0.00799962
-0.00494252
-0.590267
0.58721
0.00248483
-3.29564e-05
-0.48134
0.478888
-0.00156991
0.00297347
-0.393608
0.392205
-0.00393147
0.00431916
-0.320081
0.319694
-0.00415398
0.00279183
-0.226252
0.227614
-0.00130356
-0.0504645
0.0517681
-0.109321
0.107684
0.00163665
-0.00402221
0.00320702
-0.479552
0.480367
-0.000846463
-0.001847
-0.577931
0.580624
0.00568637
-0.00919853
-0.673236
0.676748
0.0132873
-0.0168799
-0.780344
0.783937
0.0208809
-0.024487
-0.899828
0.903434
0.0286823
-0.0318393
-1.03148
1.03464
0.0348316
-0.0371778
-1.17512
1.17747
0.0390925
-0.0395285
-1.33059
1.33103
0.0388623
-0.0369473
-1.49667
1.49475
0.0341676
-0.0302284
-1.40688
1.40294
0.0266697
-0.0227531
-1.11443
1.11051
0.019269
-0.0156526
-0.892135
0.888518
0.0124421
-0.00918103
-0.71978
0.716519
0.00673345
-0.00401449
-0.584179
0.58146
0.0017748
0.000203834
-0.476193
0.474215
-0.00172537
0.00310286
-0.389595
0.388217
-0.0038343
0.00410056
-0.316854
0.316588
-0.00384056
0.00259347
-0.224434
0.225681
-0.00123493
-0.0505793
0.0518142
-0.110014
0.108675
0.00133909
-0.00293782
0.0021048
-0.484514
0.485347
0.00046349
-0.00318013
-0.584216
0.586933
0.00676284
-0.00997805
-0.680183
0.683398
0.01356
-0.0171237
-0.787651
0.791215
0.020878
-0.0246751
-0.906899
0.910696
0.0282258
-0.031193
-1.03783
1.0408
0.0342205
-0.0361956
-1.17959
1.18156
0.0374199
-0.0379258
-1.33117
1.33168
0.0369815
-0.0348598
-1.49264
1.49052
0.0317737
-0.0279649
-1.39905
1.39524
0.02443
-0.0206317
-1.10634
1.10254
0.0174063
-0.01403
-0.884906
0.88153
0.0111122
-0.00831888
-0.71345
0.710657
0.00585911
-0.00350847
-0.578756
0.576406
0.00162191
0.000302429
-0.471927
0.470003
-0.00176684
0.00279918
-0.385933
0.384901
-0.00351586
0.00382871
-0.314058
0.313745
-0.00361298
0.00243049
-0.222979
0.224161
-0.00118474
-0.0508266
0.0520114
-0.111136
0.109948
0.00118724
-0.00177053
0.000671114
-0.489374
0.490473
0.00188249
-0.00467553
-0.590248
0.593041
0.00803554
-0.0112796
-0.686848
0.690092
0.0148744
-0.0182151
-0.794746
0.798087
0.0222148
-0.0253782
-0.914012
0.917175
0.0289634
-0.0317677
-1.04386
1.04667
0.0346226
-0.0366272
-1.18338
1.18538
0.0378291
-0.0377406
-1.33169
1.3316
0.036532
-0.0341154
-1.48796
1.48554
0.0309354
-0.0267717
-1.39105
1.38689
0.023165
-0.0193376
-1.09876
1.09493
0.0162176
-0.0129401
-0.878022
0.874745
0.0102926
-0.00760642
-0.70778
0.705094
0.00536004
-0.00316556
-0.57402
0.571825
0.00134082
0.00021553
-0.467941
0.466384
-0.00162092
0.00261826
-0.382716
0.381719
-0.00338644
0.00363214
-0.311528
0.311282
-0.0033591
0.0023715
-0.221709
0.222697
-0.00109721
-0.051158
0.0522552
-0.112391
0.111558
0.000832336
-0.000787452
-0.000909606
-0.494342
0.496039
0.00333699
-0.00619172
-0.595867
0.598721
0.0093549
-0.0126422
-0.69334
0.696627
0.0162704
-0.0199022
-0.801453
0.805084
0.0235053
-0.026941
-0.920585
0.92402
0.030585
-0.0332321
-1.04984
1.05249
0.0361273
-0.0379525
-1.18706
1.18889
0.0389101
-0.0388766
-1.33158
1.33155
0.0374201
-0.0344366
-1.48267
1.47969
0.0306044
-0.0262412
-1.38248
1.37811
0.0225028
-0.0185043
-1.09084
1.08685
0.0152761
-0.0122666
-0.871451
0.868442
0.0094253
-0.00705696
-0.702313
0.699945
0.0049973
-0.002909
-0.56982
0.567732
0.00137768
0.000157508
-0.464357
0.462821
-0.00137495
0.00248934
-0.380003
0.378888
-0.00310732
0.00335789
-0.309305
0.309055
-0.00324983
0.00231351
-0.220675
0.221612
-0.00108164
-0.0515023
0.0525839
-0.113979
0.113346
0.000632411
2.65622e-05
-0.00173313
-0.499541
0.501248
0.00479826
-0.00747232
-0.601806
0.60448
0.0109149
-0.0142449
-0.699711
0.703041
0.0179341
-0.0213894
-0.80854
0.811995
0.025298
-0.0285973
-0.927525
0.930824
0.0323238
-0.0354396
-1.05553
1.05865
0.0379997
-0.0400203
-1.19061
1.19263
0.0410813
-0.0406793
-1.33107
1.33067
0.0388121
-0.0355785
-1.4763
1.47307
0.0310642
-0.0262231
-1.37309
1.36825
0.0219144
-0.0177159
-1.08267
1.07847
0.0145111
-0.0114247
-0.865109
0.862023
0.00884659
-0.00657512
-0.697288
0.695016
0.00469094
-0.00272986
-0.56572
0.563759
0.00123621
7.76679e-05
-0.46114
0.459826
-0.00134013
0.00234195
-0.377354
0.376352
-0.00298058
0.00326522
-0.307236
0.306951
-0.00308781
0.00218352
-0.219937
0.220841
-0.00101642
-0.0519781
0.0529945
-0.115789
0.115436
0.000352547
0.00122052
-0.00305725
-0.504948
0.506785
0.00595771
-0.00890187
-0.607618
0.610562
0.0123975
-0.0157438
-0.706207
0.709553
0.0197078