0.490941 	1.1916 	0.0061209 	3.00279 	0
0.561075 	1.1916 	0.0061209 	3.00279 	0
0.63121 	1.1916 	0.0061209 	3.00279 	0
0.701344 	1.1916 	0.0061209 	3.00279 	0
0.771478 	1.1916 	0.0061209 	3.00279 	0
0.841613 	1.1916 	0.0061209 	3.00279 	0
0.911747 	1.1916 	0.0061209 	3.00279 	0
0.981881 	1.1916 	0.0061209 	3.00279 	0
1.05202 	1.1916 	0.0061209 	3.00279 	0
1.12215 	1.1916 	0.0061209 	3.00279 	0
1.19228 	1.1916 	0.0061209 	3.00279 	0
1.26242 	1.16546 	0.0115133 	3.008 	0
1.33255 	1.16546 	0.0115133 	3.008 	0
1.40269 	1.16546 	0.0115133 	3.008 	0
1.47282 	1.16546 	0.0115133 	3.008 	0
1.54296 	1.16546 	0.0115133 	3.008 	0
1.61309 	1.16546 	0.0115133 	3.008 	0
1.68323 	1.16546 	0.0115133 	3.008 	0
1.75336 	1.16546 	0.0115133 	3.008 	0
1.82349 	1.11559 	0.0148819 	3.02381 	4.28233e-19
1.89363 	1.11559 	0.0148819 	3.02381 	4.28233e-19
1.96376 	1.11559 	0.0148819 	3.02381 	4.28233e-19
2.0339 	1.11559 	0.0148819 	3.02381 	4.28233e-19
2.10403 	1.11559 	0.0148819 	3.02381 	4.28233e-19
2.17417 	1.11559 	0.0148819 	3.02381 	4.28233e-19
2.2443 	1.11559 	0.0148819 	3.02381 	4.28233e-19
2.31443 	1.11559 	0.0148819 	3.02381 	4.28233e-19
2.38457 	1.11559 	0.0148819 	3.02381 	4.28233e-19
2.4547 	1.11559 	0.0148819 	3.02381 	4.28233e-19
2.52484 	1.11559 	0.0148819 	3.02381 	4.28233e-19
2.59497 	1.08101 	0.00739236 	3.03691 	-6.80317e-19
2.66511 	1.08101 	0.00739236 	3.03691 	-6.80317e-19
2.73524 	1.08101 	0.00739236 	3.03691 	-6.80317e-19
2.80538 	1.08101 	0.00739236 	3.03691 	-6.80317e-19
2.87551 	1.08101 	0.00739236 	3.03691 	-6.80317e-19
2.94564 	1.08101 	0.00739236 	3.03691 	-6.80317e-19
3.01578 	1.08101 	0.00739236 	3.03691 	-6.80317e-19
3.08591 	1.08101 	0.00739236 	3.03691 	-6.80317e-19
3.15605 	1.08101 	0.00739236 	3.03691 	-6.80317e-19
3.22618 	1.08101 	0.00739236 	3.03691 	-6.80317e-19
3.29632 	1.04875 	0.0201055 	3.04336 	6.86037e-19
3.36645 	1.04875 	0.0201055 	3.04336 	6.86037e-19
3.43659 	1.04875 	0.0201055 	3.04336 	6.86037e-19
3.50672 	1.04875 	0.0201055 	3.04336 	6.86037e-19
3.57685 	1.04875 	0.0201055 	3.04336 	6.86037e-19
3.64699 	1.04875 	0.0201055 	3.04336 	6.86037e-19
3.71712 	1.04875 	0.0201055 	3.04336 	6.86037e-19
3.78726 	1.04875 	0.0201055 	3.04336 	6.86037e-19
3.85739 	1.04875 	0.0201055 	3.04336 	6.86037e-19
3.92753 	1.04875 	0.0201055 	3.04336 	6.86037e-19
3.99766 	1.04875 	0.0201055 	3.04336 	6.86037e-19
4.06779 	1.03056 	0.00366425 	3.05027 	-1.93233e-20
4.13793 	1.03056 	0.00366425 	3.05027 	-1.93233e-20
4.20806 	1.03056 	0.00366425 	3.05027 	-1.93233e-20
4.2782 	1.03056 	0.00366425 	3.05027 	-1.93233e-20
4.34833 	1.03056 	0.00366425 	3.05027 	-1.93233e-20
4.41847 	1.03056 	0.00366425 	3.05027 	-1.93233e-20
4.4886 	1.00559 	0.016517 	3.05777 	0
4.55874 	1.00559 	0.016517 	3.05777 	0
4.62887 	1.00559 	0.016517 	3.05777 	0
4.699 	1.00559 	0.016517 	3.05777 	0
4.76914 	1.00559 	0.016517 	3.05777 	0
4.83927 	1.00559 	0.016517 	3.05777 	0
4.90941 	1.00559 	0.016517 	3.05777 	0
4.97954 	1.00559 	0.016517 	3.05777 	0
5.04968 	1.00559 	0.016517 	3.05777 	0
5.11981 	1.00559 	0.016517 	3.05777 	0
5.18994 	0.983105 	0.00574616 	3.06483 	-9.15512e-21
5.26008 	0.983105 	0.00574616 	3.06483 	-9.15512e-21
5.33021 	0.983105 	0.00574616 	3.06483 	-9.15512e-21
5.40035 	0.983105 	0.00574616 	3.06483 	-9.15512e-21
5.47048 	0.983105 	0.00574616 	3.06483 	-9.15512e-21
5.54062 	0.983105 	0.00574616 	3.06483 	-9.15512e-21
5.61075 	0.983105 	0.00574616 	3.06483 	-9.15512e-21
5.68089 	0.954386 	0.0113505 	3.07456 	0
5.75102 	0.954386 	0.0113505 	3.07456 	0
5.82115 	0.954386 	0.0113505 	3.07456 	0
5.89129 	0.954386 	0.0113505 	3.07456 	0
5.96142 	0.954386 	0.0113505 	3.07456 	0
6.03156 	0.954386 	0.0113505 	3.07456 	0
6.10169 	0.954386 	0.0113505 	3.07456 	0
6.17183 	0.954386 	0.0113505 	3.07456 	0
6.24196 	0.954386 	0.0113505 	3.07456 	0
6.3121 	0.925678 	0.00701883 	3.08211 	0
6.38223 	0.925678 	0.00701883 	3.08211 	0
6.45236 	0.925678 	0.00701883 	3.08211 	0
6.5225 	0.925678 	0.00701883 	3.08211 	0
6.59263 	0.925678 	0.00701883 	3.08211 	0
6.66277 	0.925678 	0.00701883 	3.08211 	0
6.7329 	0.925678 	0.00701883 	3.08211 	0
6.80304 	0.925678 	0.00701883 	3.08211 	0
6.87317 	0.89912 	0.00626973 	3.09176 	3.09026e-19
6.9433 	0.89912 	0.00626973 	3.09176 	3.09026e-19
7.01344 	0.89912 	0.00626973 	3.09176 	3.09026e-19
7.08357 	0.89912 	0.00626973 	3.09176 	3.09026e-19
7.15371 	0.89912 	0.00626973 	3.09176 	3.09026e-19
7.22384 	0.89912 	0.00626973 	3.09176 	3.09026e-19
7.29398 	0.89912 	0.00626973 	3.09176 	3.09026e-19
7.36411 	0.89912 	0.00626973 	3.09176 	3.09026e-19
7.43425 	0.89912 	0.00626973 	3.09176 	3.09026e-19
7.50438 	0.868894 	0.00847746 	3.0996 	-2.30227e-18
7.57451 	0.868894 	0.00847746 	3.0996 	-2.30227e-18
7.64465 	0.868894 	0.00847746 	3.0996 	-2.30227e-18
7.71478 	0.868894 	0.00847746 	3.0996 	-2.30227e-18
7.78492 	0.868894 	0.00847746 	3.0996 	-2.30227e-18
7.85505 	0.868894 	0.00847746 	3.0996 	-2.30227e-18
7.92519 	0.868894 	0.00847746 	3.0996 	-2.30227e-18
7.99532 	0.868894 	0.00847746 	3.0996 	-2.30227e-18
8.06545 	0.847711 	0.00175058 	3.10511 	2.31617e-18
8.13559 	0.847711 	0.00175058 	3.10511 	2.31617e-18
8.20572 	0.847711 	0.00175058 	3.10511 	2.31617e-18
8.27586 	0.847711 	0.00175058 	3.10511 	2.31617e-18
8.34599 	0.847711 	0.00175058 	3.10511 	2.31617e-18
8.41613 	0.847711 	0.00175058 	3.10511 	2.31617e-18
8.48626 	0.847711 	0.00175058 	3.10511 	2.31617e-18
8.5564 	0.847711 	0.00175058 	3.10511 	2.31617e-18
8.62653 	0.847711 	0.00175058 	3.10511 	2.31617e-18
8.69666 	0.815143 	0.0111593 	3.1193 	1.89534e-18
8.7668 	0.815143 	0.0111593 	3.1193 	1.89534e-18
8.83693 	0.815143 	0.0111593 	3.1193 	1.89534e-18
8.90707 	0.815143 	0.0111593 	3.1193 	1.89534e-18
8.9772 	0.815143 	0.0111593 	3.1193 	1.89534e-18
9.04734 	0.815143 	0.0111593 	3.1193 	1.89534e-18
9.11747 	0.815143 	0.0111593 	3.1193 	1.89534e-18
9.18761 	0.815143 	0.0111593 	3.1193 	1.89534e-18
9.25774 	0.784678 	0.00515991 	3.11871 	-1.73475e-18
9.32787 	0.784678 	0.00515991 	3.11871 	-1.73475e-18
9.39801 	0.784678 	0.00515991 	3.11871 	-1.73475e-18
9.46814 	0.784678 	0.00515991 	3.11871 	-1.73475e-18
9.53828 	0.784678 	0.00515991 	3.11871 	-1.73475e-18
9.60841 	0.784678 	0.00515991 	3.11871 	-1.73475e-18
9.67855 	0.784678 	0.00515991 	3.11871 	-1.73475e-18
9.74868 	0.784678 	0.00515991 	3.11871 	-1.73475e-18
9.81881 	0.769366 	0.0180277 	3.12945 	-5.94946e-19
9.88895 	0.769366 	0.0180277 	3.12945 	-5.94946e-19
9.95908 	0.769366 	0.0180277 	3.12945 	-5.94946e-19
10.0292 	0.769366 	0.0180277 	3.12945 	-5.94946e-19
10.0994 	0.769366 	0.0180277 	3.12945 	-5.94946e-19
10.1695 	0.769366 	0.0180277 	3.12945 	-5.94946e-19
10.2396 	0.769366 	0.0180277 	3.12945 	-5.94946e-19
10.3098 	0.769366 	0.0180277 	3.12945 	-5.94946e-19
10.3799 	0.769366 	0.0180277 	3.12945 	-5.94946e-19
10.45 	0.769366 	0.0180277 	3.12945 	-5.94946e-19
10.5202 	0.769366 	0.0180277 	3.12945 	-5.94946e-19
10.5903 	0.769366 	0.0180277 	3.12945 	-5.94946e-19
10.6604 	0.790049 	0.0160163 	3.12551 	8.75677e-19
10.7306 	0.738378 	0.0360032 	3.13956 	0
10.8007 	0.738378 	0.0360032 	3.13956 	0
10.8708 	0.738378 	0.0360032 	3.13956 	0
10.941 	0.738378 	0.0360032 	3.13956 	0
11.0111 	0.738378 	0.0360032 	3.13956 	0
11.0812 	0.738378 	0.0360032 	3.13956 	0
11.1514 	0.738378 	0.0360032 	3.13956 	0
11.2215 	0.738378 	0.0360032 	3.13956 	0
11.2916 	0.738378 	0.0360032 	3.13956 	0
11.3618 	0.738378 	0.0360032 	3.13956 	0
11.4319 	0.738378 	0.0360032 	3.13956 	0
11.502 	0.738378 	0.0360032 	3.13956 	0
11.5722 	0.738378 	0.0360032 	3.13956 	0
11.6423 	0.738378 	0.0360032 	3.13956 	0
11.7124 	0.74652 	0.0230333 	3.12918 	0
11.7826 	0.685706 	0.0767443 	3.1606 	1.0006e-18
11.8527 	0.685706 	0.0767443 	3.1606 	1.0006e-18
11.9228 	0.685706 	0.0767443 	3.1606 	1.0006e-18
11.993 	0.685706 	0.0767443 	3.1606 	1.0006e-18
12.0631 	0.685706 	0.0767443 	3.1606 	1.0006e-18
12.1332 	0.685706 	0.0767443 	3.1606 	1.0006e-18
12.2034 	0.58816 	0.0693448 	3.18687 	-4.97286e-19
12.2735 	0.58816 	0.0693448 	3.18687 	-4.97286e-19
12.3437 	0.58816 	0.0693448 	3.18687 	-4.97286e-19
12.4138 	0.58816 	0.0693448 	3.18687 	-4.97286e-19
12.4839 	0.58816 	0.0693448 	3.18687 	-4.97286e-19
12.5541 	0.58816 	0.0693448 	3.18687 	-4.97286e-19
12.6242 	0.58816 	0.0693448 	3.18687 	-4.97286e-19
12.6943 	0.58816 	0.0693448 	3.18687 	-4.97286e-19
12.7645 	0.58816 	0.0693448 	3.18687 	-4.97286e-19
12.8346 	0.473406 	0.0359888 	3.17932 	4.69775e-19
12.9047 	0.459227 	0.137075 	3.22259 	-2.3866e-19
12.9749 	0.459227 	0.137075 	3.22259 	-2.3866e-19
13.045 	0.459227 	0.137075 	3.22259 	-2.3866e-19
13.1151 	0.459227 	0.137075 	3.22259 	-2.3866e-19
13.1853 	0.459227 	0.137075 	3.22259 	-2.3866e-19
13.2554 	0.459227 	0.137075 	3.22259 	-2.3866e-19
13.3255 	0.459227 	0.137075 	3.22259 	-2.3866e-19
13.3957 	0.68615 	0.142438 	3.19385 	1.53432e-18
13.4658 	0.68615 	0.142438 	3.19385 	1.53432e-18
13.5359 	0.68615 	0.142438 	3.19385 	1.53432e-18
13.6061 	0.68615 	0.142438 	3.19385 	1.53432e-18
13.6762 	0.68615 	0.142438 	3.19385 	1.53432e-18
13.7463 	0.68615 	0.142438 	3.19385 	1.53432e-18
13.8165 	0.765903 	0.115226 	2.86828 	-1.27848e-18
13.8866 	0.970077 	0.138438 	2.96236 	5.98605e-19
13.9567 	0.970077 	0.138438 	2.96236 	5.98605e-19
14.0269 	0.387443 	0.247008 	3.03548 	-1.94603e-18
14.097 	0.387443 	0.247008 	3.03548 	-1.94603e-18
14.1671 	0.387443 	0.247008 	3.03548 	-1.94603e-18
14.2373 	0.387443 	0.247008 	3.03548 	-1.94603e-18
14.3074 	0.387443 	0.247008 	3.03548 	-1.94603e-18
14.3776 	0.387443 	0.247008 	3.03548 	-1.94603e-18
14.4477 	0.387443 	0.247008 	3.03548 	-1.94603e-18
14.5178 	0.387443 	0.247008 	3.03548 	-1.94603e-18
14.588 	0.387443 	0.247008 	3.03548 	-1.94603e-18
14.6581 	0.387443 	0.247008 	3.03548 	-1.94603e-18
14.7282 	0.387443 	0.247008 	3.03548 	-1.94603e-18
14.7984 	0.387443 	0.247008 	3.03548 	-1.94603e-18
14.8685 	0.387443 	0.247008 	3.03548 	-1.94603e-18
14.9386 	0.209566 	0.341484 	3.19447 	0
15.0088 	0.209566 	0.341484 	3.19447 	0
15.0789 	0.209566 	0.341484 	3.19447 	0
15.149 	0.209566 	0.341484 	3.19447 	0
15.2192 	0.209566 	0.341484 	3.19447 	0
15.2893 	-0.298018 	0.340631 	3.4216 	-1.8228e-19
15.3594 	-0.298018 	0.340631 	3.4216 	-1.8228e-19
15.4296 	-0.298018 	0.340631 	3.4216 	-1.8228e-19
15.4997 	-0.298018 	0.340631 	3.4216 	-1.8228e-19
15.5698 	-0.298018 	0.340631 	3.4216 	-1.8228e-19
15.64 	-0.298018 	0.340631 	3.4216 	-1.8228e-19
15.7101 	-0.793638 	0.395786 	3.49268 	0
15.7802 	-0.793638 	0.395786 	3.49268 	0
15.8504 	-0.690156 	0.647663 	3.55052 	1.23014e-18
15.9205 	-0.690156 	0.647663 	3.55052 	1.23014e-18
15.9906 	-0.690156 	0.647663 	3.55052 	1.23014e-18
16.0608 	-0.690156 	0.647663 	3.55052 	1.23014e-18
16.1309 	-0.690156 	0.647663 	3.55052 	1.23014e-18
16.201 	-0.690156 	0.647663 	3.55052 	1.23014e-18
16.2712 	-0.690156 	0.647663 	3.55052 	1.23014e-18
16.3413 	-0.690156 	0.647663 	3.55052 	1.23014e-18
16.4114 	-0.690156 	0.647663 	3.55052 	1.23014e-18
16.4816 	-0.690156 	0.647663 	3.55052 	1.23014e-18
16.5517 	-0.690156 	0.647663 	3.55052 	1.23014e-18
16.6219 	-0.690156 	0.647663 	3.55052 	1.23014e-18
16.692 	-0.690156 	0.647663 	3.55052 	1.23014e-18
16.7621 	-0.690156 	0.647663 	3.55052 	1.23014e-18
16.8323 	-0.241067 	0.872329 	3.11809 	4.78672e-20
16.9024 	-0.241067 	0.872329 	3.11809 	4.78672e-20
16.9725 	-0.241067 	0.872329 	3.11809 	4.78672e-20
17.0427 	-0.241067 	0.872329 	3.11809 	4.78672e-20
17.1128 	-0.241067 	0.872329 	3.11809 	4.78672e-20
17.1829 	-0.241067 	0.872329 	3.11809 	4.78672e-20
17.2531 	-0.241067 	0.872329 	3.11809 	4.78672e-20
17.3232 	-0.241067 	0.872329 	3.11809 	4.78672e-20
17.3933 	-0.241067 	0.872329 	3.11809 	4.78672e-20
17.4635 	-0.241067 	0.872329 	3.11809 	4.78672e-20
17.5336 	-0.149763 	0.912779 	3.03505 	-1.39194e-20
17.6037 	-0.149763 	0.912779 	3.03505 	-1.39194e-20
17.6739 	-0.149763 	0.912779 	3.03505 	-1.39194e-20
17.744 	-0.240542 	1.04161 	3.16463 	1.09896e-19
17.8141 	-0.240542 	1.04161 	3.16463 	1.09896e-19
17.8843 	-0.240542 	1.04161 	3.16463 	1.09896e-19
17.9544 	-0.240542 	1.04161 	3.16463 	1.09896e-19
18.0245 	-0.240542 	1.04161 	3.16463 	1.09896e-19
18.0947 	-0.240542 	1.04161 	3.16463 	1.09896e-19
18.1648 	-0.240542 	1.04161 	3.16463 	1.09896e-19
18.2349 	-0.240542 	1.04161 	3.16463 	1.09896e-19
18.3051 	-0.240542 	1.04161 	3.16463 	1.09896e-19
18.3752 	0.0491164 	1.00355 	2.7683 	-8.35599e-20
18.4453 	0.0491164 	1.00355 	2.7683 	-8.35599e-20
18.5155 	0.0491164 	1.00355 	2.7683 	-8.35599e-20
18.5856 	0.0491164 	1.00355 	2.7683 	-8.35599e-20
18.6557 	0.0491164 	1.00355 	2.7683 	-8.35599e-20
18.7259 	0.0491164 	1.00355 	2.7683 	-8.35599e-20
18.796 	0.0491164 	1.00355 	2.7683 	-8.35599e-20
18.8662 	0.116624 	1.04063 	2.82448 	-2.05489e-19
18.9363 	0.116624 	1.04063 	2.82448 	-2.05489e-19
19.0064 	0.116624 	1.04063 	2.82448 	-2.05489e-19
19.0766 	0.116624 	1.04063 	2.82448 	-2.05489e-19
19.1467 	0.116624 	1.04063 	2.82448 	-2.05489e-19
19.2168 	0.116624 	1.04063 	2.82448 	-2.05489e-19
19.287 	0.116624 	1.04063 	2.82448 	-2.05489e-19
19.3571 	0.116624 	1.04063 	2.82448 	-2.05489e-19
19.4272 	0.116624 	1.04063 	2.82448 	-2.05489e-19
19.4974 	0.116624 	1.04063 	2.82448 	-2.05489e-19
19.5675 	0.116624 	1.04063 	2.82448 	-2.05489e-19
19.6376 	0.116624 	1.04063 	2.82448 	-2.05489e-19
19.7078 	0.116624 	1.04063 	2.82448 	-2.05489e-19
19.7779 	0.26466 	0.989148 	2.45113 	-1.19246e-19
19.848 	0.26466 	0.989148 	2.45113 	-1.19246e-19
19.9182 	0.26466 	0.989148 	2.45113 	-1.19246e-19
19.9883 	0.26466 	0.989148 	2.45113 	-1.19246e-19
20.0584 	0.26466 	0.989148 	2.45113 	-1.19246e-19
20.1286 	0.26466 	0.989148 	2.45113 	-1.19246e-19
20.1987 	0.26466 	0.989148 	2.45113 	-1.19246e-19
20.2688 	0.259748 	0.994133 	2.44481 	3.41688e-19
20.339 	0.259748 	0.994133 	2.44481 	3.41688e-19
20.4091 	0.259748 	0.994133 	2.44481 	3.41688e-19
20.4792 	0.259748 	0.994133 	2.44481 	3.41688e-19
20.5494 	0.259748 	0.994133 	2.44481 	3.41688e-19
20.6195 	0.259748 	0.994133 	2.44481 	3.41688e-19
20.6896 	0.259748 	0.994133 	2.44481 	3.41688e-19
20.7598 	0.259748 	0.994133 	2.44481 	3.41688e-19
20.8299 	0.259748 	0.994133 	2.44481 	3.41688e-19
20.9 	0.259748 	0.994133 	2.44481 	3.41688e-19
20.9702 	0.259748 	0.994133 	2.44481 	3.41688e-19
21.0403 	0.259748 	0.994133 	2.44481 	3.41688e-19
21.1105 	0.259748 	0.994133 	2.44481 	3.41688e-19
21.1806 	0.259748 	0.994133 	2.44481 	3.41688e-19
21.2507 	0.259748 	0.994133 	2.44481 	3.41688e-19
21.3209 	0.259748 	0.994133 	2.44481 	3.41688e-19
21.391 	0.259748 	0.994133 	2.44481 	3.41688e-19
21.4611 	0.273481 	0.69923 	1.9103 	-4.54288e-19
21.5313 	0.273481 	0.69923 	1.9103 	-4.54288e-19
21.6014 	0.273481 	0.69923 	1.9103 	-4.54288e-19
21.6715 	0.169071 	0.611573 	1.41304 	-6.67388e-20
21.7417 	0.169071 	0.611573 	1.41304 	-6.67388e-20
21.8118 	0.169071 	0.611573 	1.41304 	-6.67388e-20
21.8819 	0.169071 	0.611573 	1.41304 	-6.67388e-20
21.9521 	0.169071 	0.611573 	1.41304 	-6.67388e-20
22.0222 	0.0382707 	0.931571 	2.34619 	1.4213e-19
22.0923 	0.0382707 	0.931571 	2.34619 	1.4213e-19
22.1625 	0.0382707 	0.931571 	2.34619 	1.4213e-19
22.2326 	0.0382707 	0.931571 	2.34619 	1.4213e-19
22.3027 	0.0382707 	0.931571 	2.34619 	1.4213e-19
22.3729 	0.0382707 	0.931571 	2.34619 	1.4213e-19
22.443 	0.0382707 	0.931571 	2.34619 	1.4213e-19
22.5131 	0.0382707 	0.931571 	2.34619 	1.4213e-19
22.5833 	0.0382707 	0.931571 	2.34619 	1.4213e-19
22.6534 	0.0382707 	0.931571 	2.34619 	1.4213e-19
22.7235 	0.0382707 	0.931571 	2.34619 	1.4213e-19
22.7937 	0.0382707 	0.931571 	2.34619 	1.4213e-19
22.8638 	0.0382707 	0.931571 	2.34619 	1.4213e-19
22.9339 	0.0382707 	0.931571 	2.34619 	1.4213e-19
23.0041 	0.0382707 	0.931571 	2.34619 	1.4213e-19
23.0742 	0.0382707 	0.931571 	2.34619 	1.4213e-19
23.1443 	0.0382707 	0.931571 	2.34619 	1.4213e-19
23.2145 	0.0382707 	0.931571 	2.34619 	1.4213e-19
23.2846 	0.0382707 	0.931571 	2.34619 	1.4213e-19
23.3548 	0.0382707 	0.931571 	2.34619 	1.4213e-19
23.4249 	0.0382707 	0.931571 	2.34619 	1.4213e-19
23.495 	0.226753 	0.899392 	2.32513 	-9.66398e-20
23.5652 	0.226753 	0.899392 	2.32513 	-9.66398e-20
23.6353 	0.226753 	0.899392 	2.32513 	-9.66398e-20
23.7054 	0.226753 	0.899392 	2.32513 	-9.66398e-20
23.7756 	0.226753 	0.899392 	2.32513 	-9.66398e-20
23.8457 	0.226753 	0.899392 	2.32513 	-9.66398e-20
23.9158 	0.226753 	0.899392 	2.32513 	-9.66398e-20
23.986 	0.355622 	0.838579 	2.18649 	4.41879e-21
24.0561 	0.355622 	0.838579 	2.18649 	4.41879e-21
24.1262 	0.355622 	0.838579 	2.18649 	4.41879e-21
24.1964 	0.355622 	0.838579 	2.18649 	4.41879e-21
24.2665 	0.355622 	0.838579 	2.18649 	4.41879e-21
24.3366 	0.355622 	0.838579 	2.18649 	4.41879e-21
24.4068 	0.355622 	0.838579 	2.18649 	4.41879e-21
24.4769 	0.355622 	0.838579 	2.18649 	4.41879e-21
24.547 	0.355622 	0.838579 	2.18649 	4.41879e-21
24.6172 	0.355622 	0.838579 	2.18649 	4.41879e-21
24.6873 	0.355622 	0.838579 	2.18649 	4.41879e-21
24.7574 	0.355622 	0.838579 	2.18649 	4.41879e-21
24.8276 	0.355622 	0.838579 	2.18649 	4.41879e-21
24.8977 	0.355622 	0.838579 	2.18649 	4.41879e-21
24.9678 	0.355622 	0.838579 	2.18649 	4.41879e-21
25.038 	0.355622 	0.838579 	2.18649 	4.41879e-21
25.1081 	0.355622 	0.838579 	2.18649 	4.41879e-21
25.1782 	0.301559 	0.500455 	1.36013 	0
25.2484 	0.301559 	0.500455 	1.36013 	0
25.3185 	0.301559 	0.500455 	1.36013 	0
25.3886 	0.301559 	0.500455 	1.36013 	0
25.4588 	0.301559 	0.500455 	1.36013 	0
25.5289 	0.301559 	0.500455 	1.36013 	0
25.5991 	0.301559 	0.500455 	1.36013 	0
25.6692 	0.301559 	0.500455 	1.36013 	0
25.7393 	0.301559 	0.500455 	1.36013 	0
25.8095 	0.301559 	0.500455 	1.36013 	0
25.8796 	0.301559 	0.500455 	1.36013 	0
25.9497 	0.301559 	0.500455 	1.36013 	0
26.0199 	0.301559 	0.500455 	1.36013 	0
26.09 	0.301559 	0.500455 	1.36013 	0
26.1601 	0.301559 	0.500455 	1.36013 	0
26.2303 	0.205968 	0.499132 	1.37488 	-3.48222e-19
26.3004 	0.205968 	0.499132 	1.37488 	-3.48222e-19
26.3705 	0.205968 	0.499132 	1.37488 	-3.48222e-19
26.4407 	0.205968 	0.499132 	1.37488 	-3.48222e-19
26.5108 	0.205968 	0.499132 	1.37488 	-3.48222e-19
26.5809 	0.205968 	0.499132 	1.37488 	-3.48222e-19
26.6511 	0.205968 	0.499132 	1.37488 	-3.48222e-19
26.7212 	0.205968 	0.499132 	1.37488 	-3.48222e-19
26.7913 	0.205968 	0.499132 	1.37488 	-3.48222e-19
26.8615 	0.205968 	0.499132 	1.37488 	-3.48222e-19
26.9316 	0.205968 	0.499132 	1.37488 	-3.48222e-19
27.0017 	0.205968 	0.499132 	1.37488 	-3.48222e-19
27.0719 	0.205968 	0.499132 	1.37488 	-3.48222e-19
27.142 	0.205968 	0.499132 	1.37488 	-3.48222e-19
27.2121 	0.205968 	0.499132 	1.37488 	-3.48222e-19
27.2823 	0.205968 	0.499132 	1.37488 	-3.48222e-19
27.3524 	0.147359 	0.49456 	1.38024 	3.81134e-19
27.4225 	0.147359 	0.49456 	1.38024 	3.81134e-19
27.4927 	0.147359 	0.49456 	1.38024 	3.81134e-19
27.5628 	0.147359 	0.49456 	1.38024 	3.81134e-19
27.6329 	0.147359 	0.49456 	1.38024 	3.81134e-19
27.7031 	0.147359 	0.49456 	1.38024 	3.81134e-19
27.7732 	0.147359 	0.49456 	1.38024 	3.81134e-19
27.8434 	0.147359 	0.49456 	1.38024 	3.81134e-19
27.9135 	0.147359 	0.49456 	1.38024 	3.81134e-19
27.9836 	0.147359 	0.49456 	1.38024 	3.81134e-19
28.0538 	0.147359 	0.49456 	1.38024 	3.81134e-19
28.1239 	0.147359 	0.49456 	1.38024 	3.81134e-19
28.194 	0.147359 	0.49456 	1.38024 	3.81134e-19
28.2642 	0.147359 	0.49456 	1.38024 	3.81134e-19
28.3343 	0.147359 	0.49456 	1.38024 	3.81134e-19
28.4044 	0.147359 	0.49456 	1.38024 	3.81134e-19
28.4746 	0.147359 	0.49456 	1.38024 	3.81134e-19
28.5447 	0.147359 	0.49456 	1.38024 	3.81134e-19
28.6148 	0.147359 	0.49456 	1.38024 	3.81134e-19
28.685 	0.147359 	0.49456 	1.38024 	3.81134e-19
28.7551 	0.147359 	0.49456 	1.38024 	3.81134e-19
28.8252 	0.147359 	0.49456 	1.38024 	3.81134e-19
28.8954 	0.147359 	0.49456 	1.38024 	3.81134e-19
28.9655 	0.100357 	0.438955 	1.29482 	1.179e-20
29.0356 	0.100357 	0.438955 	1.29482 	1.179e-20
29.1058 	0.100357 	0.438955 	1.29482 	1.179e-20
29.1759 	0.100357 	0.438955 	1.29482 	1.179e-20
29.246 	0.100357 	0.438955 	1.29482 	1.179e-20
29.3162 	0.100357 	0.438955 	1.29482 	1.179e-20
29.3863 	0.100357 	0.438955 	1.29482 	1.179e-20
29.4564 	0.100357 	0.438955 	1.29482 	1.179e-20
29.5266 	0.100357 	0.438955 	1.29482 	1.179e-20
29.5967 	0.100357 	0.438955 	1.29482 	1.179e-20
29.6668 	0.100357 	0.438955 	1.29482 	1.179e-20
29.737 	0.100357 	0.438955 	1.29482 	1.179e-20
29.8071 	0.100357 	0.438955 	1.29482 	1.179e-20
29.8773 	0.100357 	0.438955 	1.29482 	1.179e-20
29.9474 	0.100357 	0.438955 	1.29482 	1.179e-20
30.0175 	0.100357 	0.438955 	1.29482 	1.179e-20
30.0877 	0.100357 	0.438955 	1.29482 	1.179e-20
30.1578 	0.100357 	0.438955 	1.29482 	1.179e-20
30.2279 	0.100357 	0.438955 	1.29482 	1.179e-20
30.2981 	0.100357 	0.438955 	1.29482 	1.179e-20
30.3682 	0.100357 	0.438955 	1.29482 	1.179e-20
30.4383 	0.100357 	0.438955 	1.29482 	1.179e-20
30.5085 	0.100357 	0.438955 	1.29482 	1.179e-20
30.5786 	0.100357 	0.438955 	1.29482 	1.179e-20
30.6487 	0.100357 	0.438955 	1.29482 	1.179e-20
30.7189 	0.100357 	0.438955 	1.29482 	1.179e-20
30.789 	0.0889055 	0.365597 	1.2903 	-1.51832e-19
30.8591 	0.0889055 	0.365597 	1.2903 	-1.51832e-19
30.9293 	0.0889055 	0.365597 	1.2903 	-1.51832e-19
30.9994 	0.0889055 	0.365597 	1.2903 	-1.51832e-19
31.0695 	0.0889055 	0.365597 	1.2903 	-1.51832e-19
31.1397 	0.0889055 	0.365597 	1.2903 	-1.51832e-19
31.2098 	0.0889055 	0.365597 	1.2903 	-1.51832e-19
31.2799 	0.0889055 	0.365597 	1.2903 	-1.51832e-19
31.3501 	0.0889055 	0.365597 	1.2903 	-1.51832e-19
31.4202 	0.0889055 	0.365597 	1.2903 	-1.51832e-19
31.4903 	0.0889055 	0.365597 	1.2903 	-1.51832e-19
31.5605 	0.0889055 	0.365597 	1.2903 	-1.51832e-19
31.6306 	0.0889055 	0.365597 	1.2903 	-1.51832e-19
31.7007 	0.0889055 	0.365597 	1.2903 	-1.51832e-19
31.7709 	0.0889055 	0.365597 	1.2903 	-1.51832e-19
31.841 	0.0889055 	0.365597 	1.2903 	-1.51832e-19
31.9111 	0.0889055 	0.365597 	1.2903 	-1.51832e-19
31.9813 	0.0889055 	0.365597 	1.2903 	-1.51832e-19
32.0514 	0.0889055 	0.365597 	1.2903 	-1.51832e-19
32.1216 	0.0889055 	0.365597 	1.2903 	-1.51832e-19
32.1917 	0.0889055 	0.365597 	1.2903 	-1.51832e-19
32.2618 	0.0889055 	0.365597 	1.2903 	-1.51832e-19
32.332 	0.0889055 	0.365597 	1.2903 	-1.51832e-19
32.4021 	0.0889055 	0.365597 	1.2903 	-1.51832e-19
32.4722 	0.0889055 	0.365597 	1.2903 	-1.51832e-19
32.5424 	0.0889055 	0.365597 	1.2903 	-1.51832e-19
32.6125 	0.0889055 	0.365597 	1.2903 	-1.51832e-19
32.6826 	0.0889055 	0.365597 	1.2903 	-1.51832e-19
32.7528 	0.0889055 	0.365597 	1.2903 	-1.51832e-19
32.8229 	0.0889055 	0.365597 	1.2903 	-1.51832e-19
32.893 	0.0889055 	0.365597 	1.2903 	-1.51832e-19
32.9632 	0.0889055 	0.365597 	1.2903 	-1.51832e-19
33.0333 	0.0889055 	0.365597 	1.2903 	-1.51832e-19
33.1034 	0.0889055 	0.365597 	1.2903 	-1.51832e-19
33.1736 	0.0889055 	0.365597 	1.2903 	-1.51832e-19
33.2437 	0.0889055 	0.365597 	1.2903 	-1.51832e-19
33.3138 	0.0889055 	0.365597 	1.2903 	-1.51832e-19
33.384 	0.0889055 	0.365597 	1.2903 	-1.51832e-19
33.4541 	0.0889055 	0.365597 	1.2903 	-1.51832e-19
33.5242 	0.0889055 	0.365597 	1.2903 	-1.51832e-19
33.5944 	0.0889055 	0.365597 	1.2903 	-1.51832e-19
33.6645 	0.0889055 	0.365597 	1.2903 	-1.51832e-19
33.7346 	0.0505864 	0.364155 	1.36171 	8.27431e-20
33.8048 	0.0505864 	0.364155 	1.36171 	8.27431e-20
33.8749 	0.0505864 	0.364155 	1.36171 	8.27431e-20
33.945 	0.0505864 	0.364155 	1.36171 	8.27431e-20
34.0152 	0.0505864 	0.364155 	1.36171 	8.27431e-20
34.0853 	0.0505864 	0.364155 	1.36171 	8.27431e-20
34.1554 	0.0455518 	0.27147 	1.31279 	-1.50147e-19
34.2256 	0.0455518 	0.27147 	1.31279 	-1.50147e-19
34.2957 	0.0455518 	0.27147 	1.31279 	-1.50147e-19
34.3659 	0.0455518 	0.27147 	1.31279 	-1.50147e-19
34.436 	0.0455518 	0.27147 	1.31279 	-1.50147e-19
34.5061 	0.0455518 	0.27147 	1.31279 	-1.50147e-19
34.5763 	0.0455518 	0.27147 	1.31279 	-1.50147e-19
34.6464 	0.0455518 	0.27147 	1.31279 	-1.50147e-19
34.7165 	0.24987 	0.261288 	1.6152 	1.49212e-19
34.7867 	0.24987 	0.261288 	1.6152 	1.49212e-19
34.8568 	0.24987 	0.261288 	1.6152 	1.49212e-19
34.9269 	0.24987 	0.261288 	1.6152 	1.49212e-19
34.9971 	0.24987 	0.261288 	1.6152 	1.49212e-19
35.0672 	0.24987 	0.261288 	1.6152 	1.49212e-19
35.1373 	0.24987 	0.261288 	1.6152 	1.49212e-19
35.2075 	0.24987 	0.261288 	1.6152 	1.49212e-19
35.2776 	0.24987 	0.261288 	1.6152 	1.49212e-19
35.3477 	0.24987 	0.261288 	1.6152 	1.49212e-19
35.4179 	0.24987 	0.261288 	1.6152 	1.49212e-19
35.488 	0.24987 	0.261288 	1.6152 	1.49212e-19
35.5581 	0.24987 	0.261288 	1.6152 	1.49212e-19
35.6283 	0.24987 	0.261288 	1.6152 	1.49212e-19
35.6984 	0.24987 	0.261288 	1.6152 	1.49212e-19
35.7685 	0.24987 	0.261288 	1.6152 	1.49212e-19
35.8387 	0.24987 	0.261288 	1.6152 	1.49212e-19
35.9088 	0.24987 	0.261288 	1.6152 	1.49212e-19
35.9789 	0.24987 	0.261288 	1.6152 	1.49212e-19
36.0491 	0.224937 	0.240888 	1.5733 	0
36.1192 	0.224937 	0.240888 	1.5733 	0
36.1893 	0.224937 	0.240888 	1.5733 	0
36.2595 	0.224937 	0.240888 	1.5733 	0
36.3296 	0.224937 	0.240888 	1.5733 	0
36.3997 	0.224937 	0.240888 	1.5733 	0
36.4699 	0.224937 	0.240888 	1.5733 	0
36.54 	0.224937 	0.240888 	1.5733 	0
36.6102 	0.224937 	0.240888 	1.5733 	0
36.6803 	0.224937 	0.240888 	1.5733 	0
36.7504 	0.224937 	0.240888 	1.5733 	0
36.8206 	0.224937 	0.240888 	1.5733 	0
36.8907 	0.0999108 	0.183877 	1.44034 	1.07944e-19
36.9608 	0.0999108 	0.183877 	1.44034 	1.07944e-19
37.031 	0.0999108 	0.183877 	1.44034 	1.07944e-19
37.1011 	0.0999108 	0.183877 	1.44034 	1.07944e-19
37.1712 	0.0999108 	0.183877 	1.44034 	1.07944e-19
37.2414 	0.0999108 	0.183877 	1.44034 	1.07944e-19
37.3115 	0.0999108 	0.183877 	1.44034 	1.07944e-19
37.3816 	0.0999108 	0.183877 	1.44034 	1.07944e-19
37.4518 	0.0999108 	0.183877 	1.44034 	1.07944e-19
37.5219 	0.0999108 	0.183877 	1.44034 	1.07944e-19
37.592 	0.0999108 	0.183877 	1.44034 	1.07944e-19
37.6622 	0.0999108 	0.183877 	1.44034 	1.07944e-19
37.7323 	0.0999108 	0.183877 	1.44034 	1.07944e-19
37.8024 	0.0999108 	0.183877 	1.44034 	1.07944e-19
37.8726 	0.0999108 	0.183877 	1.44034 	1.07944e-19
37.9427 	0.0999108 	0.183877 	1.44034 	1.07944e-19
38.0128 	0.0999108 	0.183877 	1.44034 	1.07944e-19
38.083 	0.0999108 	0.183877 	1.44034 	1.07944e-19
38.1531 	0.0999108 	0.183877 	1.44034 	1.07944e-19
38.2232 	0.123703 	0.133052 	1.58799 	-1.23797e-19
38.2934 	0.123703 	0.133052 	1.58799 	-1.23797e-19
38.3635 	0.123703 	0.133052 	1.58799 	-1.23797e-19
38.4336 	0.123703 	0.133052 	1.58799 	-1.23797e-19
38.5038 	0.123703 	0.133052 	1.58799 	-1.23797e-19
38.5739 	0.123703 	0.133052 	1.58799 	-1.23797e-19
38.644 	0.123703 	0.133052 	1.58799 	-1.23797e-19
38.7142 	0.123703 	0.133052 	1.58799 	-1.23797e-19
38.7843 	0.123703 	0.133052 	1.58799 	-1.23797e-19
38.8545 	0.123703 	0.133052 	1.58799 	-1.23797e-19
38.9246 	0.123703 	0.133052 	1.58799 	-1.23797e-19
38.9947 	0.123703 	0.133052 	1.58799 	-1.23797e-19
39.0649 	0.123703 	0.133052 	1.58799 	-1.23797e-19
39.135 	0.123703 	0.133052 	1.58799 	-1.23797e-19
39.2051 	0.0874514 	0.114367 	1.55807 	0
39.2753 	0.0874514 	0.114367 	1.55807 	0
39.3454 	0.0874514 	0.114367 	1.55807 	0
39.4155 	0.0874514 	0.114367 	1.55807 	0
39.4857 	0.0874514 	0.114367 	1.55807 	0
39.5558 	0.0874514 	0.114367 	1.55807 	0
39.6259 	0.0874514 	0.114367 	1.55807 	0
39.6961 	0.0874514 	0.114367 	1.55807 	0
39.7662 	0.0874514 	0.114367 	1.55807 	0
39.8363 	0.0874514 	0.114367 	1.55807 	0
39.9065 	0.0874514 	0.114367 	1.55807 	0
39.9766 	0.0874514 	0.114367 	1.55807 	0
40.0467 	0.0874514 	0.114367 	1.55807 	0
40.1169 	0.0874514 	0.114367 	1.55807 	0
40.187 	0.0874514 	0.114367 	1.55807 	0
40.2571 	0.0874514 	0.114367 	1.55807 	0
40.3273 	0.0874514 	0.114367 	1.55807 	0
40.3974 	0.0874514 	0.114367 	1.55807 	0
40.4675 	0.0874514 	0.114367 	1.55807 	0
40.5377 	0.0874514 	0.114367 	1.55807 	0
40.6078 	0.0874514 	0.114367 	1.55807 	0
40.6779 	0.0726503 	0.112344 	1.49662 	-4.33905e-20
40.7481 	0.0726503 	0.112344 	1.49662 	-4.33905e-20
40.8182 	0.0726503 	0.112344 	1.49662 	-4.33905e-20
40.8883 	0.0726503 	0.112344 	1.49662 	-4.33905e-20
40.9585 	0.0726503 	0.112344 	1.49662 	-4.33905e-20
41.0286 	0.0726503 	0.112344 	1.49662 	-4.33905e-20
41.0988 	0.0726503 	0.112344 	1.49662 	-4.33905e-20
41.1689 	0.0726503 	0.112344 	1.49662 	-4.33905e-20
41.239 	0.0758012 	0.0848122 	1.51265 	8.14233e-20
41.3092 	0.0758012 	0.0848122 	1.51265 	8.14233e-20
41.3793 	0.0758012 	0.0848122 	1.51265 	8.14233e-20
41.4494 	0.0758012 	0.0848122 	1.51265 	8.14233e-20
41.5196 	0.0758012 	0.0848122 	1.51265 	8.14233e-20
41.5897 	0.0758012 	0.0848122 	1.51265 	8.14233e-20
41.6598 	0.0758012 	0.0848122 	1.51265 	8.14233e-20
41.73 	0.0758012 	0.0848122 	1.51265 	8.14233e-20
41.8001 	0.0758012 	0.0848122 	1.51265 	8.14233e-20
41.8702 	0.0758012 	0.0848122 	1.51265 	8.14233e-20
41.9404 	0.0758012 	0.0848122 	1.51265 	8.14233e-20
42.0105 	0.0758012 	0.0848122 	1.51265 	8.14233e-20
42.0806 	0.0758012 	0.0848122 	1.51265 	8.14233e-20
42.1508 	0.0758012 	0.0848122 	1.51265 	8.14233e-20
42.2209 	0.0758012 	0.0848122 	1.51265 	8.14233e-20
42.291 	0.0758012 	0.0848122 	1.51265 	8.14233e-20
42.3612 	0.0758012 	0.0848122 	1.51265 	8.14233e-20
42.4313 	0.0758012 	0.0848122 	1.51265 	8.14233e-20
42.5014 	0.0758012 	0.0848122 	1.51265 	8.14233e-20
42.5716 	0.0758012 	0.0848122 	1.51265 	8.14233e-20
42.6417 	0.0758012 	0.0848122 	1.51265 	8.14233e-20
42.7118 	0.06373 	0.0795716 	1.49501 	0
42.782 	0.06373 	0.0795716 	1.49501 	0
42.8521 	0.06373 	0.0795716 	1.49501 	0
42.9222 	0.06373 	0.0795716 	1.49501 	0
42.9924 	0.082306 	0.0401493 	1.56762 	0
43.0625 	0.082306 	0.0401493 	1.56762 	0
43.1327 	0.082306 	0.0401493 	1.56762 	0
43.2028 	0.082306 	0.0401493 	1.56762 	0
43.2729 	0.082306 	0.0401493 	1.56762 	0
43.3431 	0.082306 	0.0401493 	1.56762 	0
43.4132 	0.082306 	0.0401493 	1.56762 	0
43.4833 	0.082306 	0.0401493 	1.56762 	0
43.5535 	0.082306 	0.0401493 	1.56762 	0
43.6236 	0.082306 	0.0401493 	1.56762 	0
43.6937 	0.082306 	0.0401493 	1.56762 	0
43.7639 	0.082306 	0.0401493 	1.56762 	0
43.834 	0.082306 	0.0401493 	1.56762 	0
43.9041 	0.082306 	0.0401493 	1.56762 	0
43.9743 	0.082306 	0.0401493 	1.56762 	0
44.0444 	0.082306 	0.0401493 	1.56762 	0
44.1145 	0.082306 	0.0401493 	1.56762 	0