/*--------------------------------*- C++ -*----------------------------------*\
| =========                 |                                                 |
| \\      /  F ield         | OpenFOAM: The Open Source CFD Toolbox           |
|  \\    /   O peration     | Version:  2306                                  |
|   \\  /    A nd           | Website:  www.openfoam.com                      |
|    \\/     M anipulation  |                                                 |
\*---------------------------------------------------------------------------*/
FoamFile
{
    version     2.0;
    format      ascii;
    arch        "LSB;label=32;scalar=64";
    class       volScalarField;
    location    "37";
    object      p;
}
// * * * * * * * * * * * * * * * * * * * * * * * * * * * * * * * * * * * * * //

dimensions      [0 2 -2 0 0 0 0];

internalField   nonuniform List<scalar> 
8800
(
0.940861
0.892808
0.854427
0.825778
0.805142
0.790368
0.779738
0.7722
0.767315
0.76519
0.766394
0.77055
0.777179
0.786486
0.79922
0.816794
0.841229
0.874836
0.917276
0.9744
0.773401
0.780605
0.789038
0.792447
0.790521
0.784983
0.778251
0.772059
0.767258
0.764343
0.763996
0.766447
0.77091
0.776873
0.783758
0.790359
0.794478
0.793958
0.787887
0.778905
0.750128
0.756303
0.760495
0.763846
0.766332
0.767109
0.765972
0.763788
0.761697
0.760712
0.761605
0.763941
0.766728
0.76891
0.769417
0.767867
0.765004
0.761356
0.756817
0.753031
0.745024
0.747722
0.750436
0.752736
0.754366
0.755669
0.756544
0.756702
0.756377
0.75626
0.756929
0.758016
0.75875
0.758645
0.757817
0.756596
0.754828
0.752313
0.749879
0.748348
0.739872
0.741292
0.743085
0.745128
0.746863
0.748143
0.749133
0.749954
0.750561
0.751064
0.751613
0.751983
0.751944
0.751539
0.7508
0.749562
0.747838
0.745938
0.744605
0.743782
0.734917
0.735829
0.737059
0.738629
0.740264
0.741762
0.742994
0.744013
0.744929
0.745743
0.74631
0.746507
0.74636
0.745855
0.744927
0.743664
0.742274
0.740979
0.740144
0.739601
0.730118
0.730781
0.731734
0.733023
0.73442
0.735867
0.737274
0.738534
0.739648
0.740641
0.741321
0.741555
0.74136
0.740754
0.739854
0.738826
0.737757
0.736794
0.736194
0.735796
0.725452
0.725963
0.726739
0.727857
0.729117
0.730469
0.731884
0.733299
0.734632
0.735827
0.736664
0.736969
0.736791
0.736267
0.735547
0.73473
0.733881
0.733145
0.732694
0.732386
0.720861
0.721267
0.721918
0.722916
0.724106
0.725407
0.726812
0.728304
0.729822
0.731257
0.732293
0.732733
0.732697
0.732354
0.731826
0.73119
0.730519
0.729958
0.729615
0.729366
0.716271
0.7166
0.717163
0.718085
0.719228
0.72051
0.721938
0.723506
0.725181
0.726866
0.728165
0.728847
0.729042
0.728911
0.728574
0.728123
0.727614
0.727196
0.726935
0.72673
0.711606
0.711876
0.712379
0.713258
0.714386
0.715691
0.717179
0.71886
0.720726
0.722695
0.724333
0.725333
0.725806
0.725912
0.725775
0.7255
0.725144
0.724847
0.72465
0.724478
0.706793
0.707017
0.707482
0.708348
0.709501
0.710872
0.712469
0.714326
0.716445
0.718763
0.720822
0.722211
0.722998
0.72336
0.723437
0.723335
0.723128
0.722935
0.722792
0.722644
0.701761
0.701947
0.702392
0.703277
0.704495
0.705975
0.707737
0.709842
0.712314
0.715101
0.717666
0.719489
0.720629
0.721277
0.721586
0.721664
0.721601
0.721502
0.721405
0.721276
0.696435
0.696588
0.697028
0.697956
0.699277
0.700909
0.702881
0.705287
0.708179
0.711538
0.714732
0.717102
0.718685
0.719682
0.720266
0.720548
0.720628
0.720621
0.720566
0.720452
0.690722
0.690846
0.691291
0.692284
0.693746
0.695581
0.697837
0.700629
0.704048
0.708111
0.712075
0.715115
0.717236
0.718641
0.719532
0.720059
0.720308
0.720398
0.720381
0.720279
0.684513
0.684606
0.685073
0.686161
0.687809
0.689912
0.692541
0.69585
0.699951
0.704887
0.7098
0.713654
0.71639
0.71827
0.71952
0.720306
0.72075
0.720943
0.720966
0.720872
0.677674
0.677751
0.678233
0.679427
0.681308
0.683739
0.686833
0.690773
0.695736
0.701785
0.707838
0.712643
0.716147
0.718623
0.720325
0.721436
0.7221
0.722407
0.722472
0.722383
0.669939
0.670004
0.670545
0.671866
0.67402
0.676869
0.68054
0.685262
0.691252
0.698619
0.706108
0.712136
0.716568
0.719762
0.722041
0.723579
0.724523
0.72497
0.725076
0.724989
0.661082
0.661121
0.66173
0.663244
0.66576
0.669151
0.67358
0.679344
0.686707
0.695771
0.704952
0.712361
0.717872
0.72191
0.724863
0.726896
0.72818
0.728791
0.728938
0.728847
0.650661
0.650688
0.651384
0.653147
0.656117
0.660194
0.665578
0.672624
0.681642
0.692752
0.704035
0.713172
0.720014
0.725082
0.728851
0.731497
0.733196
0.733991
0.734177
0.734073
0.638036
0.63806
0.638889
0.641008
0.644625
0.649657
0.65634
0.665104
0.676282
0.68995
0.703723
0.714832
0.723189
0.729437
0.734135
0.73749
0.739647
0.740637
0.740856
0.740732
0.622374
0.622402
0.62345
0.626119
0.630669
0.637032
0.645481
0.656504
0.670416
0.687215
0.703943
0.717371
0.72747
0.73507
0.740815
0.744967
0.747611
0.748794
0.749039
0.748889
0.602496
0.602537
0.603936
0.607473
0.61342
0.621706
0.632623
0.646674
0.664075
0.684669
0.704854
0.720907
0.732965
0.742071
0.748992
0.754007
0.75716
0.758528
0.758792
0.758613
0.576624
0.576701
0.578722
0.583697
0.591883
0.603047
0.617499
0.63561
0.657414
0.682539
0.706657
0.725617
0.739828
0.750589
0.758773
0.764734
0.768394
0.769924
0.770191
0.769981
0.541793
0.542004
0.545285
0.552901
0.564867
0.580491
0.599983
0.623436
0.65064
0.681017
0.709504
0.731615
0.748128
0.760677
0.770245
0.777202
0.781347
0.782989
0.783233
0.782986
0.492315
0.493399
0.500001
0.513013
0.531508
0.553997
0.580432
0.61064
0.644222
0.680474
0.713639
0.739029
0.757928
0.772319
0.783376
0.791346
0.795916
0.797595
0.797778
0.797489
0.419364
0.42687
0.442113
0.465113
0.493275
0.524877
0.559788
0.597799
0.638513
0.681236
0.719546
0.748603
0.770227
0.786806
0.79966
0.80879
0.8139
0.815724
0.81592
0.815678
0.341138
0.358072
0.382708
0.416358
0.454657
0.495565
0.539064
0.585133
0.633476
0.683511
0.72811
0.761971
0.787283
0.806832
0.82208
0.832841
0.838628
0.840581
0.840832
0.840756
0.275533
0.295557
0.328087
0.370653
0.417858
0.467537
0.51937
0.573323
0.629128
0.686227
0.736791
0.775139
0.803882
0.826098
0.843248
0.855035
0.861274
0.863666
0.863955
0.863955
0.221853
0.243776
0.281663
0.330543
0.384769
0.441777
0.500957
0.562137
0.624922
0.688695
0.744848
0.787282
0.81899
0.843305
0.861787
0.874709
0.882003
0.884362
0.884727
0.884781
0.177315
0.200341
0.241775
0.295728
0.355608
0.418655
0.484103
0.551672
0.620809
0.690751
0.752048
0.798144
0.832345
0.858356
0.878061
0.891803
0.899697
0.902418
0.902948
0.90304
0.139359
0.163004
0.20724
0.265055
0.329629
0.397808
0.468697
0.541918
0.616788
0.692381
0.758383
0.807729
0.844078
0.871461
0.89205
0.906427
0.914793
0.917964
0.918663
0.918773
0.106056
0.130104
0.176482
0.237501
0.305988
0.378615
0.454321
0.532625
0.612738
0.693547
0.763883
0.816142
0.854309
0.882788
0.90406
0.918932
0.927643
0.931139
0.931954
0.932058
0.0759553
0.10037
0.14845
0.212152
0.284008
0.360515
0.44053
0.523475
0.608442
0.694144
0.768543
0.823489
0.863263
0.892668
0.914428
0.929638
0.938555
0.942273
0.943142
0.943231
0.0481205
0.0728846
0.12241
0.188365
0.263157
0.343087
0.426979
0.514178
0.603688
0.694045
0.772357
0.829882
0.871177
0.901445
0.923645
0.939091
0.948142
0.95196
0.952856
0.952897
0.0217746
0.0469286
0.0978452
0.165691
0.243058
0.326017
0.413411
0.504529
0.598305
0.693137
0.775301
0.835407
0.878246
0.909374
0.93204
0.947668
0.956785
0.960628
0.961577
0.96159
-0.00344889
0.0221401
0.0741205
0.143802
0.223436
0.309098
0.399662
0.494386
0.592172
0.691335
0.777356
0.840136
0.884632
0.916704
0.939859
0.955689
0.964829
0.968611
0.969529
0.969536
-0.0279471
-0.00178726
0.0511098
0.122481
0.204104
0.292188
0.385627
0.483664
0.585209
0.688566
0.778502
0.844132
0.890454
0.923608
0.947333
0.96339
0.97255
0.976276
0.977075
0.977024
-0.05185
-0.0252236
0.0287607
0.101577
0.184963
0.275216
0.371248
0.472319
0.577372
0.684787
0.778715
0.847416
0.895801
0.930198
0.95459
0.970897
0.980025
0.983619
0.984312
0.984183
-0.0752829
-0.0480765
0.0068904
0.0810101
0.165985
0.258165
0.35652
0.460343
0.568649
0.67996
0.777931
0.849961
0.900693
0.93655
0.961697
0.978241
0.987255
0.990635
0.991181
0.990993
-0.0983174
-0.0704775
-0.0145864
0.0607595
0.147153
0.24105
0.341474
0.44777
0.559051
0.674051
0.776075
0.851685
0.905124
0.942722
0.96873
0.985457
0.994243
0.997307
0.997698
0.997467
-0.120962
-0.092424
-0.0356173
0.0408432
0.128507
0.22391
0.326164
0.434651
0.548613
0.66704
0.773067
0.852483
0.90904
0.948771
0.975809
0.992603
1.00095
1.00358
1.00379
1.00353
-0.143048
-0.113853
-0.0561637
0.0212996
0.110089
0.206816
0.310658
0.421068
0.537402
0.658957
0.768843
0.852232
0.91231
0.954714
0.983127
0.999877
1.00741
1.00938
1.0094
1.00912
-0.164536
-0.134722
-0.0762019
0.00218317
0.091962
0.189835
0.295053
0.407107
0.525506
0.649842
0.763362
0.850776
0.914745
0.960472
0.990926
1.00774
1.01393
1.01473
1.01443
1.01419
-0.185491
-0.154982
-0.0956928
-0.0164666
0.0741929
0.173054
0.27944
0.392878
0.513027
0.639771
0.756585
0.847973
0.916084
0.965775
0.999322
1.01699
1.0215
1.0201
1.01893
1.01891
-0.205725
-0.174609
-0.114569
-0.0345807
0.0568433
0.156557
0.263919
0.378495
0.500088
0.628853
0.748518
0.843687
0.916026
0.970112
1.00796
1.02832
1.03229
1.02793
1.0241
1.02319
-0.225327
-0.193596
-0.132841
-0.0521848
0.0398806
0.140298
0.248432
0.363898
0.486617
0.617014
0.739026
0.837654
0.914242
0.972781
1.01577
1.04137
1.04823
1.04358
1.03305
1.02207
-0.244217
-0.211926
-0.150635
-0.0694715
0.0230104
0.123937
0.232556
0.348592
0.472058
0.603595
0.727425
0.829025
0.910077
0.972726
1.02035
1.05254
1.06349
1.05426
1.03505
1.0254
-0.262214
-0.229602
-0.167773
-0.0862225
0.00651541
0.107806
0.216515
0.332911
0.456735
0.588882
0.713867
0.817389
0.902975
0.96887
1.01677
1.04887
1.06358
1.04204
0.974592
0.943993
-0.278847
-0.247814
-0.183881
-0.10186
-0.00886365
0.0924212
0.200607
0.317108
0.4409
0.573038
0.698385
0.802482
0.891937
0.960948
1.00097
1.02527
1.02356
0.972807
0.903385
0.86109
-0.329341
-0.26479
-0.198708
-0.117219
-0.0243565
0.0765361
0.184854
0.300968
0.424252
0.55567
0.680481
0.78398
0.873471
0.94909
0.961468
0.967219
0.928771
0.864061
0.788554
0.746629
-0.296293
-0.279453
-0.220619
-0.139278
-0.0473348
0.0532767
0.16069
0.275967
0.398
0.527525
0.6498
0.75083
0.831111
0.909381
0.904972
0.800044
0.700634
0.630743
0.559338
0.594237
-0.328127
-0.297857
-0.237708
-0.157055
-0.0650309
0.0352475
0.142777
0.257342
0.378214
0.505771
0.624989
0.722082
0.794103
0.835563
0.792002
0.650601
0.528617
0.440652
0.344066
0.397634
-0.35232
-0.319617
-0.257691
-0.176811
-0.0847434
0.0153987
0.122768
0.236432
0.355809
0.480827
0.596125
0.687525
0.749761
0.75803
0.656895
0.489907
0.342995
0.227843
0.100031
0.137793
-0.376031
-0.341929
-0.278666
-0.196982
-0.104753
-0.0047564
0.102078
0.214708
0.332392
0.454519
0.56508
0.650012
0.696891
0.674078
0.52016
0.328545
0.145058
-0.0190067
-0.205236
-0.211037
-0.399227
-0.364668
-0.300477
-0.218084
-0.125636
-0.0258347
0.0803438
0.191828
0.307578
0.426472
0.531715
0.609442
0.638157
0.580423
0.390153
0.181544
-0.0294426
-0.208819
-0.459513
-0.732605
-0.422737
-0.388127
-0.323413
-0.240516
-0.147835
-0.0481696
0.0574264
0.167749
0.28148
0.396942
0.496653
0.565949
0.57598
0.4679
0.276468
0.0653704
-0.139443
-0.304362
-0.380116
-0.497315
-0.447502
-0.412793
-0.347796
-0.264621
-0.171843
-0.0724
0.0325242
0.141522
0.252925
0.364459
0.458222
0.517286
0.502875
0.359941
0.174809
-0.0194351
-0.187131
-0.278501
-0.301335
-0.318296
-0.4738
-0.438981
-0.373785
-0.290485
-0.197787
-0.0987243
0.00529629
0.112672
0.221337
0.328286
0.415661
0.461414
0.428021
0.258894
0.0825324
-0.0863459
-0.214552
-0.252793
-0.265774
-0.266976
-0.501839
-0.466841
-0.401426
-0.318091
-0.225602
-0.127131
-0.0242559
0.08117
0.186665
0.288404
0.368629
0.399853
0.348419
0.164769
-0.00215724
-0.151412
-0.229613
-0.246286
-0.247616
-0.247535
-0.531661
-0.496373
-0.430728
-0.347419
-0.255285
-0.157588
-0.056112
0.0470238
0.148933
0.244904
0.316935
0.336246
0.24951
0.0780411
-0.081147
-0.201627
-0.237044
-0.237707
-0.238242
-0.237778
-0.562963
-0.52752
-0.461572
-0.378364
-0.286722
-0.190011
-0.0902078
0.0102977
0.108189
0.19792
0.261229
0.263837
0.154863
-0.00354153
-0.144494
-0.220853
-0.230668
-0.233129
-0.233501
-0.233356
-0.59516
-0.559623
-0.493704
-0.410685
-0.3197
-0.224205
-0.126347
-0.0288259
0.0646483
0.147766
0.202239
0.187564
0.0669752
-0.0757983
-0.192679
-0.226165
-0.23327
-0.232104
-0.23116
-0.230803
-0.627795
-0.592136
-0.526647
-0.44397
-0.353834
-0.259805
-0.164191
-0.0699973
0.0186817
0.0950889
0.139283
0.111107
-0.0195257
-0.14102
-0.226607
-0.247152
-0.237182
-0.234356
-0.232869
-0.231864
-0.660027
-0.624554
-0.559463
-0.477547
-0.388545
-0.29628
-0.203211
-0.112647
-0.0291273
0.0406622
0.0742318
0.0370006
-0.105578
-0.201817
-0.24109
-0.245123
-0.246936
-0.245357
-0.243016
-0.241699
-0.690256
-0.655744
-0.591265
-0.51048
-0.423012
-0.332854
-0.242657
-0.15594
-0.0778705
-0.0146722
0.0122885
-0.0439639
-0.19059
-0.285239
-0.278377
-0.287683
-0.26994
-0.254935
-0.251295
-0.250516
-0.716979
-0.683335
-0.621053
-0.541634
-0.456162
-0.368501
-0.281538
-0.198822
-0.126159
-0.0698388
-0.0453298
-0.124674
-0.279087
-0.400174
-0.381954
-0.347244
-0.315001
-0.296288
-0.287988
-0.284605
-0.738186
-0.70635
-0.64647
-0.569597
-0.486671
-0.401988
-0.318586
-0.240051
-0.172323
-0.123288
-0.0999447
-0.188688
-0.346605
-0.544492
-0.568829
-0.468873
-0.437185
-0.421199
-0.405466
-0.395246
-0.751856
-0.722644
-0.666046
-0.592487
-0.512961
-0.431866
-0.352358
-0.27812
-0.214762
-0.172312
-0.149248
-0.223801
-0.33012
-0.515142
-0.593604
-0.548293
-0.561261
-0.559443
-0.543307
-0.537332
-0.755463
-0.730128
-0.677938
-0.608623
-0.533319
-0.456534
-0.381244
-0.311312
-0.251918
-0.213638
-0.18639
-0.234637
-0.204291
-0.178528
-0.307883
-0.440589
-0.524046
-0.542423
-0.550247
-0.553312
-0.747334
-0.726612
-0.680137
-0.616449
-0.546273
-0.474395
-0.403588
-0.337773
-0.282287
-0.246052
-0.218576
-0.264669
-0.170721
0.159521
0.0682597
-0.330957
-0.564957
-0.590155
-0.599986
-0.600532
-0.725307
-0.70929
-0.671068
-0.614853
-0.550829
-0.484232
-0.417874
-0.355495
-0.303669
-0.270158
-0.269922
-0.384644
-0.553597
-0.595161
-0.836062
-1.0302
-0.995102
-0.830176
-0.72786
-0.741781
-0.691378
-0.680666
-0.651245
-0.604051
-0.546872
-0.485596
-0.423077
-0.3629
-0.311522
-0.280411
-0.291539
-0.546045
-1.19469
-2.137
-2.62208
-2.78549
-2.5492
-2.11812
-1.75623
-1.61363
-0.650939
-0.644738
-0.624748
-0.586366
-0.536002
-0.479028
-0.418925
-0.358688
-0.303477
-0.265864
-0.280252
-0.516804
-1.08334
-1.76451
-2.18697
-2.29971
-2.13945
-1.8735
-1.6151
-1.47856
-0.611625
-0.608138
-0.596784
-0.566696
-0.521229
-0.466776
-0.40661
-0.342882
-0.27909
-0.220221
-0.184187
-0.20561
-0.257069
-0.165025
-0.0135582
0.245317
0.504903
0.702392
0.840366
0.904127
-0.580016
-0.57793
-0.572182
-0.549575
-0.507562
-0.452508
-0.389548
-0.318133
-0.240683
-0.150694
-0.04991
0.097295
0.412781
0.936994
1.53648
2.07228
2.46447
2.68918
2.77904
2.80307
-0.553199
-0.552464
-0.551037
-0.536641
-0.497855
-0.440575
-0.372285
-0.293484
-0.202605
-0.0980286
0.027673
0.158748
0.478289
1.00943
1.5978
2.11455
2.48132
2.69566
2.79586
2.82527
-0.533495
-0.533203
-0.533237
-0.525139
-0.49069
-0.431332
-0.357466
-0.273495
-0.177286
-0.0690617
0.044749
0.163564
0.351085
0.823683
1.31957
1.74257
2.06429
2.25542
2.34155
2.36486
-0.516417
-0.515579
-0.51545
-0.512777
-0.483877
-0.422976
-0.344979
-0.258014
-0.163538
-0.0587848
0.0449024
0.15223
0.27698
0.606456
1.00427
1.32718
1.56662
1.70364
1.76552
1.78279
-0.507567
-0.506262
-0.5067
-0.505964
-0.477946
-0.412842
-0.330883
-0.242761
-0.150842
-0.0508197
0.0446742
0.135611
0.227818
0.434846
0.714363
0.9456
1.11748
1.2154
1.25714
1.26741
-0.504159
-0.505766
-0.509932
-0.507648
-0.471478
-0.395943
-0.309342
-0.222371
-0.135684
-0.0454575
0.0351831
0.105195
0.166495
0.31435
0.504599
0.657902
0.771219
0.8375
0.866965
0.872618
-0.470858
-0.476253
-0.483807
-0.477154
-0.434112
-0.356889
-0.273992
-0.194736
-0.118974
-0.0422592
0.0265536
0.0824119
0.133432
0.223137
0.354026
0.457397
0.530217
0.570572
0.586502
0.588873
-0.361406
-0.367752
-0.374167
-0.367878
-0.333815
-0.277809
-0.216885
-0.155779
-0.0960507
-0.0344562
0.0211704
0.0637498
0.103752
0.160158
0.242306
0.309888
0.3583
0.385194
0.395785
0.396428
-0.200467
-0.204211
-0.208934
-0.208611
-0.195892
-0.172615
-0.142392
-0.107422
-0.0681064
-0.0241923
0.01608
0.0477904
0.0801198
0.11512
0.165429
0.210307
0.240771
0.258426
0.26479
0.264391
-0.055767
-0.0575128
-0.0617329
-0.0689397
-0.0755149
-0.0776905
-0.0724944
-0.0599547
-0.0395686
-0.0124812
0.0139546
0.036449
0.0591669
0.0817945
0.111827
0.140314
0.160974
0.172329
0.176543
0.175571
0.0341016
0.0331805
0.0290167
0.0185876
0.00287955
-0.0114386
-0.0200679
-0.0211973
-0.0144147
-0.000637667
0.0143524
0.0267839
0.0372964
0.0508694
0.0720543
0.0924044
0.106269
0.113374
0.115461
0.114229
0.0743428
0.0736699
0.0700772
0.060343
0.0447382
0.0282926
0.0149748
0.00695429
0.00543612
0.00973776
0.015182
0.0176145
0.0174993
0.0244392
0.0422924
0.0581792
0.0683756
0.0730364
0.0741214
0.0729334
0.0854871
0.0849288
0.0821986
0.0748389
0.0625502
0.0484586
0.0355609
0.0258476
0.0204183
0.0190445
0.017921
0.0133757
0.00710012
0.0118326
0.0258512
0.0378469
0.0451211
0.0480914
0.0486678
0.0476931
0.0834581
0.0830185
0.0811331
0.0761919
0.0676607
0.0571962
0.0466607
0.0377244
0.031348
0.027518
0.0237529
0.0163742
0.00792231
0.0128199
0.0247782
0.0332592
0.0373198
0.0384821
0.0384294
0.0376055
0.0768686
0.0765274
0.0752827
0.0721944
0.0667121
0.059564
0.0518565
0.0448589
0.0394519
0.0361626
0.0328801
0.0274227
0.0220536
0.0275363
0.035933
0.0407762
0.0427146
0.0427828
0.042503
0.0417323
0.0696968
0.0694358
0.0686257
0.0667724
0.0634394
0.0588761
0.05372
0.0488951
0.0452206
0.0435621
0.044176
0.0445735
0.0456825
0.0514685
0.0556847
0.0571115
0.0574367
0.0573969
0.0571633
0.0564342
0.0633795
0.0631844
0.0626454
0.0615079
0.0595513
0.0567655
0.0535256
0.0505726
0.0488816
0.05002
0.0555371
0.0639192
0.071803
0.0774304
0.0778869
0.0771618
0.0772117
0.0776868
0.0776643
0.07677
0.058012
0.057872
0.0575033
0.056742
0.0555692
0.0538731
0.0519244
0.0503622
0.0503083
0.0535952
0.0635027
0.0796405
0.095467
0.0987795
0.0947059
0.0928206
0.094467
0.0963963
0.096459
0.0951924
0.0532031
0.0531036
0.0528506
0.0522533
0.0513514
0.0502949
0.0491062
0.0482764
0.048881
0.0530028
0.0648977
0.0853974
0.105173
0.106772
0.1001
0.0988596
0.099911
0.102914
0.102889
0.101546
0.0485196
0.0484527
0.0482942
0.0478097
0.0470571
0.0460426
0.0451851
0.044401
0.0446192
0.0472077
0.0574833
0.0762791
0.0940425
0.0915709
0.0848333
0.0847718
0.0895654
0.0926388
0.0920029
0.0905345
0.0436745
0.0436271
0.0435449
0.0431934
0.0425448
0.0416784
0.0403211
0.0393416
0.0383934
0.0380852
0.0408661
0.0493944
0.0579013
0.0525216
0.0493043
0.0533439
0.0588121
0.0613749
0.0603936
0.0590113
0.0383804
0.0383624
0.0383914
0.038324
0.0377677
0.0369741
0.035595
0.0335939
0.0309265
0.0266541
0.0197285
0.0113073
0.00232325
-0.00403628
-0.000802731
0.00556444
0.0103981
0.0118116
0.0109491
0.0100316
0.0323199
0.0322857
0.0323201
0.0325009
0.0323674
0.0317325
0.0306552
0.0285364
0.0244778
0.0164755
0.000997796
-0.0265805
-0.051876
-0.0576264
-0.0501964
-0.0446328
-0.0450559
-0.046184
-0.0465266
-0.0469295
0.025846
0.0257651
0.025855
0.026069
0.0265833
0.0269949
0.0267072
0.0247933
0.0205183
0.0108013
-0.00868607
-0.0459189
-0.0809949
-0.0846692
-0.0804525
-0.085821
-0.0941366
-0.0986075
-0.0979037
-0.0974336
0.0188435
0.0187717
0.0189716
0.0194956
0.020181
0.0206048
0.0208588
0.0207583
0.0184816
0.0108143
-0.00796842
-0.0398753
-0.0698352
-0.075487
-0.0811536
-0.0990171
-0.117913
-0.125668
-0.124417
-0.122827
0.0108887
0.0108255
0.011025
0.0120598
0.013365
0.0143873
0.0150575
0.015144
0.013612
0.00971501
0.00160645
-0.0163727
-0.0316082
-0.0410327
-0.0553791
-0.0747573
-0.0930531
-0.101033
-0.0998043
-0.0973035
0.00266259
0.00248818
0.00217801
0.00159157
0.000952492
0.000664111
0.000823925
0.00141679
0.00237441
0.00295506
0.00607525
0.0100576
0.00459507
-0.00133195
-0.010608
-0.0182423
-0.0231561
-0.0249482
-0.0230499
-0.020652
-0.0108938
0.182142
0.389513
0.562623
0.701548
0.811968
0.904234
0.981428
1.01272
0.996582
0.325274
0.452338
0.585044
0.699835
0.796848
0.877523
0.942459
0.987901
1.01155
1.02427
0.551719
0.637687
0.727737
0.808089
0.877167
0.934881
0.980552
1.01414
1.03869
1.05646
0.715411
0.776156
0.839733
0.898204
0.948912
0.991847
1.02708
1.05549
1.07843
1.09663
0.843394
0.887058
0.935049
0.979246
1.01862
1.05296
1.08235
1.10707
1.12714
1.14504
0.948847
0.982521
1.0217
1.05771
1.0907
1.12034
1.14629
1.16826
1.18547
1.20305
1.04242
1.07167
1.10616
1.13872
1.16895
1.19641
1.22047
1.24048
1.25521
1.27266
1.13163
1.16128
1.1955
1.22788
1.25769
1.28447
1.30754
1.32609
1.33882
1.35628
1.22732
1.26103
1.2976
1.33147
1.36163
1.38788
1.40987
1.42702
1.43852
1.45633
1.34244
1.3811
1.4194
1.45368
1.48301
1.50774
1.52808
1.54382
1.55518
1.57353
1.48729
1.52683
1.56244
1.59287
1.61848
1.64057
1.6596
1.67515
1.68781
1.70595
1.6621
1.69419
1.72001
1.74237
1.76244
1.7812
1.79884
1.8154
1.83116
1.84935
1.84975
1.86733
1.88288
1.89948
1.91565
1.9302
1.94324
1.95721
1.97431
1.99399
2.0314
2.04235
2.0545
2.0653
2.07456
2.08412
2.09502
2.10661
2.11656
2.13174
2.24241
2.24443
2.22928
2.21405
2.20767
2.21334
2.23195
2.26237
2.29451
2.32526
2.54831
2.41126
2.33498
2.29291
2.27547
2.2795
2.30686
2.363
2.46646
2.68175
0.837153
0.833776
0.827845
0.818033
0.805083
0.79265
0.782324
0.774354
0.768665
0.765337
0.764908
0.767585
0.772656
0.77987
0.789282
0.800953
0.814071
0.826053
0.833505
0.838221
0.755176
0.76106
0.767962
0.773196
0.776033
0.775693
0.772772
0.768826
0.765224
0.762882
0.762655
0.764787
0.76842
0.772735
0.776652
0.778631
0.777502
0.773398
0.767496
0.760448
0.747543
0.74989
0.753235
0.756134
0.758341
0.760127
0.761066
0.76078
0.759708
0.758751
0.758839
0.760188
0.761941
0.763169
0.763176
0.761975
0.760145
0.757786
0.754619
0.75165
0.74243
0.743516
0.745377
0.74775
0.749698
0.751073
0.752144
0.752966
0.753385
0.753561
0.753961
0.754656
0.755124
0.75503
0.754459
0.753549
0.752116
0.750035
0.747907
0.746488
0.737373
0.738028
0.739132
0.740844
0.742636
0.744234
0.745473
0.746458
0.74732
0.74806
0.748685
0.749096
0.749148
0.748869
0.748247
0.747167
0.745689
0.744084
0.742739
0.741951
0.732501
0.732956
0.733735
0.735022
0.736502
0.738015
0.739451
0.74069
0.741754
0.742719
0.743504
0.743921
0.743937
0.743567
0.742791
0.741719
0.740523
0.739342
0.738405
0.737879
0.727773
0.728114
0.72872
0.729779
0.731056
0.732413
0.733829
0.735228
0.736519
0.73768
0.738629
0.739148
0.739172
0.738762
0.738041
0.737163
0.736234
0.735312
0.734608
0.734221
0.723155
0.723419
0.723908
0.72481
0.725966
0.72724
0.728603
0.730042
0.7315
0.732883
0.734037
0.734693
0.734794
0.734493
0.733949
0.733266
0.732519
0.731803
0.731271
0.730975
0.718574
0.718784
0.71919
0.719985
0.721064
0.722289
0.723635
0.725108
0.726681
0.72828
0.729683
0.730541
0.730827
0.730725
0.730376
0.729878
0.729305
0.728757
0.728356
0.728124
0.713956
0.714123
0.714471
0.715195
0.716231
0.717435
0.718801
0.720338
0.722036
0.723849
0.725541
0.7267
0.727258
0.727398
0.727258
0.726944
0.726543
0.72614
0.725846
0.725661
0.709227
0.70936
0.709666
0.710348
0.711369
0.712597
0.714023
0.715671
0.717547
0.719621
0.721669
0.723206
0.724091
0.724502
0.724587
0.724462
0.724224
0.723957
0.72375
0.723603
0.704315
0.704419
0.704696
0.705362
0.706406
0.707703
0.709238
0.711059
0.713194
0.715619
0.718112
0.720099
0.721352
0.722059
0.722387
0.722458
0.722379
0.722235
0.722102
0.721985
0.699144
0.699223
0.699482
0.700154
0.701256
0.702662
0.704353
0.706401
0.708861
0.711738
0.714789
0.717313
0.719003
0.720062
0.720673
0.720969
0.721054
0.72103
0.720965
0.720874
0.693633
0.693689
0.693937
0.694636
0.695829
0.697382
0.699278
0.701613
0.704474
0.707906
0.711642
0.714832
0.717066
0.718555
0.7195
0.720061
0.720324
0.720427
0.720426
0.720358
0.687688
0.687722
0.687967
0.688709
0.690019
0.691765
0.693938
0.696658
0.70003
0.704136
0.708712
0.712734
0.715636
0.717637
0.718949
0.719783
0.72029
0.720534
0.720599
0.720552
0.681188
0.681195
0.681433
0.682237
0.683708
0.685713
0.688242
0.691456
0.695513
0.700519
0.706142
0.711129
0.714786
0.717381
0.719159
0.720327
0.721083
0.721476
0.721611
0.721583
0.673926
0.673917
0.674182
0.675056
0.676711
0.679004
0.681969
0.685775
0.690626
0.696682
0.703582
0.709798
0.71444
0.717791
0.720146
0.721765
0.722843
0.723421
0.723633
0.723623
0.665663
0.665624
0.665912
0.666905
0.668798
0.671485
0.675015
0.679607
0.685515
0.692927
0.701401
0.709074
0.714837
0.719054
0.722097
0.724277
0.725736
0.726541
0.726839
0.726843
0.656078
0.656017
0.656348
0.657494
0.659684
0.662868
0.667116
0.672698
0.679928
0.689028
0.699431
0.708856
0.715991
0.721275
0.725144
0.72797
0.729899
0.730979
0.731373
0.731385
0.644616
0.644533
0.644935
0.646288
0.648884
0.652728
0.657922
0.664793
0.673703
0.684889
0.697648
0.709197
0.717953
0.724485
0.729347
0.732951
0.735443
0.736832
0.737323
0.737335
0.630547
0.630443
0.630972
0.632654
0.635833
0.640617
0.647123
0.655736
0.666859
0.6807
0.696303
0.710316
0.720923
0.72889
0.734878
0.73933
0.742446
0.744161
0.744746
0.744753
0.61288
0.612758
0.613496
0.615687
0.619734
0.625864
0.634192
0.645148
0.659127
0.676253
0.695271
0.71217
0.724921
0.734501
0.74177
0.7472
0.750987
0.753035
0.753706
0.753704
0.59017
0.590042
0.59113
0.594123
0.599547
0.607704
0.618682
0.632891
0.650617
0.671819
0.694849
0.715011
0.730138
0.741508
0.750167
0.756661
0.761163
0.763537
0.764282
0.764265
0.560131
0.560036
0.561755
0.566151
0.573891
0.585271
0.600175
0.618863
0.641399
0.66752
0.695163
0.718951
0.736666
0.749992
0.760159
0.767823
0.773053
0.775725
0.776517
0.776475
0.518691
0.518773
0.52189
0.529197
0.541187
0.557844
0.578564
0.603287
0.631832
0.663716
0.696494
0.724175
0.744625
0.760004
0.771789
0.780697
0.786645
0.789533
0.790322
0.790245
0.45822
0.459453
0.467064
0.480866
0.500589
0.525572
0.554427
0.58683
0.622484
0.660823
0.699093
0.730807
0.754041
0.771509
0.784924
0.795078
0.801672
0.804655
0.805338
0.805217
0.385639
0.387879
0.402477
0.426332
0.456872
0.491593
0.529338
0.56998
0.613338
0.658923
0.703737
0.740652
0.767747
0.788242
0.804026
0.815806
0.823328
0.826643
0.827477
0.827483
0.311016
0.317684
0.339283
0.373236
0.414012
0.458299
0.504932
0.553879
0.60504
0.658004
0.709575
0.751925
0.783073
0.806797
0.825245
0.838935
0.847402
0.850524
0.851243
0.851368
0.250512
0.259101
0.285285
0.326262
0.374939
0.42731
0.481939
0.538638
0.597233
0.65726
0.715241
0.762662
0.797514
0.824027
0.84444
0.859412
0.868321
0.872098
0.873401
0.873609
0.201086
0.21026
0.239927
0.285944
0.340689
0.399561
0.460909
0.524426
0.589775
0.65637
0.720339
0.77241
0.81051
0.839292
0.861291
0.87737
0.887314
0.891809
0.893356
0.893599
0.159699
0.169076
0.201061
0.250947
0.310606
0.374865
0.441895
0.511341
0.582723
0.655308
0.724785
0.781069
0.821994
0.852666
0.87593
0.892894
0.903629
0.908657
0.910437
0.910719
0.123885
0.133329
0.167031
0.220038
0.283693
0.352504
0.424488
0.499177
0.575983
0.654043
0.728586
0.78869
0.832086
0.86432
0.888543
0.906198
0.917607
0.923097
0.925008
0.925299
0.0920586
0.101516
0.136511
0.192123
0.259076
0.331802
0.40815
0.48755
0.569323
0.652449
0.731711
0.795327
0.840906
0.874446
0.899435
0.917626
0.929354
0.935217
0.937232
0.937537
0.0629797
0.0724768
0.10854
0.166316
0.236087
0.312217
0.392435
0.476113
0.562466
0.650351
0.734091
0.801037
0.848644
0.883363
0.909004
0.927531
0.939514
0.945576
0.947639
0.947952
0.0358074
0.0453592
0.0824047
0.142009
0.214229
0.293342
0.377015
0.464585
0.555194
0.647589
0.735658
0.805858
0.855461
0.891319
0.917602
0.936457
0.948562
0.954746
0.95679
0.957065
0.00998435
0.0196233
0.0575854
0.118704
0.193148
0.274888
0.361661
0.452782
0.547348
0.644033
0.736342
0.80982
0.861478
0.898544
0.925482
0.944671
0.956923
0.963078
0.965121
0.965306
-0.0149651
-0.00512552
0.0335963
0.0961815
0.172589
0.256654
0.346221
0.440581
0.538824
0.639592
0.736087
0.812949
0.86681
0.905214
0.932895
0.952436
0.964811
0.970938
0.972903
0.973092
-0.0392716
-0.0291986
0.010268
0.0742798
0.152383
0.238519
0.330604
0.427916
0.529558
0.63421
0.734854
0.815251
0.871531
0.911452
0.939997
0.959959
0.972456
0.978524
0.980367
0.980512
-0.0630243
-0.0527198
-0.0124262
0.0528379
0.132452
0.220441
0.314775
0.414756
0.519526
0.627843
0.732595
0.816706
0.87567
0.917334
0.946883
0.967311
0.97989
0.985817
0.987505
0.987576
-0.0863439
-0.0757186
-0.0346936
0.0317752
0.112765
0.202404
0.298739
0.401118
0.508738
0.620487
0.729252
0.817239
0.879197
0.922902
0.953625
0.974539
0.987132
0.992841
0.994306
0.99429
-0.109205
-0.0982794
-0.0564786
0.0110842
0.0933265
0.184429
0.282542
0.387048
0.49723
0.612136
0.724772
0.816751
0.882043
0.928174
0.96031
0.981723
0.994171
0.999498
1.0007
1.00061
-0.131638
-0.120371
-0.0777621
-0.00919323
0.0741703
0.166561
0.266235
0.372617
0.485065
0.602822
0.719119
0.815147
0.884093
0.933118
0.967048
0.989011
1.00107
1.00578
1.00664
1.00647
-0.153436
-0.141909
-0.098517
-0.0290156
0.055354
0.14888
0.249893
0.357903
0.472326
0.592613
0.712285
0.812329
0.885183
0.937621
0.973949
0.996712
1.00808
1.0117
1.01204
1.01181
-0.174729
-0.162839
-0.118707
-0.0483511
0.0369163
0.131432
0.233614
0.342997
0.459111
0.581604
0.70429
0.808193
0.885116
0.941456
0.980999
1.00528
1.01586
1.01762
1.01692
1.01657
-0.195348
-0.183124
-0.138296
-0.0671414
0.018941
0.114305
0.217485
0.328023
0.445536
0.569873
0.695185
0.802659
0.883686
0.944267
0.987896
1.01508
1.0257
1.02505
1.02193
1.02065
-0.215335
-0.202798
-0.15722
-0.0853273
0.00147025
0.0975702
0.201592
0.313067
0.431719
0.557566
0.685061
0.795661
0.880703
0.945597
0.993875
1.02566
1.03885
1.03746
1.03039
1.02042
-0.234609
-0.221826
-0.175562
-0.103064
-0.015711
0.0809401
0.185588
0.297712
0.417193
0.544152
0.673354
0.786566
0.875591
0.944871
0.997814
1.03557
1.05476
1.05592
1.04593
1.03943
-0.253111
-0.240189
-0.19332
-0.120297
-0.0325825
0.0644269
0.169504
0.281945
0.401926
0.529527
0.659909
0.775015
0.867692
0.94133
0.997339
1.0393
1.06172
1.06786
1.03112
0.982711
-0.270543
-0.257215
-0.210448
-0.136928
-0.0491933
0.0479343
0.153318
0.265892
0.385988
0.513758
0.644676