/*--------------------------------*- C++ -*----------------------------------*\
| =========                 |                                                 |
| \\      /  F ield         | OpenFOAM: The Open Source CFD Toolbox           |
|  \\    /   O peration     | Version:  2306                                  |
|   \\  /    A nd           | Website:  www.openfoam.com                      |
|    \\/     M anipulation  |                                                 |
\*---------------------------------------------------------------------------*/
FoamFile
{
    version     2.0;
    format      ascii;
    arch        "LSB;label=32;scalar=64";
    class       surfaceScalarField;
    location    "37";
    object      phi;
}
// * * * * * * * * * * * * * * * * * * * * * * * * * * * * * * * * * * * * * //

dimensions      [0 3 -1 0 0 0 0];

oriented        oriented;

internalField   nonuniform List<scalar> 
17370
(
-0.0910992
0.0935443
0.286566
-0.0749528
0.056952
0.364776
-0.0409344
0.0299496
0.427153
-0.0211928
0.0155902
0.504854
-0.0113371
0.00863462
0.602105
-0.00650033
0.00504935
0.720508
-0.0038375
0.00297592
0.863768
-0.00221959
0.00165248
1.03602
-0.00112896
0.00071296
1.24292
-0.000305698
-8.86043e-05
1.49159
0.000472679
-0.000875185
1.49159
0.00127622
-0.00178206
1.2432
0.00233497
-0.00307928
1.03638
0.00393365
-0.00513985
0.864113
0.00658537
-0.00871206
0.721184
0.0114065
-0.0156504
0.603458
0.0212446
-0.0299922
0.508187
0.0409685
-0.0569777
0.432177
0.0749726
-0.0935559
0.365359
0.091111
0.1979
-0.127344
0.088139
0.0392048
-0.364734
0.353783
-0.0726356
0.0835861
-0.446564
0.454365
-0.0817215
0.0739213
-0.520968
0.529522
-0.0658124
0.0572585
-0.612846
0.621014
-0.049506
0.0413375
-0.726997
0.733786
-0.0344078
0.0276188
-0.867513
0.872437
-0.0222814
0.0173575
-1.03855
1.04189
-0.0136534
0.0103164
-1.24471
1.24711
-0.0077711
0.00536641
-1.49283
1.49485
-0.00340366
0.00139253
-1.49269
1.4945
0.000421811
-0.00223501
-1.2441
1.24602
0.00420796
-0.00612151
-1.0376
1.04009
0.00846658
-0.0109579
-0.86616
0.869822
0.0142403
-0.0179018
-0.724482
0.729783
0.0227844
-0.0280854
-0.608892
0.615782
0.0348329
-0.0417232
-0.514992
0.522706
0.0498483
-0.0575615
-0.439772
0.447839
0.0660697
-0.0741367
-0.375162
0.377001
0.0818882
-0.0837276
-0.256925
0.223434
0.0727335
-0.0392427
-0.0686426
0.0589104
0.00973219
-0.0520917
0.058795
-0.374533
0.36783
-0.0579128
0.0540892
-0.453823
0.457646
-0.0487323
0.0443936
-0.527734
0.532073
-0.0401697
0.0363877
-0.621093
0.624875
-0.0321675
0.0281056
-0.734868
0.73893
-0.0236501
0.0196749
-0.874039
0.878014
-0.0155552
0.01205
-1.04339
1.04689
-0.00849256
0.00543695
-1.24865
1.25171
-0.00221277
-0.000780062
-1.49694
1.49993
0.00375256
-0.00692032
-1.49743
1.50059
0.00989683
-0.0133525
-1.2501
1.25356
0.0167613
-0.0207782
-1.04573
1.04975
0.024669
-0.0290419
-0.877329
0.881702
0.033032
-0.0371733
-0.739327
0.743469
0.0408836
-0.0450324
-0.62636
0.630509
0.049309
-0.0546064
-0.534951
0.540249
0.0583682
-0.0591725
-0.457934
0.458739
0.0523761
-0.0320183
-0.33642
0.316062
0.00978028
-0.0685187
0.0587385
-0.053148
0.0490959
0.00405214
-0.0331879
0.0436902
-0.358349
0.347846
-0.0474143
0.0468318
-0.459495
0.460077
-0.0438579
0.0405893
-0.536005
0.539274
-0.036879
0.0335449
-0.628422
0.631756
-0.0299856
0.0268472
-0.742237
0.745376
-0.023518
0.020372
-0.881554
0.8847
-0.0167971
0.0134351
-1.05037
1.05373
-0.00971708
0.00629246
-1.25499
1.25842
-0.00247933
-0.00116124
-1.5033
1.50694
0.00477451
-0.00850775
-1.50413
1.50786
0.0118239
-0.0153986
-1.25718
1.26075
0.01862
-0.0220413
-1.05352
1.05694
0.0250593
-0.028265
-0.885313
0.888519
0.0312985
-0.0347452
-0.746968
0.750415
0.0379769
-0.0415777
-0.634536
0.638137
0.0447532
-0.0476256
-0.544487
0.547359
0.0481047
-0.0442373
-0.456921
0.453054
0.033566
-0.016234
-0.296715
0.279383
0.00410949
-0.052926
0.0488165
-0.0459699
0.0434419
0.002528
-0.0229489
0.0333282
-0.337193
0.326813
-0.0391206
0.0401127
-0.459777
0.458785
-0.0389006
0.036603
-0.541934
0.544232
-0.0339629
0.0314039
-0.634737
0.637296
-0.0284088
0.0255713
-0.748435
0.751273
-0.0223686
0.019402
-0.887701
0.890667
-0.0161109
0.0130225
-1.05689
1.05998
-0.00950043
0.00611668
-1.26182
1.26521
-0.00221256
-0.00158956
-1.51069
1.5145
0.00535772
-0.00915808
-1.51167
1.51547
0.0124006
-0.015735
-1.26423
1.26756
0.0186375
-0.0217227
-1.06011
1.0632
0.0245132
-0.0275433
-0.891666
0.894696
0.0302367
-0.0330802
-0.753614
0.756457
0.035502
-0.0379966
-0.641158
0.643653
0.0401714
-0.0412275
-0.549193
0.55025
0.0400767
-0.0340562
-0.447883
0.441862
0.023431
-0.0102529
-0.264236
0.251058
0.00259836
-0.0456292
0.0430308
-0.0413393
0.03955
0.00178925
-0.0168826
0.026173
-0.316929
0.307639
-0.0327977
0.0349442
-0.457185
0.455038
-0.03453
0.0328542
-0.546217
0.547892
-0.0306581
0.0285614
-0.639574
0.641671
-0.0261555
0.0238034
-0.753877
0.756229
-0.0210137
0.0182923
-0.893518
0.89624
-0.0151366
0.0121345
-1.06299
1.06599
-0.00870913
0.00543192
-1.2685
1.27178
-0.00163044
-0.00209014
-1.51826
1.52198
0.00576671
-0.00943783
-1.51922
1.52289
0.0125366
-0.0157229
-1.27083
1.27402
0.018485
-0.0213722
-1.06623
1.06912
0.0238615
-0.0264211
-0.897502
0.900061
0.0285842
-0.0307976
-0.758917
0.76113
0.0327236
-0.0347361
-0.645867
0.64788
0.0362374
-0.0364403
-0.550831
0.551034
0.0340528
-0.0270983
-0.435287
0.428332
0.0174802
-0.00738261
-0.239567
0.229469
0.00187479
-0.0408535
0.0389787
-0.038007
0.0366603
0.00134664
-0.0129071
0.0209039
-0.298996
0.290999
-0.0276915
0.0306361
-0.452453
0.449509
-0.0308607
0.0297536
-0.5493
0.550407
-0.02777
0.0258652
-0.643688
0.645593
-0.0236897
0.0215928
-0.758445
0.760542
-0.0191406
0.0167191
-0.898774
0.901195
-0.0138439
0.011029
-1.06886
1.07168
-0.00774536
0.00457504
-1.27498
1.27815
-0.000894273
-0.0026892
-1.52561
1.5292
0.00621751
-0.00973467
-1.52649
1.53001
0.0126826
-0.0156674
-1.27714
1.28013
0.0181792
-0.0207109
-1.07185
1.07438
0.0228334
-0.0249885
-0.902377
0.904532
0.0268421
-0.0287735
-0.763162
0.765094
0.0304652
-0.0322324
-0.649755
0.651522
0.0330906
-0.0325736
-0.550888
0.550371
0.0292883
-0.0220535
-0.421182
0.413948
0.0136387
-0.00568389
-0.220546
0.212591
0.00145029
-0.0373445
0.0358942
-0.0354828
0.0344444
0.00103846
-0.0100905
0.0168568
-0.283639
0.276873
-0.0233872
0.0267953
-0.446304
0.442896
-0.0276077
0.0269394
-0.551274
0.551943
-0.0252053
0.0234531
-0.647449
0.649201
-0.0214346
0.0194783
-0.762582
0.764538
-0.0171791
0.0149173
-0.903484
0.905746
-0.0122518
0.00963493
-1.07433
1.07695
-0.00655387
0.00354274
-1.28121
1.28422
-1.75906e-05
-0.00341168
-1.53269
1.53612
0.0067751
-0.0100918
-1.53343
1.53675
0.0128244
-0.0155315
-1.28301
1.28572
0.017771
-0.0200091
-1.07678
1.07902
0.0218937
-0.0238159
-0.906555
0.908477
0.0254677
-0.0271837
-0.766883
0.768599
0.0286737
-0.0301144
-0.653152
0.654593
0.0304717
-0.0292563
-0.549522
0.548306
0.0253836
-0.01827
-0.406752
0.399638
0.0109825
-0.00454404
-0.205467
0.199029
0.00116408
-0.0346059
0.0334418
-0.0335319
0.0327225
0.00080949
-0.00799453
0.01368
-0.270674
0.264988
-0.0197248
0.0233351
-0.439371
0.435761
-0.0246336
0.0242203
-0.552505
0.552918
-0.0227663
0.0211343
-0.650931
0.652563
-0.0192247
0.0173703
-0.766456
0.768311
-0.0151864
0.0130365
-0.907898
0.910048
-0.0105038
0.00802737
-1.07942
1.08189
-0.00512527
0.00228753
-1.2871
1.28993
0.00103884
-0.00428528
-1.53944
1.54269
0.00744742
-0.0105211
-1.53995
1.54303
0.0130145
-0.0154552
-1.28832
1.29076
0.017468
-0.019475
-1.08117
1.08317
0.0211569
-0.0228658
-0.910285
0.911994
0.024334
-0.0258646
-0.770183
0.771714
0.0271737
-0.0282596
-0.655838
0.656924
0.028268
-0.0264191
-0.546787
0.544938
0.0221954
-0.0154092
-0.392688
0.385902
0.0090807
-0.00374023
-0.193193
0.187852
0.000961958
-0.0323943
0.0314324
-0.0320114
0.0313797
0.000631697
-0.00636913
0.0111252
-0.259794
0.255038
-0.0165734
0.0201875
-0.432146
0.428532
-0.0218217
0.0216477
-0.553242
0.553416
-0.0204439
0.0188877
-0.654199
0.655756
-0.0170539
0.0152677
-0.77014
0.771926
-0.0131645
0.0110958
-0.912085
0.914154
-0.00865986
0.0062823
-1.08424
1.08662
-0.00350531
0.00080941
-1.29265
1.29534
0.0023211
-0.00534777
-1.54579
1.54882
0.00827095
-0.0110924
-1.54597
1.5488
0.0133684
-0.0155857
-1.29313
1.29534
0.0174011
-0.0191963
-1.0851
1.08689
0.0206894
-0.0221971
-0.913602
0.91511
0.0234906
-0.0248461
-0.773132
0.774488
0.0260139
-0.0267142
-0.657802
0.658503
0.02637
-0.0240125
-0.542862
0.540505
0.0196089
-0.0132344
-0.379337
0.372962
0.00769004
-0.00315997
-0.18296
0.17843
0.00081655
-0.0305571
0.0297405
-0.0308289
0.0303419
0.000486954
-0.00504939
0.00899503
-0.250713
0.246767
-0.0137916
0.0172525
-0.425001
0.42154
-0.0190804
0.0191177
-0.553521
0.553484
-0.018139
0.0166499
-0.657339
0.658828
-0.0148718
0.0131285
-0.773694
0.775437
-0.0110723
0.00905406
-0.916112
0.91813
-0.00668806
0.00439125
-1.08887
1.09116
-0.00172223
-0.000849806
-1.29791
1.30049
0.00381582
-0.00665209
-1.55172
1.55455
0.00936147
-0.0119456
-1.5515
1.55408
0.0140026
-0.0159826
-1.29749
1.29947
0.0175853
-0.0191601
-1.08861
1.09018
0.0204666
-0.0217898
-0.916528
0.917852
0.0229266
-0.0241127
-0.775735
0.776921
0.0251001
-0.0254391
-0.658996
0.659335
0.0247383
-0.0219757
-0.537972
0.535209
0.017514
-0.0115702
-0.366825
0.360881
0.00666023
-0.00273791
-0.17424
0.170318
0.000712642
-0.0289892
0.0282766
-0.0299247
0.0295607
0.000363945
-0.00393218
0.00715676
-0.243208
0.239983
-0.0112815
0.0144723
-0.418233
0.415043
-0.0163605
0.0165654
-0.553415
0.55321
-0.015691
0.0142967
-0.66034
0.661734
-0.0125411
0.0108106
-0.777165
0.778896
-0.00877632
0.00679341
-0.920026
0.922009
-0.0044851
0.00225881
-1.09332
1.09555
0.000308709
-0.00277488
-1.30294
1.3054
0.00559199
-0.00825063
-1.55726
1.55992
0.0107539
-0.0131016
-1.55655
1.5589
0.0149384
-0.0166788
-1.30137
1.30311
0.0180694
-0.0194163
-1.09168
1.09303
0.0205223
-0.021641
-0.919081
0.9202
0.0226118
-0.0236219
-0.778004
0.779014
0.0243669
-0.024445
-0.659536
0.659614
0.023375
-0.0202909
-0.532315
0.529231
0.0158436
-0.0103037
-0.35517
0.34963
0.00589935
-0.00243331
-0.166658
0.163192
0.000639835
-0.0276154
0.0269756
-0.0292602
0.0290073
0.000252904
-0.00293505
0.0054954
-0.237115
0.234554
-0.00893653
0.0117684
-0.412061
0.409229
-0.0136057
0.0139154
-0.553023
0.552714
-0.0131203
0.0118062
-0.663169
0.664483
-0.0100659
0.00833081
-0.780602
0.782338
-0.00629074
0.00431013
-0.923863
0.925843
-0.00202085
-0.000166312
-1.09765
1.09984
0.00267851
-0.00505388
-1.30775
1.31012
0.0077295
-0.0102154
-1.56245
1.56493
0.0125104
-0.014615
-1.56113
1.56323
0.0162198
-0.017706
-1.30477
1.30626
0.018872
-0.0199826
-1.0943
1.09541
0.0208842
-0.0217935
-0.921243
0.922152
0.0225857
-0.0233976
-0.779912
0.780724
0.0238856
-0.0236931
-0.659522
0.659329
0.0222701
-0.018918
-0.526048
0.522696
0.0145225
-0.00934251
-0.344309
0.339129
0.00533953
-0.00221639
-0.159933
0.15681
0.000590461
-0.0263772
0.0257867
-0.0288152
0.0286705
0.000144762
-0.00199199
0.00391618
-0.232336
0.230411
-0.00665348
0.0090404
-0.40666
0.404273
-0.0107062
0.0110415
-0.552478
0.552143
-0.010305
0.00905012
-0.665859
0.667114
-0.00731462
0.00555517
-0.784039
0.785799
-0.00348119
0.00147813
-0.927692
0.929695
0.000818745
-0.00299709
-1.1019
1.10408
0.0054609
-0.0077619
-1.31237
1.31468
0.0103122
-0.0126328
-1.56728
1.5696
0.0147224
-0.0165751
-1.5652
1.56706
0.0179423
-0.0191639
-1.30767
1.30889
0.0200925
-0.0209543
-1.09646
1.09732
0.0216411
-0.022318
-0.92299
0.923667
0.0228923
-0.0234848
-0.781407
0.782
0.0236494
-0.023174
-0.658915
0.65844
0.021412
-0.0178296
-0.519275
0.515693
0.0135005
-0.00862866
-0.334154
0.329282
0.00494015
-0.00207061
-0.153854
0.150985
0.000560976
-0.0252306
0.0246697
-0.0285833
0.0285496
3.36827e-05
-0.00105265
0.00234406
-0.228825
0.227534
-0.00434841
0.00621387
-0.402192
0.400326
-0.00759238
0.00786057
-0.551953
0.551684
-0.00712613
0.00588662
-0.668471
0.669711
-0.00412079
0.00231968
-0.787517
0.789318
-0.000201685
-0.001832
-0.931551
0.933585
0.00414722
-0.00632628
-1.10613
1.10831
0.00876775
-0.0110144
-1.31685
1.3191
0.0134514
-0.0156038
-1.57178
1.57394
0.0174694
-0.0190541
-1.56876
1.57034
0.0201516
-0.0210648
-1.31002
1.31093
0.0217124
-0.0222783
-1.09808
1.09864
0.0227003
-0.0231076
-0.924266
0.924673
0.0234672
-0.0238425
-0.782469
0.782844
0.0237031
-0.0228817
-0.657649
0.656828
0.0207849
-0.0170056
-0.512089
0.508309
0.0127416
-0.00812127
-0.324606
0.319986
0.00467232
-0.00198251
-0.148254
0.145565
0.000546855
-0.0241394
0.0235926
-0.0285721
0.0286487
-7.65967e-05
-7.36437e-05
0.000727314
-0.226581
0.225927
-0.00197619
0.00326132
-0.398801
0.397516
-0.00426657
0.00440087
-0.551636
0.551502
-0.00362557
0.00235945
-0.671099
0.672365
-0.000540161
-0.00132988
-0.791064
0.792934
0.0035262
-0.00562559
-0.935463
0.937562
0.00800598
-0.0102272
-1.11036
1.11258
0.0126846
-0.0149085
-1.32123
1.32345
0.017261
-0.0192604
-1.57594
1.57794
0.0209143
-0.0222268
-1.57177
1.57308
0.0230547
-0.0236493
-1.31175
1.31235
0.0239977
-0.0242307
-1.0991
1.09933
0.0243512
-0.0244502
-0.92498
0.925079
0.0245684
-0.0246081
-0.78296
0.783
0.0242118
-0.0229656
-0.655662
0.654415
0.0205027
-0.016502
-0.504542
0.500542
0.0122664
-0.00782472
-0.315546
0.311104
0.00453714
-0.00195375
-0.142985
0.140401
0.000549802
-0.0230711
0.0225213
-0.0287922
0.0290085
-0.000216297
0.000920438
-0.000970571
-0.225638
0.225688
0.000544655
8.34434e-05
-0.396612
0.395984
-0.000610233
0.000525493
-0.551669
0.551753
0.000348477
-0.0016851
-0.673813
0.675149
0.00358351
-0.00555995
-0.794745
0.796721
0.00789672
-0.0101258
-0.939523
0.941752
0.0126339
-0.0149448
-1.11468
1.11699
0.0174533
-0.0196673
-1.32555
1.32777
0.0219348
-0.0237719
-1.57979
1.58162
0.025174
-0.0261631
-1.57421
1.5752
0.0266629
-0.0268933
-1.31282
1.31305
0.0269156
-0.0268064
-1.09945
1.09934
0.0266277
-0.0264017
-0.925059
0.924833
0.0261945
-0.0258594
-0.782697
0.782362
0.0251163
-0.0233436
-0.652874
0.651102
0.0205067
-0.0162902
-0.496594
0.492378
0.0120545
-0.00771979
-0.30683
0.302495
0.00451921
-0.00197549
-0.137904
0.135361
0.000566414
-0.021993
0.0214266
-0.0292909
0.0296459
-0.000354948
0.00205299
-0.00279126
-0.226049
0.226788
0.00327271
-0.00342842
-0.395787
0.395943
0.00353518
-0.00396009
-0.55228
0.552705
0.00498484
-0.00644969
-0.676707
0.678172
0.00849626
-0.0106234
-0.798634
0.800761
0.0131301
-0.0155056
-0.943828
0.946204
0.0181595
-0.0205792
-1.11917
1.12159
0.0231715
-0.0254105
-1.32986
1.3321
0.0276271
-0.0293228
-1.5833
1.58499
0.0304897
-0.0311387
-1.57598
1.57663
0.0313102
-0.0311327
-1.31314
1.31296
0.0307661
-0.0302351
-1.09905
1.09852
0.0296849
-0.0290669
-0.924403
0.923785
0.0285032
-0.0277361
-0.781614
0.780847
0.0265347
-0.0242122
-0.64913
0.646807
0.0209802
-0.0165006
-0.488244
0.483764
0.0121846
-0.0078473
-0.298302
0.293965
0.00463752
-0.00205202
-0.132878
0.130292
0.000595939
-0.0208797
0.0202837
-0.0300855
0.0306219
-0.0005364
0.00331042
-0.00482519
-0.227937
0.229451
0.00622319
-0.00720151
-0.396494
0.397473
0.00805068
-0.00892894
-0.553692
0.55457
0.0102449
-0.0119272
-0.679933
0.681616
0.0142088
-0.0165548
-0.802827
0.805173
0.0193024
-0.0218934
-0.948422
0.951013
0.0247712
-0.0273731
-1.12389
1.12649
0.030116
-0.0324258
-1.33423
1.33654
0.0346106
-0.036148
-1.58652
1.58805
0.0370468
-0.0373148
-1.57704
1.57731
0.0370974
-0.0364753
-1.31258
1.31195
0.0356783
-0.0346766
-1.09774
1.09674
0.0337072
-0.032641
-0.922887
0.92182
0.0317172
-0.0304283
-0.779599
0.77831
0.0287268
-0.0258302
-0.644369
0.641473
0.0221324
-0.0172907
-0.479364
0.474523
0.012781
-0.00829463
-0.289729
0.285242
0.00494453
-0.00220467
-0.127729
0.12499
0.000643399
-0.019704
0.0190606
-0.0312486
0.0320052
-0.000756577
0.00477181
-0.00713859
-0.231398
0.233765
0.00955371
-0.0114081
-0.398872
0.400726
0.0130816
-0.0145052
-0.556124
0.557548
0.0162143
-0.0181918
-0.683666
0.685643
0.0208085
-0.0234796
-0.807473
0.810144
0.0265977
-0.0295248
-0.953476
0.956403
0.0327505
-0.0356276
-1.12899
1.13187
0.0385976
-0.0410139
-1.33873
1.34114
0.0431785
-0.0445461
-1.58939
1.59076
0.0451362
-0.044982
-1.57731
1.57716
0.0443121
-0.0432005
-1.31107
1.30995
0.0419474
-0.0404391
-1.09542
1.09391
0.0390132
-0.0374663
-0.920403
0.918856
0.0361121
-0.0342363
-0.77652
0.774645
0.0319686
-0.0284113
-0.63848
0.634923
0.024173
-0.0188592
-0.469768
0.464455
0.0140034
-0.0091639
-0.280798
0.275958
0.0054971
-0.00245657
-0.12222
0.119179
0.000714826
-0.0184284
0.0177136
-0.0328442
0.0338746
-0.00103038
0.00651075
-0.00985329
-0.236563
0.239905
0.0134248
-0.0162868
-0.403139
0.406001
0.0188971
-0.0209883
-0.5598
0.561892
0.0232476
-0.0256646
-0.688096
0.690513
0.0287816
-0.0319286
-0.812798
0.815945
0.0355687
-0.0389465
-0.959233
0.962611
0.0426107
-0.0458113
-1.13465
1.13785
0.04903
-0.051558
-1.34343
1.34595
0.053688
-0.0548421
-1.5919
1.59306
0.055062
-0.0543924
-1.57668
1.57601
0.0532002
-0.0514839
-1.30848
1.30676
0.0497092
-0.0476646
-1.092
1.08996
0.0457709
-0.0437191
-0.916871
0.914819
0.0418285
-0.0393613
-0.772287
0.76982
0.0364645
-0.0321951
-0.631317
0.627048
0.0273277
-0.0213703
-0.459232
0.453274
0.0159493
-0.0104979
-0.27108
0.265629
0.00631312
-0.00281601
-0.11605
0.112553
0.000814259
-0.0170024
0.0161882
-0.0349739
0.0363762
-0.00140235
0.00877644
-0.0133113
-0.243656
0.248191
0.0182184
-0.0222078
-0.409567
0.413557
0.0258866
-0.0288144
-0.565079
0.568007
0.031864
-0.0349524
-0.693573
0.696661
0.0387907
-0.0425718
-0.819098
0.822879
0.046861
-0.0507709
-0.965902
0.969812
0.0549307
-0.0584836
-1.14094
1.1445
0.0619515
-0.0645539
-1.3483
1.3509
0.066562
-0.0673961
-1.59391
1.59474
0.0671184
-0.0658131
-1.57494
1.57364
0.0639994
-0.0615879
-1.30461
1.3022
0.0591934
-0.0565139
-1.0874
1.08472
0.0541036
-0.0515345
-0.91222
0.909651
0.0491057
-0.045991
-0.766855
0.76374
0.0424241
-0.0373423
-0.622755
0.617673
0.0316778
-0.0248204
-0.44739
0.440533
0.0185706
-0.0122379
-0.260067
0.253734
0.00734748
-0.00326076
-0.108924
0.104837
0.000935171
-0.0153744
0.0144392
-0.0378189
0.0397593
-0.0019404
0.0119374
-0.0180171
-0.253082
0.259161
0.0245268
-0.0298063
-0.418524
0.423803
0.0346824
-0.0385951
-0.572368
0.576281
0.0426185
-0.0465893
-0.700549
0.70452
0.0513721
-0.0559389
-0.826677
0.831244
0.0610032
-0.0655298
-0.973642
0.978168
0.0702529
-0.0741877
-1.14793
1.15187
0.0778913
-0.0805075
-1.35328
1.35589
0.0822822
-0.0826621
-1.59518
1.59556
0.0817562
-0.0796737
-1.57184
1.56976
0.0771216
-0.0739053
-1.29929
1.29607
0.0707934
-0.0673746
-1.08142
1.078
0.0643487
-0.0611715
-0.906377
0.9032
0.0581417
-0.0543576
-0.760104
0.75632
0.0499936
-0.0438843
-0.612518
0.606408
0.0371773
-0.0291158
-0.433719
0.425658
0.0217549
-0.0142808
-0.247241
0.239767
0.00852557
-0.00375373
-0.1006
0.0958279
0.00106648
-0.0135061
0.0124396
-0.0416905
0.0444693
-0.00277885
0.0166317
-0.0247891
-0.265521
0.273679
0.0332995
-0.0401304
-0.430606
0.437437
0.0464266
-0.0514882
-0.582056
0.587118
0.0567203
-0.0618392
-0.709402
0.714521
0.0677291
-0.0731928
-0.835816
0.84128
0.0791178
-0.0843007
-0.982612
0.987795
0.0895707
-0.0938095
-1.15563
1.15987
0.0975992
-0.100054
-1.35818
1.36063
0.101376
-0.101082
-1.59542
1.59512
0.0993466
-0.0963096
-1.56708
1.56404
0.0928925
-0.0887492
-1.29227
1.28812
0.084825
-0.0805636
-1.07387
1.06961
0.0768322
-0.0729456
-0.899126
0.89524
0.0691849
-0.0645044
-0.751858
0.747178
0.0591254
-0.0517251
-0.600123
0.592722
0.0437142
-0.034127
-0.417627
0.40804
0.0253625
-0.0165043
-0.232136
0.223278
0.0097592
-0.00424786
-0.0909266
0.0854153
0.00119133
-0.0113884
0.010197
-0.047154
0.0513738
-0.0042198
0.0240627
-0.0351048
-0.282144
0.293186
0.0462743
-0.055235
-0.446834
0.455794
0.0632995
-0.0697483
-0.5946
0.601049
0.0765008
-0.0829623
-0.720506
0.726967
0.0900914
-0.0964551
-0.846713
0.853077
0.103137
-0.108793
-0.992815
0.998471
0.114314
-0.118525
-1.16377
1.16798
0.121994
-0.123903
-1.36256
1.36447
0.124339
-0.122985
-1.59411
1.59275
0.120061
-0.115754
-1.56024
1.55593
0.111247
-0.106013
-1.28329
1.27805
0.101187
-0.0960191
-1.06453
1.05936
0.0915098
-0.0867564
-0.890171
0.885418
0.0821796
-0.0764293
-0.74158
0.73583
0.0698187
-0.0608457
-0.585025
0.576052
0.0512189
-0.0397346
-0.398445
0.386961
0.0292659
-0.0188103
-0.214346
0.20389
0.0109767
-0.00470198
-0.0798508
0.0735761
0.0012937
-0.0090444
0.0077507
-0.0552854
0.0625687
-0.00728334
0.0374289
-0.0528211
-0.305137
0.32053
0.0677837
-0.0795648
-0.468744
0.480525
0.0895537
-0.0974805
-0.610509
0.618436
0.105891
-0.113615
-0.734057
0.74178
0.121679
-0.128516
-0.85919
0.866028
0.135384
-0.140911
-1.0037
1.00922
0.145988
-0.149505
-1.17153
1.17504
0.151949
-0.152644
-1.3655
1.36619
0.151524
-0.14852
-1.59035
1.58735
0.143906
-0.137912
-1.55062
1.54463
0.131995
-0.125395
-1.27198
1.26538
0.119485
-0.113314
-1.05328
1.04711
0.108013
-0.10242
-0.879307
0.873714
0.0970573
-0.090162
-0.728883
0.721988
0.0821737
-0.0712302
-0.566569
0.555626
0.0594884
-0.0456927
-0.375319
0.361523
0.0333275
-0.0211711
-0.193581
0.181425
0.0121733
-0.00510893
-0.0674453
0.0603809
0.00136242
-0.0065328
0.00517038
-0.0694218
0.07336
-0.00393819
0.0281672
-0.0414813
-0.338514
0.351828
0.0548085
-0.0654812
-0.497581
0.508254
0.0751098
-0.0843618
-0.629771
0.639023
0.0948974
-0.104206
-0.749199
0.758508
0.114527
-0.123689
-0.872029
0.881192
0.133336
-0.141747
-1.0138
1.02221
0.150278
-0.157286
-1.17741
1.18442
0.16378
-0.168356
-1.36562
1.37019
0.171442
-0.172031
-1.58299
1.58358
0.170021
-0.165881
-1.5374
1.53326
0.160722
-0.154115
-1.2578
1.25119
0.147843
-0.140523
-1.03991
1.03259
0.134242
-0.127516
-0.866568
0.859842
0.120917
-0.111799
-0.713523
0.704405
0.100012
-0.0843108
-0.543661
0.52796
0.0682536
-0.0501301
-0.347343
0.32922
0.0349259
-0.0209564
-0.169675
0.155705
0.0113216
-0.00441654
-0.053988
0.047083
0.00105151
-0.00396657
0.00291506
-0.0805597
0.0784103
0.0021495
0.00628568
-0.0147983
-0.367938
0.37645
0.0248621
-0.0325414
-0.523567
0.531246
0.0404246
-0.0484949
-0.650656
0.658727
0.0582135
-0.0671014
-0.76759
0.776478
0.0764922
-0.0850079
-0.889866
0.898382
0.0939217
-0.101361
-1.03033
1.03777
0.109097
-0.115105
-1.19122
1.19723
0.120618
-0.124222
-1.37442
1.37803
0.126067
-0.125692
-1.58328
1.58291
0.122837
-0.117932
-1.52829
1.52338
0.111947
-0.104485
-1.24403
1.23657
0.0973154
-0.0891302
-1.02454
1.01636
0.0813972
-0.0724828
-0.850342
0.841428
0.0638702
-0.0540334
-0.690317
0.68048
0.0440826
-0.0324956
-0.509607
0.49802
0.0224457
-0.0135308
-0.310593
0.301678
0.00770644
-0.00356887
-0.14227
0.138133
0.00137297
-0.000297711
-0.0406348
0.0395595
-3.35822e-06
-0.00175855
0.00176191
-0.0815949
0.0786082
0.00298668
-0.00270169
-0.00188214
-0.387568
0.392152
0.00850612
-0.0142583
-0.542834
0.548586
0.020412
-0.027393
-0.668651
0.675632
0.035808
-0.0435397
-0.78454
0.792271
0.0519436
-0.0594093
-0.90619
0.913656
0.0669955
-0.0737101
-1.04505
1.05176
0.0805271
-0.0859619
-1.20285
1.20829
0.0905979
-0.0935243
-1.38108
1.384
0.0951227
-0.0945233
-1.58206
1.58146
0.0916273
-0.086827
-1.51816
1.51336
0.0810356
-0.0738856
-1.22916
1.22201
0.0663897
-0.0576595
-1.00743
0.998705
0.0489325
-0.0386078
-0.830771
0.820447
0.0290373
-0.018951
-0.66641
0.656324
0.0105746
-0.00242892
-0.484228
0.476083
-0.00262184
0.0052342
-0.29147
0.288858
-0.00566801
0.00475661
-0.132499
0.13341
-0.00333194
0.00167327
-0.0378688
0.0395274
-0.000535122
-0.00149002
0.00202515
-0.0801267
0.0772771
0.00284962
-0.00614296
0.00418673
-0.400272
0.402228
-0.00028763
-0.00406164
-0.55726
0.561609
0.00937255
-0.0152168
-0.683482
0.689327
0.0223837
-0.0290287
-0.799456
0.806101
0.036239
-0.042675
-0.92062
0.927056
0.0496218
-0.0554182
-1.05809
1.06388
0.0615437
-0.0660556
-1.21341
1.21792
0.0703062
-0.0730365
-1.38688
1.38961
0.0744262
-0.0736127
-1.58068
1.57987
0.0710018
-0.0665576
-1.50829
1.50384
0.0610145
-0.0536595
-1.21468
1.20732
0.0461683
-0.0372567
-0.98929
0.980378
0.0281505
-0.0178697
-0.808923
0.798642
0.00831854
0.000839527
-0.643264
0.634106
-0.00745222
0.012323
-0.466219
0.461348
-0.0140873
0.0133095
-0.283202
0.28398
-0.0112534
0.00816739
-0.132653
0.135739
-0.00536251
0.00253747
-0.0402891
0.0431142
-0.000772998
-0.00219865
0.00297164
-0.0784562
0.0759856
0.00247059
-0.0070241
0.00659704
-0.4085
0.408927
-0.00380897
0.000832926
-0.568828
0.571805
0.00340303
-0.0086423
-0.695808
0.701048
0.0145925
-0.0203996
-0.812086
0.817893
0.0266444
-0.0322701
-0.933076
0.938702
0.0383171
-0.0436002
-1.0696
1.07488
0.0489716
-0.05333
-1.22239
1.22675
0.0572509
-0.0597904
-1.39213
1.39467
0.0610735
-0.0602353
-1.57903
1.57819
0.0576539
-0.0530816
-1.49879
1.49422
0.0476184
-0.0405022
-1.19987
1.19275
0.0331482
-0.0243426
-0.970948
0.962142
0.0158193
-0.00637197
-0.787671
0.778223
-0.00179848
0.00923573
-0.623287
0.615849
-0.014026
0.0171677
-0.45399
0.450848
-0.0178421
0.0159179
-0.280815
0.282739
-0.012873
0.00921901
-0.136957
0.140611
-0.00596034
0.00276421
-0.0449647
0.0481608
-0.000840686
-0.00340224
0.00424293
-0.076986
0.0749011
0.00208492
-0.00669438
0.00669414
-0.413961
0.413961
-0.00524368
0.00285685
-0.577477
0.579863
0.00108388
-0.00548855
-0.706082
0.710487
0.0105364
-0.0155332
-0.822922
0.827919
0.0210766
-0.0261436
-0.944015
0.949081
0.0317682
-0.036525
-1.07995
1.0847
0.0415326
-0.0456388
-1.23091
1.23502
0.0493045
-0.0516718
-1.39704
1.39941
0.0527985
-0.052225
-1.5773
1.57672
0.0495638
-0.0451587
-1.48918
1.48477
0.0398022
-0.0329478
-1.18542
1.17857
0.0262435
-0.0180524
-0.953248
0.945056
0.0104131
-0.00232817
-0.768659
0.760574
-0.00453192
0.0107019
-0.607089
0.600919
-0.0146441
0.0170423
-0.44535
0.442951
-0.017144
0.0151923
-0.280883
0.282835
-0.0123692
0.00879435
-0.142351
0.145926
-0.00561645
0.00262871
-0.0501024
0.0530901
-0.000808175
-0.00468141
0.00548958
-0.0759211
0.0743236
0.00159748
-0.00561294
0.00585451
-0.41793
0.417689
-0.00473326
0.00302739
-0.584921
0.586627
0.000587968
-0.00449553
-0.714807
0.718715
0.0092212
-0.0134833
-0.832525
0.836787
0.0183572
-0.0228963
-0.954151
0.95869
0.0283133
-0.0327434
-1.08954
1.09397
0.0373428
-0.0413484
-1.23901
1.24302
0.0452436
-0.0475035
-1.40183
1.40409
0.048686
-0.0480283
-1.57575
1.57509
0.0457205
-0.0412404
-1.48011
1.47563
0.0363251
-0.0301184
-1.17159
1.16539
0.0239434
-0.0168917
-0.937083
0.930031
0.0102711
-0.00327924
-0.752369
0.745377
-0.00222094
0.00737325
-0.593655
0.588503
-0.0107639
0.0126957
-0.438185
0.436253
-0.0130358
0.0118232
-0.281552
0.282765
-0.00961191
0.0067907
-0.147295
0.150117
-0.00432295
0.00204156
-0.054604
0.0568854
-0.000644607
-0.00582532
0.00646993
-0.0754168
0.0741896
0.00122717
-0.00436537
0.00463255
-0.421083
0.420816
-0.00355352
0.00190918
-0.59131
0.592954
0.00145763
-0.00485797
-0.722526
0.725927
0.00884305
-0.0129321
-0.840998
0.845087
0.0174424
-0.0221442
-0.963072
0.967773
0.0268922
-0.0311934
-1.09854
1.10284
0.0359746
-0.0397808
-1.24695
1.25075
0.0432249
-0.0458772
-1.40627
1.40893
0.0471937
-0.0467609
-1.57445
1.57402
0.0445726
-0.0406654
-1.47131
1.4674
0.0361614
-0.0305116
-1.15894
1.15329
0.0250637
-0.0188542
-0.92303
0.91682
0.0131422
-0.00729659
-0.738539
0.732693
0.00228074
0.00222486
-0.582415
0.577909
-0.00516012
0.00711002
-0.431953
0.430003
-0.00771353
0.00705655
-0.281305
0.281962
-0.00579052
0.00404273
-0.150558
0.152306
-0.00256962
0.00123367
-0.057655
0.0589909
-0.000412811
-0.00662596
0.00703877
-0.0754808
0.0744827
0.000998159
-0.00295819
0.00290424
-0.424023
0.424077
-0.00194168
0.000320325
-0.597203
0.598824
0.00285955
-0.00613406
-0.729597
0.732871
0.0099288
-0.0136099
-0.848974
0.852655
0.0182425
-0.022188
-0.971937
0.975882
0.0269344
-0.0310837
-1.10733
1.11148
0.0357703
-0.039769
-1.25456
1.25856
0.0434724
-0.0458715
-1.41134
1.41374
0.0474671
-0.0473777
-1.57349
1.5734
0.0457878
-0.0422023
-1.46336
1.45978
0.0382037
-0.0331171
-1.14778
1.1427
0.0282804
-0.0227012
-0.910516
0.904937
0.017745
-0.0124762
-0.726661
0.721392
0.00802032
-0.00380939
-0.572631
0.56842
0.000744967
0.00128233
-0.425922
0.423895
-0.00223121
0.00226924
-0.27988
0.279842
-0.00202483
0.00143689
-0.151781
0.152369
-0.000943154
0.000522359
-0.0589103
0.0593311
-0.000204215
-0.00699661
0.00720083
-0.0758589
0.0751903
0.000668624
-0.00173027
0.00122915
-0.427233
0.427734
-0.000411832
-0.00162326
-0.60228
0.604315
0.00443846
-0.00758601
-0.736166
0.739314
0.0112198
-0.0150419
-0.85622
0.860042
0.0190861
-0.0232067
-0.980059
0.98418
0.0279302
-0.0318805
-1.11607
1.12002
0.0366513
-0.0405856
-1.26238
1.26631
0.0443072
-0.0471814
-1.41653
1.4194
0.0492059
-0.0493592
-1.57333
1.57348
0.0479985
-0.0451348
-1.45635
1.45349
0.0417221
-0.0370994
-1.13751
1.13289
0.0326478
-0.0277888
-0.899346
0.894487
0.0229735
-0.0183343
-0.715891
0.711252
0.0142537
-0.0102105
-0.563784
0.55974
0.00728977
-0.00482606
-0.419777
0.417313
0.00335586
-0.00233761
-0.277237
0.276218
0.00164174
-0.000976528
-0.15088
0.150215
0.000405127
-1.37887e-05
-0.0584759
0.0580846
-8.28185e-05
-0.00692042
0.00700324
-0.0766729
0.0761692
0.000503663
-0.000718499
0.000287624
-0.430802
0.431233
0.00134313
-0.00323006
-0.60771
0.609597
0.00622782
-0.00928642
-0.742267
0.745325
0.0127965
-0.0162477
-0.863567
0.867018
0.0204359
-0.0242608
-0.98833
0.992155
0.0289396
-0.0333144
-1.12443
1.12881
0.0377112
-0.0419399
-1.27029
1.27452
0.0460329
-0.0489546
-1.42217
1.42509
0.0513051
-0.0522026
-1.57384
1.57473
0.0512754
-0.0490424
-1.45049
1.44826
0.0458724
-0.04176
-1.1283
1.12419
0.0377824
-0.0331851
-0.889254
0.884657
0.028834
-0.0244084
-0.706105
0.701679
0.0205154
-0.0164661
-0.555153
0.551104
0.0132955
-0.0104832
-0.41327
0.410458
0.00824683
-0.00631733
-0.272897
0.270968
0.00463752
-0.0029195
-0.147799
0.146081
0.00156262
-0.000519386
-0.0565119
0.0554687
6.32325e-05
-0.00652256
0.00645933
-0.0777627
0.0774542
0.000308526
0.000384223
-0.00115064
-0.434543
0.435309
0.00264639
-0.00486979
-0.612826
0.615049
0.00783802
-0.0107789
-0.748213
0.751154
0.0144063
-0.0177397
-0.870482
0.873816
0.0217975
-0.0257538
-0.996475
1.00043
0.0303374
-0.0346651
-1.13305
1.13737
0.0392541
-0.0434756
-1.27867
1.28289
0.0477089
-0.0513303
-1.42828
1.4319
0.0540838
-0.0552536
-1.57556
1.57673
0.0550027
-0.0530986
-1.44591
1.44401
0.050493
-0.0469248
-1.12001
1.11644
0.043039
-0.0386997
-0.879776
0.875437
0.0345633
-0.0301454
-0.696846
0.692428
0.0263848
-0.0222257