/*--------------------------------*- C++ -*----------------------------------*\
| =========                 |                                                 |
| \\      /  F ield         | OpenFOAM: The Open Source CFD Toolbox           |
|  \\    /   O peration     | Version:  2306                                  |
|   \\  /    A nd           | Website:  www.openfoam.com                      |
|    \\/     M anipulation  |                                                 |
\*---------------------------------------------------------------------------*/
FoamFile
{
    version     2.0;
    format      ascii;
    arch        "LSB;label=32;scalar=64";
    class       volVectorField;
    location    "37";
    object      U;
}
// * * * * * * * * * * * * * * * * * * * * * * * * * * * * * * * * * * * * * //

dimensions      [0 1 -1 0 0 0 0];

internalField   nonuniform List<vector> 
8800
(
(0.984963 -0.0884525 0)
(1.00213 -0.0568239 0)
(0.999674 -0.0305567 0)
(1.00001 -0.0158601 0)
(1.00006 -0.00871366 0)
(1.00004 -0.00507453 0)
(1.00002 -0.00299773 0)
(0.99999 -0.00170565 0)
(0.999976 -0.000811191 0)
(1.00006 -0.000115669 0)
(0.99998 0.000590729 0)
(0.999996 0.00134586 0)
(1.00001 0.00238204 0)
(1.00002 0.00398882 0)
(1.00003 0.00670173 0)
(1.00001 0.0117298 0)
(0.999855 0.022048 0)
(0.999176 0.041168 0)
(1.00747 0.0768956 0)
(0.773651 0.0450708 0)
(0.360992 -0.0151726 0)
(1.04555 -0.0742089 0)
(1.08711 -0.067903 0)
(1.04777 -0.0523162 0)
(1.02458 -0.0384128 0)
(1.01236 -0.0261324 0)
(1.00645 -0.0167948 0)
(1.00358 -0.0103026 0)
(1.00216 -0.00567031 0)
(1.0015 -0.00206796 0)
(1.00137 0.0011504 0)
(1.00174 0.0044712 0)
(1.00271 0.008383 0)
(1.0047 0.0137358 0)
(1.00879 0.02148 0)
(1.01734 0.032308 0)
(1.03445 0.0456542 0)
(1.06549 0.059771 0)
(1.09409 0.0729297 0)
(0.842242 0.0557092 0)
(0.21704 -0.00164736 0)
(1.07584 -0.0503757 0)
(1.09983 -0.0487486 0)
(1.06464 -0.0402058 0)
(1.03993 -0.0330464 0)
(1.02372 -0.025756 0)
(1.01396 -0.0183975 0)
(1.00848 -0.0116907 0)
(1.00564 -0.00589684 0)
(1.00448 -0.000588813 0)
(1.0048 0.00453712 0)
(1.00665 0.00986249 0)
(1.01057 0.0159246 0)
(1.01785 0.0228596 0)
(1.03051 0.0301404 0)
(1.05066 0.0371512 0)
(1.08038 0.0444987 0)
(1.10623 0.0517263 0)
(0.942907 0.0413131 0)
(0.216527 0.0016653 0)
(0.175842 -0.000646518 0)
(1.0186 -0.0354408 0)
(1.10555 -0.0414687 0)
(1.07808 -0.0363154 0)
(1.05278 -0.0302969 0)
(1.03549 -0.024585 0)
(1.0235 -0.0188919 0)
(1.01559 -0.0129019 0)
(1.01095 -0.0067884 0)
(1.00891 -0.000533055 0)
(1.00946 0.00564934 0)
(1.01259 0.0116023 0)
(1.01861 0.0174276 0)
(1.02834 0.0230265 0)
(1.04269 0.0284816 0)
(1.06341 0.0341579 0)
(1.09384 0.0401383 0)
(1.09423 0.0417923 0)
(0.82902 0.0227505 0)
(0.174972 0.000665303 0)
(0.154264 -0.000488434 0)
(0.957153 -0.0255915 0)
(1.10402 -0.035157 0)
(1.08788 -0.032731 0)
(1.0613 -0.0281909 0)
(1.0434 -0.0232222 0)
(1.03101 -0.0180108 0)
(1.02234 -0.012545 0)
(1.01673 -0.00667584 0)
(1.01407 -0.00024187 0)
(1.01474 0.00621564 0)
(1.01861 0.0120918 0)
(1.02548 0.0174061 0)
(1.03569 0.0224026 0)
(1.05041 0.0272527 0)
(1.0721 0.0317601 0)
(1.10081 0.0356634 0)
(1.06934 0.0338487 0)
(0.741637 0.0143145 0)
(0.152958 0.000509465 0)
(0.139703 -0.000359809 0)
(0.900079 -0.0192496 0)
(1.09631 -0.0302228 0)
(1.09593 -0.0293673 0)
(1.06888 -0.0256374 0)
(1.05015 -0.021579 0)
(1.03724 -0.0169233 0)
(1.02825 -0.0117347 0)
(1.02229 -0.00608109 0)
(1.0193 0.00021554 0)
(1.01998 0.00655086 0)
(1.02406 0.0121778 0)
(1.03113 0.0171578 0)
(1.04165 0.021674 0)
(1.05699 0.0256832 0)
(1.0796 0.0292092 0)
(1.10316 0.0319129 0)
(1.03762 0.0279415 0)
(0.675283 0.0101804 0)
(0.137867 0.000384437 0)
(0.129019 -0.00027559 0)
(0.850202 -0.0148769 0)
(1.08382 -0.0261274 0)
(1.10153 -0.0264868 0)
(1.07563 -0.0232072 0)
(1.05638 -0.0196158 0)
(1.04302 -0.0154979 0)
(1.03368 -0.0107046 0)
(1.02747 -0.00528941 0)
(1.0243 0.000791127 0)
(1.02488 0.00687868 0)
(1.02897 0.0122138 0)
(1.03619 0.0167793 0)
(1.04702 0.0206892 0)
(1.06277 0.0240759 0)
(1.08583 0.0271337 0)
(1.10248 0.0289796 0)
(1.00317 0.0233507 0)
(0.62377 0.0077767 0)
(0.126538 0.00030517 0)
(0.120861 -0.000213089 0)
(0.807731 -0.0117004 0)
(1.06838 -0.0225267 0)
(1.10493 -0.0238745 0)
(1.08176 -0.0210542 0)
(1.06207 -0.0177082 0)
(1.04844 -0.0138989 0)
(1.03883 -0.00945164 0)
(1.03235 -0.004333 0)
(1.02897 0.00148214 0)
(1.02942 0.00727441 0)
(1.0335 0.0122423 0)
(1.04082 0.0163449 0)
(1.05178 0.0197793 0)
(1.06778 0.0227756 0)
(1.09123 0.0255317 0)
(1.09897 0.0264892 0)
(0.968498 0.0197013 0)
(0.582633 0.00619515 0)
(0.117598 0.000248804 0)
(0.114533 -0.000165074 0)
(0.771948 -0.0093134 0)
(1.05139 -0.0193397 0)
(1.10713 -0.0214344 0)
(1.08746 -0.0190063 0)
(1.06736 -0.0158353 0)
(1.05349 -0.0122168 0)
(1.0437 -0.00801939 0)
(1.037 -0.00319613 0)
(1.03338 0.00231708 0)
(1.03366 0.00776969 0)
(1.03766 0.0123199 0)
(1.04496 0.0159903 0)
(1.05595 0.0190468 0)
(1.0722 0.0217137 0)
(1.09539 0.0241537 0)
(1.09277 0.0243412 0)
(0.935003 0.0168263 0)
(0.548914 0.00509169 0)
(0.110319 0.000208361 0)
(0.109596 -0.000126896 0)
(0.741952 -0.00745024 0)
(1.03395 -0.0164954 0)
(1.10834 -0.0191255 0)
(1.09284 -0.0170329 0)
(1.07244 -0.0139893 0)
(1.05829 -0.0104965 0)
(1.04832 -0.00646125 0)
(1.04145 -0.0018612 0)
(1.03759 0.00332957 0)
(1.03764 0.0083847 0)
(1.04147 0.012532 0)
(1.04865 0.0158367 0)
(1.05968 0.0185575 0)
(1.07618 0.0209141 0)
(1.09837 0.0230069 0)
(1.08431 0.0224742 0)
(0.903343 0.0145687 0)
(0.520626 0.00429663 0)
(0.104228 0.00017927 0)
(0.105766 -9.52633e-05 0)
(0.716964 -0.00593379 0)
(1.01691 -0.0139104 0)
(1.10866 -0.0168617 0)
(1.09803 -0.0150953 0)
(1.07736 -0.0121227 0)
(1.06293 -0.00870925 0)
(1.05276 -0.00478782 0)
(1.04566 -0.000366737 0)
(1.04153 0.00454157 0)
(1.04129 0.00922788 0)
(1.04489 0.0129768 0)
(1.05193 0.0159033 0)
(1.06297 0.0182886 0)
(1.07969 0.0203615 0)
(1.10004 0.0220713 0)
(1.07401 0.020861 0)
(0.87373 0.0128031 0)
(0.496381 0.00371793 0)
(0.0989903 0.000159313 0)
(0.102857 -6.79678e-05 0)
(0.696383 -0.00464752 0)
(1.00092 -0.0115217 0)
(1.10825 -0.0145995 0)
(1.10298 -0.013064 0)
(1.0822 -0.010105 0)
(1.06745 -0.00673712 0)
(1.05702 -0.00291436 0)
(1.04966 0.00135187 0)
(1.04521 0.00600507 0)
(1.04461 0.0103324 0)
(1.04791 0.0136887 0)
(1.05479 0.0162325 0)
(1.06582 0.018249 0)
(1.08274 0.0200183 0)
(1.10077 0.0213515 0)
(1.06226 0.0195042 0)
(0.846138 0.011437 0)
(0.475176 0.00329853 0)
(0.0943652 0.000146444 0)
(0.100754 -4.2693e-05 0)
(0.679784 -0.00349663 0)
(0.986487 -0.0092451 0)
(1.10732 -0.0122583 0)
(1.10765 -0.0108989 0)
(1.08699 -0.00795333 0)
(1.07189 -0.00458047 0)
(1.06115 -0.000789153 0)
(1.05343 0.0033615 0)
(1.04854 0.00777932 0)
(1.04751 0.0117499 0)
(1.05048 0.0146911 0)
(1.05717 0.0168259 0)
(1.0682 0.0184631 0)
(1.08526 0.0199096 0)
(1.10051 0.0208395 0)
(1.04933 0.0183774 0)
(0.820395 0.0103801 0)
(0.456262 0.00299612 0)
(0.0901648 0.000138921 0)
(0.0994037 -1.69468e-05 0)
(0.666934 -0.00241113 0)
(0.974017 -0.00699901 0)
(1.10617 -0.00974365 0)
(1.1121 -0.00850193 0)
(1.09181 -0.0055613 0)
(1.07637 -0.00213291 0)
(1.06528 0.00166691 0)
(1.05715 0.00573467 0)
(1.05175 0.0099443 0)
(1.05018 0.0135605 0)
(1.05272 0.0160664 0)
(1.05914 0.0177733 0)
(1.07011 0.0190295 0)
(1.08717 0.0200937 0)
(1.09921 0.0205766 0)
(1.03544 0.0174716 0)
(0.796282 0.00958326 0)
(0.439069 0.00278898 0)
(0.0862448 0.000136422 0)
(0.0987954 1.23178e-05 0)
(0.65776 -0.00133617 0)
(0.963902 -0.00470822 0)
(1.10515 -0.00699094 0)
(1.11647 -0.00575762 0)
(1.09672 -0.00277792 0)
(1.08088 0.000720417 0)
(1.06938 0.00454962 0)
(1.06076 0.00857634 0)
(1.05474 0.0125924 0)
(1.05249 0.0158236 0)
(1.05451 0.0178503 0)
(1.06058 0.0190446 0)
(1.07149 0.0198358 0)
(1.08852 0.0205308 0)
(1.09674 0.0204773 0)
(1.02076 0.0167815 0)
(0.773562 0.00900486 0)
(0.423147 0.00265998 0)
(0.082489 0.000137396 0)
(0.0989513 3.38835e-05 0)
(0.652237 -0.00022735 0)
(0.956433 -0.00233679 0)
(1.10461 -0.00401306 0)
(1.12092 -0.00270765 0)
(1.10173 0.000350217 0)
(1.08546 0.0039777 0)
(1.07346 0.00790371 0)
(1.06424 0.0119566 0)
(1.05745 0.0158291 0)
(1.05438 0.0186941 0)
(1.05571 0.020234 0)
(1.06137 0.0208877 0)
(1.07216 0.0211225 0)
(1.08904 0.0213432 0)
(1.09302 0.0207392 0)
(1.00536 0.0163791 0)
(0.751931 0.00865106 0)
(0.408068 0.00260993 0)
(0.0787812 0.000142863 0)
(0.0999452 7.7341e-05 0)
(0.65055 0.000967758 0)
(0.951951 0.000212753 0)
(1.10483 -0.00067982 0)
(1.12552 0.000789411 0)
(1.10695 0.00395392 0)
(1.09025 0.00781846 0)
(1.07768 0.0119539 0)
(1.06767 0.0160829 0)
(1.05987 0.0198051 0)
(1.05583 0.0222471 0)
(1.0564 0.0232028 0)
(1.06153 0.0232726 0)
(1.07209 0.0229654 0)
(1.08845 0.0225769 0)
(1.08791 0.0212781 0)
(0.989178 0.0162221 0)
(0.731067 0.00850491 0)
(0.393446 0.00262971 0)
(0.0750163 0.000151328 0)
(0.101922 0.000107755 0)
(0.652673 0.00217617 0)
(0.950857 0.00294893 0)
(1.10634 0.00305999 0)
(1.13052 0.0048436 0)
(1.11254 0.0082724 0)
(1.0954 0.0124124 0)
(1.08216 0.0167813 0)
(1.07127 0.021043 0)
(1.06234 0.0246763 0)
(1.05702 0.0267129 0)
(1.05653 0.0270712 0)
(1.06098 0.0264327 0)
(1.07119 0.0254562 0)
(1.08677 0.0243652 0)
(1.08124 0.0222467 0)
(0.972191 0.0164546 0)
(0.710556 0.00861665 0)
(0.378881 0.00272897 0)
(0.0711109 0.00016153 0)
(0.105018 0.000162317 0)
(0.659431 0.00362519 0)
(0.953417 0.00587553 0)
(1.10954 0.00718259 0)
(1.13613 0.00947714 0)
(1.11854 0.0133148 0)
(1.10083 0.0178476 0)
(1.08672 0.0225805 0)
(1.07465 0.027086 0)
(1.06422 0.0306607 0)
(1.05742 0.03224 0)
(1.05578 0.0318995 0)
(1.05939 0.0304887 0)
(1.06916 0.0287693 0)
(1.08374 0.0269394 0)
(1.0729 0.0238804 0)
(0.954072 0.0172386 0)
(0.689791 0.00907778 0)
(0.363828 0.00293742 0)
(0.0669634 0.000174283 0)
(0.109484 0.000229845 0)
(0.670888 0.00525583 0)
(0.959933 0.00915845 0)
(1.11486 0.0118207 0)
(1.14268 0.0147488 0)
(1.12531 0.0191684 0)
(1.10694 0.0243048 0)
(1.09186 0.0296062 0)
(1.07843 0.0344814 0)
(1.06623 0.038013 0)
(1.05755 0.0390652 0)
(1.0544 0.037952 0)
(1.05688 0.0357107 0)
(1.06603 0.0331777 0)
(1.07921 0.0305457 0)
(1.06264 0.0263649 0)
(0.934457 0.0187617 0)
(0.667967 0.0100042 0)
(0.347543 0.00328411 0)
(0.0624328 0.000191336 0)
(0.115562 0.000316287 0)
(0.687465 0.00718031 0)
(0.971191 0.0130058 0)
(1.1228 0.0171874 0)
(1.15055 0.0209923 0)
(1.13311 0.026281 0)
(1.1139 0.0322643 0)
(1.09746 0.0382813 0)
(1.08218 0.0435609 0)
(1.06773 0.0470351 0)
(1.05686 0.0474497 0)
(1.05201 0.045396 0)
(1.05327 0.0421994 0)
(1.06165 0.0388341 0)
(1.07309 0.0353257 0)
(1.05025 0.0299264 0)
(0.912879 0.0211995 0)
(0.644 0.011451 0)
(0.329147 0.00377706 0)
(0.0573359 0.00021478 0)
(0.123678 0.000436725 0)
(0.709831 0.00967738 0)
(0.987632 0.0176919 0)
(1.1341 0.0236296 0)
(1.16039 0.0286992 0)
(1.14241 0.0352296 0)
(1.12197 0.0422665 0)
(1.1037 0.049099 0)
(1.0861 0.0547868 0)
(1.06893 0.0580642 0)
(1.05545 0.0576442 0)
(1.04858 0.0544516 0)
(1.04848 0.0501557 0)
(1.05595 0.0458353 0)
(1.06526 0.0414288 0)
(1.03553 0.0347296 0)
(0.888566 0.0245868 0)
(0.616674 0.0133636 0)
(0.307829 0.00438704 0)
(0.051506 0.000242962 0)
(0.134541 0.000614255 0)
(0.739094 0.0131422 0)
(1.01012 0.0237525 0)
(1.14957 0.0316826 0)
(1.17299 0.0383054 0)
(1.1536 0.0464666 0)
(1.13133 0.0547644 0)
(1.11061 0.0625302 0)
(1.09007 0.0686146 0)
(1.0696 0.0715197 0)
(1.05308 0.0700231 0)
(1.04394 0.0654927 0)
(1.04232 0.0598942 0)
(1.04889 0.0544521 0)
(1.05561 0.0491004 0)
(1.01792 0.0408371 0)
(0.860489 0.0288572 0)
(0.58483 0.0156435 0)
(0.282973 0.00506606 0)
(0.0448346 0.000272664 0)
(0.149351 0.000895934 0)
(0.777048 0.0182336 0)
(1.04016 0.0320345 0)
(1.16993 0.0423918 0)
(1.18896 0.0511063 0)
(1.16699 0.060983 0)
(1.14207 0.0707299 0)
(1.11812 0.0794064 0)
(1.09388 0.0856583 0)
(1.06946 0.0878267 0)
(1.0495 0.0849041 0)
(1.03785 0.0787961 0)
(1.03457 0.071696 0)
(1.04013 0.0648787 0)
(1.0438 0.0581917 0)
(0.996619 0.0482084 0)
(0.827557 0.0339111 0)
(0.547495 0.0181684 0)
(0.254274 0.00575632 0)
(0.0373322 0.000297884 0)
(0.170261 0.00138786 0)
(0.826918 0.0261129 0)
(1.08052 0.0441883 0)
(1.19603 0.0576886 0)
(1.20864 0.0690048 0)
(1.18273 0.080717 0)
(1.1541 0.0917674 0)
(1.12593 0.10089 0)
(1.09717 0.106642 0)
(1.06824 0.107372 0)
(1.0445 0.102391 0)
(1.03016 0.0942686 0)
(1.02505 0.0855142 0)
(1.02927 0.0772183 0)
(1.02907 0.0689335 0)
(0.970792 0.0568177 0)
(0.788596 0.0396629 0)
(0.504034 0.0208428 0)
(0.22181 0.00640711 0)
(0.0291434 0.000312625 0)
(0.200698 0.00249773 0)
(0.894665 0.0396101 0)
(1.13403 0.0640881 0)
(1.22831 0.0810487 0)
(1.23202 0.0952915 0)
(1.20032 0.108376 0)
(1.16662 0.119782 0)
(1.13314 0.128205 0)
(1.09916 0.132268 0)
(1.06528 0.130428 0)
(1.03755 0.122466 0)
(1.02052 0.111721 0)
(1.01364 0.100949 0)
(1.01616 0.091197 0)
(1.01109 0.0813131 0)
(0.939548 0.0667721 0)
(0.742273 0.0458612 0)
(0.454707 0.023612 0)
(0.186566 0.00701377 0)
(0.0206911 0.000310184 0)
(0.242355 0.00875084 1.18283e-19)
(0.984251 0.0666865 1.05149e-19)
(1.19855 0.0979594 -3.65632e-20)
(1.26477 0.11622 0)
(1.2567 0.133507 -9.02092e-34)
(1.21778 0.146198 1.30998e-20)
(1.17806 0.156219 -2.30324e-20)
(1.13859 0.162516 0)
(1.09889 0.163807 4.60145e-34)
(1.05962 0.158605 -2.73003e-20)
(1.0275 0.147254 0)
(1.00745 0.133697 -3.18214e-20)
(0.998673 0.120788 -9.34161e-20)
(0.999344 0.109751 -4.39689e-20)
(0.988558 0.0988905 -1.31626e-20)
(0.898606 0.0809033 -7.78507e-21)
(0.683589 0.0544622 0)
(0.396747 0.027627 5.43876e-21)
(0.149274 0.0085686 6.40277e-21)
(0.0127631 0.000553905 1.13506e-19)
(0.270655 0.0241613 9.45275e-20)
(1.05775 0.109172 1.0203e-21)
(1.25105 0.146431 1.00933e-20)
(1.29857 0.165096 0)
(1.27883 0.181847 -4.69836e-20)
(1.23295 0.192704 -5.27219e-20)
(1.18701 0.200575 -2.35696e-20)
(1.14136 0.204549 -8.21561e-20)
(1.09553 0.203259 0)
(1.05018 0.195242 1.16977e-19)
(1.01263 0.181346 1.15011e-19)
(0.988456 0.165861 3.39944e-20)
(0.976864 0.151384 1.22803e-19)
(0.973773 0.138241 1.71362e-19)
(0.951367 0.123192 0)
(0.841419 0.0996355 2.40261e-19)
(0.615245 0.0663118 3.44245e-19)
(0.33874 0.0339481 3.8137e-19)
(0.11686 0.0109605 -4.34522e-19)
(0.00644011 0.000599915 -8.03582e-21)
(0.270899 0.0398063 0)
(1.10327 0.164509 1.85278e-20)
(1.2866 0.20606 0)
(1.32499 0.224624 -6.60074e-20)
(1.2965 0.237772 0)
(1.24455 0.244926 -1.05763e-19)
(1.19277 0.249269 4.86758e-20)
(1.14135 0.249962 -1.67476e-19)
(1.08984 0.245596 -3.13309e-21)
(1.03891 0.234762 6.10149e-20)
(0.996361 0.218637 2.52792e-19)
(0.968066 0.201539 -6.06447e-22)
(0.95251 0.185459 -8.92793e-20)
(0.943251 0.169508 -1.61883e-19)
(0.91112 0.149985 1.91448e-19)
(0.7972 0.121251 -3.37959e-19)
(0.578917 0.0820337 -4.43984e-20)
(0.318955 0.0435786 0)
(0.112545 0.0149957 1.43887e-23)
(0.00632113 0.000893241 0)
(0.263863 0.0532962 2.80968e-19)
(1.12659 0.222914 -1.32603e-19)
(1.30838 0.27048 -9.47513e-20)
(1.34228 0.288851 3.23837e-20)
(1.30799 0.297794 -5.39966e-20)
(1.25148 0.300528 2.22961e-19)
(1.195 0.300728 1.02282e-19)
(1.13874 0.297666 0)
(1.08232 0.289883 -3.10601e-19)
(1.02643 0.275903 0)
(0.979262 0.257073 -1.33375e-19)
(0.946738 0.237647 -1.62844e-19)
(0.926319 0.219145 -9.73601e-20)
(0.910403 0.200249 -1.1767e-19)
(0.873007 0.17778 0)
(0.76509 0.145913 0)
(0.562659 0.102457 -2.90826e-19)
(0.32107 0.0577677 5.72259e-20)
(0.121189 0.0217136 -3.36018e-20)
(0.00921159 0.00174983 -3.86888e-20)
(0.255981 0.0652627 -1.43056e-19)
(1.1356 0.281156 0)
(1.3199 0.335689 2.10012e-19)
(1.35136 0.354354 9.50751e-20)
(1.31326 0.359186 1.22175e-19)
(1.25356 0.35748 0)
(1.19358 0.353534 1.02029e-19)
(1.13347 0.346646 1.86951e-19)
(1.07294 0.33525 1.60403e-19)
(1.01262 0.31765 2.87272e-19)
(0.961166 0.295341 0)
(0.924428 0.272835 -3.51577e-19)
(0.899248 0.251544 -2.10573e-19)
(0.877965 0.23041 -1.24072e-19)
(0.838693 0.206509 7.58187e-19)
(0.739821 0.173466 9.01182e-20)
(0.554707 0.126 4.22642e-19)
(0.329523 0.0748626 -1.98692e-18)
(0.134148 0.0307041 1.18119e-18)
(0.0134319 0.00324634 -1.40205e-18)
(0.248724 0.0760856 -1.06846e-19)
(1.13571 0.337359 2.75215e-20)
(1.32365 0.399927 -2.66195e-20)
(1.3537 0.419347 -1.09047e-19)
(1.31317 0.420379 -1.1067e-19)
(1.25134 0.414481 3.49801e-21)
(1.18876 0.406629 -1.10272e-19)
(1.12559 0.396027 1.94685e-19)
(1.06158 0.380924 -3.45074e-19)
(0.997282 0.359332 0)
(0.941859 0.333058 -1.60069e-19)
(0.901271 0.307179 -3.2208e-21)
(0.871996 0.283317 -2.29898e-19)
(0.846975 0.260688 0)
(0.80776 0.235952 -1.64051e-19)
(0.718187 0.201754 -3.89492e-19)
(0.548804 0.150875 1.03905e-18)
(0.338321 0.0934155 -1.01755e-18)
(0.14636 0.0408914 1.44643e-18)
(0.0174468 0.00509248 -1.48021e-18)
(0.242841 0.0861486 -7.99506e-22)
(1.13047 0.390924 -2.10025e-20)
(1.32185 0.46227 -9.35308e-20)
(1.35076 0.482672 4.94787e-20)
(1.30872 0.480416 -5.67486e-20)
(1.24556 0.470753 0)
(1.18105 0.459298 -1.05771e-19)
(1.11538 0.445138 -2.04619e-19)
(1.04833 0.426311 -1.80193e-19)
(0.980406 0.400555 0)
(0.921357 0.370173 -1.66721e-19)
(0.877474 0.340995 -2.04326e-19)
(0.84511 0.314912 2.4888e-19)
(0.817748 0.291147 -1.50342e-19)
(0.779222 0.265997 -7.13892e-19)
(0.696692 0.23078 4.26019e-19)
(0.541511 0.176417 1.27182e-19)
(0.343437 0.112337 0)
(0.155091 0.0512831 -1.3953e-18)
(0.0205905 0.00702779 -5.03592e-20)
(0.23838 0.0957917 -9.16845e-21)
(1.12221 0.441721 1.71308e-20)
(1.31619 0.522567 4.74596e-20)
(1.34387 0.543655 1.68168e-19)
(1.30085 0.538696 -2.19899e-19)
(1.23696 0.525749 2.29469e-19)
(1.17101 0.511016 2.27192e-19)
(1.10323 0.493485 -3.26993e-19)
(1.03343 0.470987 1.08723e-19)
(0.962193 0.441066 -7.05846e-19)
(0.899864 0.406625 -1.87195e-19)
(0.853244 0.374278 0)
(0.818667 0.346113 2.69205e-19)
(0.789942 0.321181 3.20968e-19)
(0.752361 0.295304 3.83183e-19)
(0.675196 0.258441 -4.60989e-19)
(0.53133 0.200952 -1.35943e-19)
(0.3433 0.130155 1.59519e-19)
(0.158849 0.0606435 0)
(0.0223655 0.00870119 -1.08944e-19)
(0.235187 0.105169 5.48677e-20)
(1.11257 0.4899 -5.10363e-20)
(1.30789 0.580374 -4.73381e-20)
(1.33411 0.60198 1.09245e-19)
(1.29042 0.594811 -1.05393e-19)
(1.22619 0.579039 -8.04764e-21)
(1.15913 0.561374 -2.46735e-19)
(1.08952 0.540688 -1.17893e-19)
(1.01724 0.514646 -3.12124e-19)
(0.942929 0.480686 5.08365e-22)
(0.877606 0.4423 -5.87178e-19)
(0.828701 0.406852 4.88872e-19)
(0.792511 0.376578 -2.9425e-19)
(0.762947 0.350226 3.5189e-19)
(0.726184 0.323121 0)
(0.653272 0.284299 -2.48816e-19)
(0.518229 0.223337 -1.29584e-21)
(0.338146 0.145698 -6.92164e-19)
(0.157826 0.0680963 -1.01211e-19)
(0.02281 0.00989522 0)
(0.233095 0.114402 0)
(1.10245 0.53569 -4.7771e-20)
(1.29776 0.635206 -7.86363e-20)
(1.32238 0.657462 -1.07273e-19)
(1.27814 0.648503 -1.2528e-19)
(1.2138 0.630334 0)
(1.14588 0.610058 -1.16237e-19)
(1.07466 0.586458 -2.2911e-21)
(1.00008 0.557081 6.67869e-19)
(0.922919 0.519283 -9.73103e-20)
(0.854817 0.477079 -4.22987e-19)
(0.803921 0.43854 2.54942e-19)
(0.766507 0.405991 -4.10868e-21)
(0.736418 0.378021 3.739e-19)
(0.700292 0.349309 2.2946e-19)
(0.630502 0.308004 -5.36468e-19)
(0.502074 0.242973 6.34906e-19)
(0.327986 0.158241 1.86934e-19)
(0.152777 0.0731559 7.67159e-19)
(0.0220191 0.0104831 -2.0254e-18)
(0.232005 0.123636 -2.46542e-21)
(1.09242 0.579257 -9.98474e-21)
(1.28674 0.687118 1.79712e-20)
(1.30932 0.710119 9.83532e-20)
(1.26463 0.699622 0)
(1.20029 0.679422 -1.14117e-19)
(1.13166 0.656847 3.85252e-19)
(1.05901 0.630595 2.59548e-19)
(0.982303 0.598144 0)
(0.902438 0.556765 -1.39246e-18)
(0.83169 0.510875 1.14027e-18)
(0.778955 0.469204 0)
(0.740508 0.434177 3.41811e-19)
(0.710063 0.404268 -4.04796e-21)
(0.674428 0.373556 -7.31473e-19)
(0.60681 0.329199 2.86233e-19)
(0.482867 0.259187 0)
(0.313658 0.167336 1.00703e-18)
(0.144087 0.0758033 0)
(0.0202166 0.0104629 -9.55197e-19)
(0.231714 0.132903 9.0544e-21)
(1.08292 0.620676 4.68926e-21)
(1.27507 0.73623 2.25722e-20)
(1.29547 0.759936 0)
(1.25037 0.748111 -1.18001e-19)
(1.18608 0.726197 0)
(1.11684 0.701596 -3.86918e-19)
(1.04288 0.672969 -1.23681e-19)
(0.964198 0.637746 1.18905e-19)
(0.881745 0.593084 -6.87845e-19)
(0.808375 0.543661 1.18117e-19)
(0.753814 0.498791 0)
(0.714398 0.461063 -7.29175e-19)
(0.683641 0.428879 4.10851e-21)
(0.64829 0.395731 0)
(0.581971 0.347745 4.20089e-21)
(0.460899 0.271928 9.20435e-19)
(0.295649 0.172739 -8.69172e-19)
(0.132646 0.0760685 2.54782e-19)
(0.017758 0.00995278 0)
(0.231853 0.142084 0)
(1.07405 0.660082 1.7061e-20)
(1.26306 0.782676 -5.81962e-21)
(1.28127 0.806939 -4.68829e-21)
(1.23574 0.793981 -4.90075e-20)
(1.1715 0.770608 -2.55816e-19)
(1.10174 0.744237 1.42851e-19)
(1.02658 0.713511 -1.42849e-19)
(0.94604 0.675831 5.26129e-19)
(0.86105 0.628223 -1.09717e-18)
(0.785004 0.575452 -6.96319e-21)
(0.728515 0.527319 -3.21651e-19)
(0.68807 0.486652 1.17991e-18)
(0.656982 0.451876 -4.80884e-21)
(0.621693 0.415855 -5.65003e-19)
(0.555863 0.363554 -1.00848e-18)
(0.43648 0.281184 0)
(0.274627 0.174604 0)
(0.119082 0.073991 2.7546e-19)
(0.014909 0.00896209 -1.58784e-19)
(0.232521 0.151305 2.58306e-20)
(1.06578 0.697348 -5.12315e-20)
(1.25101 0.826546 5.51478e-21)
(1.26703 0.851211 0)
(1.22103 0.837268 -3.09595e-21)
(1.15684 0.812649 -2.45939e-19)
(1.08661 0.784745 3.52657e-19)
(1.01036 0.752191 5.7032e-19)
(0.928055 0.712387 6.85378e-19)
(0.840559 0.662189 -8.96615e-19)
(0.761726 0.606305 -9.74301e-19)
(0.7031 0.554884 8.59135e-19)
(0.661473 0.511034 0)
(0.62996 0.473298 -2.56666e-19)
(0.594526 0.433917 -6.1049e-19)
(0.528516 0.376557 -7.23167e-19)
(0.409736 0.286787 -8.57353e-19)
(0.251231 0.172954 2.52785e-19)
(0.103941 0.0696257 -1.48054e-19)
(0.0117334 0.00753782 5.66436e-22)
(0.233294 0.160389 0)
(1.05819 0.732988 0)
(1.2391 0.867959 5.06001e-21)
(1.25291 0.892869 0)
(1.20645 0.878054 1.37589e-19)
(1.14229 0.85236 1.76789e-19)
(1.07165 0.823129 0)
(0.994404 0.789011 6.91589e-20)
(0.910446 0.74741 1.14525e-18)
(0.820468 0.695002 -2.05683e-18)
(0.738698 0.636301 0)
(0.677651 0.581628 -5.51351e-19)
(0.634561 0.534342 -5.83668e-21)
(0.602449 0.493214 -4.73339e-21)
(0.566685 0.449872 6.51468e-19)
(0.499946 0.386612 -7.53134e-22)
(0.380773 0.288633 -1.84338e-18)
(0.225767 0.167734 5.4341e-19)
(0.0881971 0.0634528 1.5987e-19)
(0.00856456 0.00586118 0)
(0.234066 0.169314 -1.36093e-19)
(1.05099 0.766974 -5.45142e-20)
(1.22735 0.906961 -3.68696e-20)
(1.23908 0.932025 -7.28903e-20)
(1.19217 0.91641 2.12561e-19)
(1.12804 0.889794 0)
(1.05703 0.859427 2.18511e-19)
(0.978888 0.823994 -1.52287e-19)
(0.893375 0.780918 7.68653e-21)
(0.800954 0.726693 1.50486e-19)
(0.716082 0.665526 1.25747e-18)
(0.652256 0.607717 -1.93459e-19)
(0.607289 0.556779 -7.23665e-19)
(0.57428 0.511716 -2.97895e-19)
(0.537999 0.463586 3.53887e-19)
(0.470209 0.3934 -4.09909e-22)
(0.35043 0.286547 4.96523e-19)
(0.199477 0.159335 -1.16778e-18)
(0.0725484 0.0559244 1.3746e-18)
(0.00555629 0.004062 1.9736e-19)
(0.234656 0.177953 5.65465e-20)
(1.04416 0.799392 -3.41866e-20)
(1.21588 0.943674 1.20194e-20)
(1.22562 0.968801 -1.48843e-20)
(1.17831 0.952442 -3.1957e-20)
(1.1142 0.925021 -3.16482e-19)
(1.04289 0.893689 6.70315e-20)
(0.963938 0.857162 -6.36417e-19)
(0.876982 0.812911 -1.26303e-18)
(0.782161 0.757266 -1.22406e-18)
(0.694037 0.694049 0)
(0.627024 0.633323 -8.44272e-19)
(0.579661 0.578608 1.03942e-18)
(0.545237 0.528966 0)
(0.508163 0.474861 -7.56557e-19)
(0.439288 0.396411 4.51994e-19)
(0.319292 0.280189 -5.32842e-19)
(0.173553 0.14807 -6.28134e-19)
(0.0579034 0.0475958 -1.10639e-18)
(0.00288983 0.00229262 -8.49663e-19)
(0.235532 0.186425 -6.84564e-20)
(1.03754 0.830206 3.66271e-20)
(1.20472 0.978171 7.47673e-20)
(1.2126 1.00328 -2.1037e-21)
(1.16493 0.98624 7.51211e-20)
(1.10085 0.958126 -1.81623e-19)
(1.0293 0.925968 2.20211e-19)
(0.949647 0.888563 -6.57051e-19)
(0.861357 0.843415 -7.47389e-19)
(0.764214 0.786734 1.28004e-18)
(0.67271 0.721925 2.75099e-18)
(0.602115 0.65861 0)
(0.551719 0.600124 0)
(0.515053 0.545261 -3.42036e-19)
(0.476616 0.483537 0)
(0.406887 0.394764 9.71957e-19)
(0.288212 0.268656 1.14605e-18)
(0.149792 0.133961 0)
(0.0455599 0.0390557 0)
(0.000737059 0.000738415 9.1253e-19)
(0.23602 0.194421 8.3192e-20)
(1.03115 0.859401 6.72514e-20)
(1.1939 1.01057 5.69035e-20)
(1.20005 1.0356 -2.15708e-20)
(1.15208 1.01791 6.52698e-20)
(1.08806 0.989187 2.01693e-19)
(1.01634 0.956329 -3.04047e-19)
(0.936081 0.91823 1.37176e-22)
(0.84658 0.872438 -9.91821e-21)
(0.74721 0.815093 -1.09039e-20)
(0.652274 0.749189 1.41397e-18)
(0.577714 0.683706 0)
(0.523588 0.621639 1.04524e-18)
(0.483509 0.56106 7.27813e-19)
(0.442489 0.489758 1.75976e-18)
(0.372017 0.387365 5.22124e-19)
(0.257827 0.249753 -6.17524e-19)
(0.131679 0.115099 -3.61524e-19)
(0.0400343 0.0296527 0)
(0.000399231 -0.00014471 9.79688e-19)
(0.236762 0.202398 -1.97613e-19)
(1.02495 0.887073 0)
(1.1834 1.04091 7.93474e-20)
(1.18798 1.06583 -2.74427e-20)
(1.13981 1.04754 -4.66406e-20)
(1.07585 1.01829 -2.41365e-19)
(1.00404 0.984834 6.03932e-19)
(0.923279 0.946203 -5.26722e-20)
(0.832694 0.899995 0)
(0.73123 0.842315 -1.41032e-18)
(0.63288 0.775843 -3.06793e-18)
(0.554029 0.708707 1.2393e-19)
(0.49551 0.643423 1.43401e-18)
(0.450551 0.576961 0)
(0.40475 0.494304 1.18367e-18)
(0.33237 0.373771 0)
(0.225984 0.219553 0)
(0.122385 0.0804538 -3.91366e-19)
(0.0608689 0.00838671 0)
(0.0260495 0.010257 2.62289e-19)
(0.237104 0.209739 -2.29963e-19)
(1.01891 0.91355 0)
(1.17322 1.0694 1.41943e-19)
(1.17635 1.09421 0)
(1.12806 1.0754 1.47034e-20)
(1.06418 1.04573 0)
(0.992341 1.0118 3.22369e-20)
(0.91115 0.97283 9.01063e-20)
(0.819588 0.926457 9.28972e-20)
(0.716127 0.868795 -1.54441e-18)
(0.614386 0.802328 9.23571e-20)
(0.530897 0.734203 9.90412e-19)
(0.467228 0.66613 1.39404e-18)
(0.41557 0.593882 1.87277e-19)
(0.3617 0.498965 9.24032e-19)
(0.283561 0.355756 0)
(0.181659 0.17723 1.30197e-18)
(0.0940135 0.0225491 -7.57952e-19)
(0.0425403 0.0460484 8.70454e-19)
(-0.0596606 0.427714 -1.03356e-18)
(0.237388 0.216852 1.95772e-19)
(1.01278 0.938622 2.9415e-19)
(1.16326 1.09636 0)
(1.165 1.12116 1.00775e-20)
(1.11664 1.10205 -1.79794e-20)
(1.05277 1.07218 3.51821e-19)
(0.980943 1.03803 2.16756e-19)
(0.899302 0.999057 0)
(0.80675 0.952922 6.23794e-19)
(0.70125 0.895836 -8.15291e-20)
(0.595909 0.830109 0)
(0.50719 0.761962 0)
(0.437275 0.691522 1.2448e-18)
(0.376904 0.613305 -5.76944e-19)
(0.310506 0.50661 -9.32374e-19)
(0.221002 0.338624 0)
(0.104528 0.16549 6.48285e-19)
(0.00948513 0.437944 -7.4524e-19)
(0.0342073 1.87796 -4.1253e-19)
(0.0657503 2.80159 -5.43109e-19)
(0.237425 0.223168 -1.52498e-19)
(1.00665 0.962447 -3.88355e-19)
(1.15352 1.12176 9.11761e-20)
(1.15394 1.14654 5.45487e-20)
(1.1056 1.12729 0)
(1.04169 1.09737 2.21263e-19)
(0.97004 1.06321 3.07148e-19)
(0.887916 1.02445 -4.42846e-20)
(0.794443 0.97887 9.24679e-20)
(0.686969 0.922824 1.47382e-18)
(0.578042 0.858494 1.5448e-18)
(0.483893 0.791598 1.10424e-18)
(0.406688 0.719307 1.24676e-18)
(0.336493 0.633903 -1.3457e-18)
(0.257373 0.520135 -1.40118e-18)
(0.145409 0.367293 0)
(0.0519639 0.830858 0)
(0.105162 2.54395 3.58897e-19)
(0.107933 3.19477 0)
(0.110297 3.38508 8.04456e-19)
(0.240484 0.228963 0)
(1.00112 0.985259 0)
(1.14376 1.14548 0)
(1.1429 1.17014 2.03698e-20)
(1.09462 1.15086 -6.7087e-21)
(1.03072 1.12114 1.33635e-19)
(0.959534 1.08724 2.01338e-19)
(0.876936 1.0489 -4.3601e-20)
(0.782616 1.00415 7.85066e-19)
(0.6733 0.949609 -1.94546e-20)
(0.560909 0.887334 3.04984e-18)
(0.4614 0.822999 -1.26437e-19)
(0.375818 0.750217 1.50983e-19)
(0.296645 0.653026 1.93315e-19)
(0.196995 0.540594 -2.03876e-21)
(0.112178 0.963225 3.49167e-21)
(0.147782 2.70211 -1.86179e-18)
(0.157455 3.28884 -7.00917e-19)
(0.145036 3.42589 3.58502e-19)
(0.13087 3.44849 -3.96097e-19)
(0.159433 0.180284 9.12581e-20)
(0.991046 1.00996 0)
(1.13377 1.16774 -2.01828e-19)
(1.13236 1.19233 -1.6868e-19)
(1.08435 1.17344 4.9017e-20)
(1.02067 1.14409 -1.29052e-19)
(0.949271 1.1102 -2.11146e-19)
(0.866437 1.07251 5.03564e-19)
(0.771441 1.02886 -6.44046e-19)
(0.660558 0.976272 0)
(0.544933 0.916728 1.49721e-18)
(0.440273 0.855916 -8.96963e-19)
(0.345209 0.78724 0)
(0.255343 0.675218 1.73445e-19)
(0.162669 0.811054 4.20763e-19)
(0.162887 2.46615 -5.06244e-19)
(0.223533 3.32255 5.61702e-19)
(0.202017 3.44114 3.07864e-19)
(0.167167 3.46285 3.44312e-19)
(0.14454 3.47311 5.60024e-19)
(0.28091 0.267902 -1.57844e-19)
(0.975412 1.01994 0)
(1.11594 1.19301 2.32019e-19)
(1.11775 1.22489 2.15206e-19)
(1.06811 1.20686 -9.44103e-20)
(1.00388 1.17808 7.83423e-20)
(0.931553 1.14563 2.3106e-19)
(0.848076 1.10908 3.90895e-20)
(0.751756 1.06746 6.25494e-19)
(0.638205 1.01853 1.28329e-18)
(0.517626 0.964816 8.54463e-20)
(0.404812 0.911095 7.98844e-19)
(0.291864 0.849522 1.4073e-19)
(0.221458 0.977447 -1.75611e-19)
(0.236064 2.31741 -3.98944e-19)
(0.297496 3.32746 3.82667e-19)
(0.281821 3.47319 -4.36584e-19)
(0.245372 3.49481 -2.55498e-19)
(0.207617 3.52195 -2.15333e-19)
(0.155881 3.51475 -2.06828e-20)
(0.270056 0.265409 0)
(0.973428 1.04293 7.5862e-20)
(1.10807 1.21638 -5.09183e-20)
(1.10788 1.2482 -2.8921e-20)
(1.05787 1.23004 -8.35009e-20)
(0.993717 1.20155 -6.38779e-20)
(0.921068 1.16931 -1.32305e-19)
(0.837437 1.13354 3.57156e-20)
(0.740704 1.09332 -6.57556e-19)
(0.626095 1.04704 -2.82525e-20)
(0.503235 0.997847 -2.72462e-18)
(0.386673 0.949595 1.1341e-19)
(0.280224 0.918085 -1.32773e-19)
(0.260419 1.48569 -1.64281e-19)
(0.334948 3.09035 3.4428e-20)
(0.358001 3.47194 2.07022e-21)
(0.316148 3.52928 6.62555e-19)
(0.278406 3.55417 3.31608e-19)
(0.22916 3.57718 -9.53616e-20)
(0.170423 3.57238 -1.03844e-19)
(0.254128 0.263275 1.9903e-19)
(0.969963 1.06847 5.29847e-19)
(1.09973 1.24186 -1.48083e-19)
(1.09746 1.27293 -1.09766e-19)
(1.04717 1.25459 0)
(0.983148 1.22618 -2.23852e-20)
(0.910443 1.1942 -1.61771e-19)
(0.826933 1.15917 3.21242e-20)
(0.730108 1.12043 -7.26857e-20)
(0.61496 1.07701 -1.17819e-18)
(0.490629 1.03269 -1.26461e-18)
(0.372141 0.990953 -9.38686e-19)
(0.282803 1.04758 -1.0043e-18)
(0.328162 2.17503 1.03138e-18)
(0.421011 3.37925 8.58201e-19)
(0.402145 3.53238 0)
(0.354653 3.57568 0)
(0.316126 3.61583 -7.88851e-20)
(0.263782 3.67536 0)
(0.182245 3.65012 -9.62587e-20)
(0.243408 0.264968 -3.08674e-19)
(0.964345 1.09489 -4.63654e-19)
(1.09001 1.26855 0)
(1.08578 1.29851 1.19564e-20)
(1.0353 1.27978 -1.25234e-19)
(0.971512 1.25132 1.80755e-20)
(0.899069 1.2196 -8.61139e-20)
(0.815889 1.18522 2.20233e-20)
(0.719216 1.14788 -4.81798e-19)
(0.603929 1.10729 6.03976e-20)
(0.478933 1.06797 0)