0.490941 	0.874813 	0.00623822 	3.00283 	0
0.561075 	0.874813 	0.00623822 	3.00283 	0
0.63121 	0.874813 	0.00623822 	3.00283 	0
0.701344 	0.874813 	0.00623822 	3.00283 	0
0.771478 	0.874813 	0.00623822 	3.00283 	0
0.841613 	0.874813 	0.00623822 	3.00283 	0
0.911747 	0.874813 	0.00623822 	3.00283 	0
0.981881 	0.874813 	0.00623822 	3.00283 	0
1.05202 	0.874813 	0.00623822 	3.00283 	0
1.12215 	0.874813 	0.00623822 	3.00283 	0
1.19228 	0.874813 	0.00623822 	3.00283 	0
1.26242 	0.848597 	0.0116653 	3.00751 	0
1.33255 	0.848597 	0.0116653 	3.00751 	0
1.40269 	0.848597 	0.0116653 	3.00751 	0
1.47282 	0.848597 	0.0116653 	3.00751 	0
1.54296 	0.848597 	0.0116653 	3.00751 	0
1.61309 	0.848597 	0.0116653 	3.00751 	0
1.68323 	0.848597 	0.0116653 	3.00751 	0
1.75336 	0.848597 	0.0116653 	3.00751 	0
1.82349 	0.798798 	0.0142572 	3.02493 	3.04127e-19
1.89363 	0.798798 	0.0142572 	3.02493 	3.04127e-19
1.96376 	0.798798 	0.0142572 	3.02493 	3.04127e-19
2.0339 	0.798798 	0.0142572 	3.02493 	3.04127e-19
2.10403 	0.798798 	0.0142572 	3.02493 	3.04127e-19
2.17417 	0.798798 	0.0142572 	3.02493 	3.04127e-19
2.2443 	0.798798 	0.0142572 	3.02493 	3.04127e-19
2.31443 	0.798798 	0.0142572 	3.02493 	3.04127e-19
2.38457 	0.798798 	0.0142572 	3.02493 	3.04127e-19
2.4547 	0.798798 	0.0142572 	3.02493 	3.04127e-19
2.52484 	0.798798 	0.0142572 	3.02493 	3.04127e-19
2.59497 	0.764627 	0.00686368 	3.03615 	-4.76725e-19
2.66511 	0.764627 	0.00686368 	3.03615 	-4.76725e-19
2.73524 	0.764627 	0.00686368 	3.03615 	-4.76725e-19
2.80538 	0.764627 	0.00686368 	3.03615 	-4.76725e-19
2.87551 	0.764627 	0.00686368 	3.03615 	-4.76725e-19
2.94564 	0.764627 	0.00686368 	3.03615 	-4.76725e-19
3.01578 	0.764627 	0.00686368 	3.03615 	-4.76725e-19
3.08591 	0.764627 	0.00686368 	3.03615 	-4.76725e-19
3.15605 	0.764627 	0.00686368 	3.03615 	-4.76725e-19
3.22618 	0.764627 	0.00686368 	3.03615 	-4.76725e-19
3.29632 	0.732308 	0.019399 	3.04382 	4.84742e-19
3.36645 	0.732308 	0.019399 	3.04382 	4.84742e-19
3.43659 	0.732308 	0.019399 	3.04382 	4.84742e-19
3.50672 	0.732308 	0.019399 	3.04382 	4.84742e-19
3.57685 	0.732308 	0.019399 	3.04382 	4.84742e-19
3.64699 	0.732308 	0.019399 	3.04382 	4.84742e-19
3.71712 	0.732308 	0.019399 	3.04382 	4.84742e-19
3.78726 	0.732308 	0.019399 	3.04382 	4.84742e-19
3.85739 	0.732308 	0.019399 	3.04382 	4.84742e-19
3.92753 	0.732308 	0.019399 	3.04382 	4.84742e-19
3.99766 	0.732308 	0.019399 	3.04382 	4.84742e-19
4.06779 	0.712761 	0.00386762 	3.04912 	-1.34343e-20
4.13793 	0.712761 	0.00386762 	3.04912 	-1.34343e-20
4.20806 	0.712761 	0.00386762 	3.04912 	-1.34343e-20
4.2782 	0.712761 	0.00386762 	3.04912 	-1.34343e-20
4.34833 	0.712761 	0.00386762 	3.04912 	-1.34343e-20
4.41847 	0.712761 	0.00386762 	3.04912 	-1.34343e-20
4.4886 	0.688287 	0.016485 	3.05897 	0
4.55874 	0.688287 	0.016485 	3.05897 	0
4.62887 	0.688287 	0.016485 	3.05897 	0
4.699 	0.688287 	0.016485 	3.05897 	0
4.76914 	0.688287 	0.016485 	3.05897 	0
4.83927 	0.688287 	0.016485 	3.05897 	0
4.90941 	0.688287 	0.016485 	3.05897 	0
4.97954 	0.688287 	0.016485 	3.05897 	0
5.04968 	0.688287 	0.016485 	3.05897 	0
5.11981 	0.688287 	0.016485 	3.05897 	0
5.18994 	0.667526 	0.00688258 	3.06245 	-6.24491e-21
5.26008 	0.667526 	0.00688258 	3.06245 	-6.24491e-21
5.33021 	0.667526 	0.00688258 	3.06245 	-6.24491e-21
5.40035 	0.667526 	0.00688258 	3.06245 	-6.24491e-21
5.47048 	0.667526 	0.00688258 	3.06245 	-6.24491e-21
5.54062 	0.667526 	0.00688258 	3.06245 	-6.24491e-21
5.61075 	0.667526 	0.00688258 	3.06245 	-6.24491e-21
5.68089 	0.637228 	0.0108878 	3.07536 	0
5.75102 	0.637228 	0.0108878 	3.07536 	0
5.82115 	0.637228 	0.0108878 	3.07536 	0
5.89129 	0.637228 	0.0108878 	3.07536 	0
5.96142 	0.637228 	0.0108878 	3.07536 	0
6.03156 	0.637228 	0.0108878 	3.07536 	0
6.10169 	0.637228 	0.0108878 	3.07536 	0
6.17183 	0.637228 	0.0108878 	3.07536 	0
6.24196 	0.637228 	0.0108878 	3.07536 	0
6.3121 	0.607849 	0.00741587 	3.08169 	0
6.38223 	0.607849 	0.00741587 	3.08169 	0
6.45236 	0.607849 	0.00741587 	3.08169 	0
6.5225 	0.607849 	0.00741587 	3.08169 	0
6.59263 	0.607849 	0.00741587 	3.08169 	0
6.66277 	0.607849 	0.00741587 	3.08169 	0
6.7329 	0.607849 	0.00741587 	3.08169 	0
6.80304 	0.607849 	0.00741587 	3.08169 	0
6.87317 	0.581775 	0.00542425 	3.09194 	1.98191e-19
6.9433 	0.581775 	0.00542425 	3.09194 	1.98191e-19
7.01344 	0.581775 	0.00542425 	3.09194 	1.98191e-19
7.08357 	0.581775 	0.00542425 	3.09194 	1.98191e-19
7.15371 	0.581775 	0.00542425 	3.09194 	1.98191e-19
7.22384 	0.581775 	0.00542425 	3.09194 	1.98191e-19
7.29398 	0.581775 	0.00542425 	3.09194 	1.98191e-19
7.36411 	0.581775 	0.00542425 	3.09194 	1.98191e-19
7.43425 	0.581775 	0.00542425 	3.09194 	1.98191e-19
7.50438 	0.551236 	0.00793794 	3.09922 	-1.45326e-18
7.57451 	0.551236 	0.00793794 	3.09922 	-1.45326e-18
7.64465 	0.551236 	0.00793794 	3.09922 	-1.45326e-18
7.71478 	0.551236 	0.00793794 	3.09922 	-1.45326e-18
7.78492 	0.551236 	0.00793794 	3.09922 	-1.45326e-18
7.85505 	0.551236 	0.00793794 	3.09922 	-1.45326e-18
7.92519 	0.551236 	0.00793794 	3.09922 	-1.45326e-18
7.99532 	0.551236 	0.00793794 	3.09922 	-1.45326e-18
8.06545 	0.530638 	0.0013684 	3.10545 	1.45313e-18
8.13559 	0.530638 	0.0013684 	3.10545 	1.45313e-18
8.20572 	0.530638 	0.0013684 	3.10545 	1.45313e-18
8.27586 	0.530638 	0.0013684 	3.10545 	1.45313e-18
8.34599 	0.530638 	0.0013684 	3.10545 	1.45313e-18
8.41613 	0.530638 	0.0013684 	3.10545 	1.45313e-18
8.48626 	0.530638 	0.0013684 	3.10545 	1.45313e-18
8.5564 	0.530638 	0.0013684 	3.10545 	1.45313e-18
8.62653 	0.530638 	0.0013684 	3.10545 	1.45313e-18
8.69666 	0.499451 	0.0117674 	3.11853 	1.14418e-18
8.7668 	0.499451 	0.0117674 	3.11853 	1.14418e-18
8.83693 	0.499451 	0.0117674 	3.11853 	1.14418e-18
8.90707 	0.499451 	0.0117674 	3.11853 	1.14418e-18
8.9772 	0.499451 	0.0117674 	3.11853 	1.14418e-18
9.04734 	0.499451 	0.0117674 	3.11853 	1.14418e-18
9.11747 	0.499451 	0.0117674 	3.11853 	1.14418e-18
9.18761 	0.499451 	0.0117674 	3.11853 	1.14418e-18
9.25774 	0.468795 	0.00490128 	3.11799 	-1.05089e-18
9.32787 	0.468795 	0.00490128 	3.11799 	-1.05089e-18
9.39801 	0.468795 	0.00490128 	3.11799 	-1.05089e-18
9.46814 	0.468795 	0.00490128 	3.11799 	-1.05089e-18
9.53828 	0.468795 	0.00490128 	3.11799 	-1.05089e-18
9.60841 	0.468795 	0.00490128 	3.11799 	-1.05089e-18
9.67855 	0.468795 	0.00490128 	3.11799 	-1.05089e-18
9.74868 	0.468795 	0.00490128 	3.11799 	-1.05089e-18
9.81881 	0.452642 	0.0172113 	3.12922 	-3.54295e-19
9.88895 	0.452642 	0.0172113 	3.12922 	-3.54295e-19
9.95908 	0.452642 	0.0172113 	3.12922 	-3.54295e-19
10.0292 	0.452642 	0.0172113 	3.12922 	-3.54295e-19
10.0994 	0.452642 	0.0172113 	3.12922 	-3.54295e-19
10.1695 	0.452642 	0.0172113 	3.12922 	-3.54295e-19
10.2396 	0.452642 	0.0172113 	3.12922 	-3.54295e-19
10.3098 	0.452642 	0.0172113 	3.12922 	-3.54295e-19
10.3799 	0.452642 	0.0172113 	3.12922 	-3.54295e-19
10.45 	0.452642 	0.0172113 	3.12922 	-3.54295e-19
10.5202 	0.452642 	0.0172113 	3.12922 	-3.54295e-19
10.5903 	0.452642 	0.0172113 	3.12922 	-3.54295e-19
10.6604 	0.474252 	0.0148015 	3.12531 	5.21468e-19
10.7306 	0.42205 	0.0350184 	3.13962 	0
10.8007 	0.42205 	0.0350184 	3.13962 	0
10.8708 	0.42205 	0.0350184 	3.13962 	0
10.941 	0.42205 	0.0350184 	3.13962 	0
11.0111 	0.42205 	0.0350184 	3.13962 	0
11.0812 	0.42205 	0.0350184 	3.13962 	0
11.1514 	0.42205 	0.0350184 	3.13962 	0
11.2215 	0.42205 	0.0350184 	3.13962 	0
11.2916 	0.42205 	0.0350184 	3.13962 	0
11.3618 	0.42205 	0.0350184 	3.13962 	0
11.4319 	0.42205 	0.0350184 	3.13962 	0
11.502 	0.42205 	0.0350184 	3.13962 	0
11.5722 	0.42205 	0.0350184 	3.13962 	0
11.6423 	0.42205 	0.0350184 	3.13962 	0
11.7124 	0.428923 	0.0232512 	3.12964 	0
11.7826 	0.365312 	0.0730215 	3.16226 	5.32332e-19
11.8527 	0.365312 	0.0730215 	3.16226 	5.32332e-19
11.9228 	0.365312 	0.0730215 	3.16226 	5.32332e-19
11.993 	0.365312 	0.0730215 	3.16226 	5.32332e-19
12.0631 	0.365312 	0.0730215 	3.16226 	5.32332e-19
12.1332 	0.365312 	0.0730215 	3.16226 	5.32332e-19
12.2034 	0.269282 	0.0675971 	3.18647 	-2.3951e-19
12.2735 	0.269282 	0.0675971 	3.18647 	-2.3951e-19
12.3437 	0.269282 	0.0675971 	3.18647 	-2.3951e-19
12.4138 	0.269282 	0.0675971 	3.18647 	-2.3951e-19
12.4839 	0.269282 	0.0675971 	3.18647 	-2.3951e-19
12.5541 	0.269282 	0.0675971 	3.18647 	-2.3951e-19
12.6242 	0.269282 	0.0675971 	3.18647 	-2.3951e-19
12.6943 	0.269282 	0.0675971 	3.18647 	-2.3951e-19
12.7645 	0.269282 	0.0675971 	3.18647 	-2.3951e-19
12.8346 	0.153696 	0.0339734 	3.17929 	1.43686e-19
12.9047 	0.131441 	0.131556 	3.22362 	-2.67637e-20
12.9749 	0.131441 	0.131556 	3.22362 	-2.67637e-20
13.045 	0.131441 	0.131556 	3.22362 	-2.67637e-20
13.1151 	0.131441 	0.131556 	3.22362 	-2.67637e-20
13.1853 	0.131441 	0.131556 	3.22362 	-2.67637e-20
13.2554 	0.131441 	0.131556 	3.22362 	-2.67637e-20
13.3255 	0.131441 	0.131556 	3.22362 	-2.67637e-20
13.3957 	0.335137 	0.131055 	3.19975 	7.49617e-19
13.4658 	0.335137 	0.131055 	3.19975 	7.49617e-19
13.5359 	0.335137 	0.131055 	3.19975 	7.49617e-19
13.6061 	0.335137 	0.131055 	3.19975 	7.49617e-19
13.6762 	0.335137 	0.131055 	3.19975 	7.49617e-19
13.7463 	0.335137 	0.131055 	3.19975 	7.49617e-19
13.8165 	0.374581 	0.112577 	2.89186 	-6.53473e-19
13.8866 	0.564128 	0.113359 	2.97919 	1.77435e-19
13.9567 	0.564128 	0.113359 	2.97919 	1.77435e-19
14.0269 	0.0741751 	0.243688 	3.03332 	-8.03575e-19
14.097 	0.0741751 	0.243688 	3.03332 	-8.03575e-19
14.1671 	0.0741751 	0.243688 	3.03332 	-8.03575e-19
14.2373 	0.0741751 	0.243688 	3.03332 	-8.03575e-19
14.3074 	0.0741751 	0.243688 	3.03332 	-8.03575e-19
14.3776 	0.0741751 	0.243688 	3.03332 	-8.03575e-19
14.4477 	0.0741751 	0.243688 	3.03332 	-8.03575e-19
14.5178 	0.0741751 	0.243688 	3.03332 	-8.03575e-19
14.588 	0.0741751 	0.243688 	3.03332 	-8.03575e-19
14.6581 	0.0741751 	0.243688 	3.03332 	-8.03575e-19
14.7282 	0.0741751 	0.243688 	3.03332 	-8.03575e-19
14.7984 	0.0741751 	0.243688 	3.03332 	-8.03575e-19
14.8685 	0.0741751 	0.243688 	3.03332 	-8.03575e-19
14.9386 	-0.0294236 	0.307731 	3.17078 	0
15.0088 	-0.0294236 	0.307731 	3.17078 	0
15.0789 	-0.0294236 	0.307731 	3.17078 	0
15.149 	-0.0294236 	0.307731 	3.17078 	0
15.2192 	-0.0294236 	0.307731 	3.17078 	0
15.2893 	-0.570525 	0.347138 	3.40707 	-3.82179e-19
15.3594 	-0.570525 	0.347138 	3.40707 	-3.82179e-19
15.4296 	-0.570525 	0.347138 	3.40707 	-3.82179e-19
15.4997 	-0.570525 	0.347138 	3.40707 	-3.82179e-19
15.5698 	-0.570525 	0.347138 	3.40707 	-3.82179e-19
15.64 	-0.570525 	0.347138 	3.40707 	-3.82179e-19
15.7101 	-1.07351 	0.395249 	3.47457 	0
15.7802 	-1.07351 	0.395249 	3.47457 	0
15.8504 	-0.938614 	0.687723 	3.53619 	1.54573e-18
15.9205 	-0.938614 	0.687723 	3.53619 	1.54573e-18
15.9906 	-0.938614 	0.687723 	3.53619 	1.54573e-18
16.0608 	-0.938614 	0.687723 	3.53619 	1.54573e-18
16.1309 	-0.938614 	0.687723 	3.53619 	1.54573e-18
16.201 	-0.938614 	0.687723 	3.53619 	1.54573e-18
16.2712 	-0.938614 	0.687723 	3.53619 	1.54573e-18
16.3413 	-0.938614 	0.687723 	3.53619 	1.54573e-18
16.4114 	-0.938614 	0.687723 	3.53619 	1.54573e-18
16.4816 	-0.938614 	0.687723 	3.53619 	1.54573e-18
16.5517 	-0.938614 	0.687723 	3.53619 	1.54573e-18
16.6219 	-0.938614 	0.687723 	3.53619 	1.54573e-18
16.692 	-0.938614 	0.687723 	3.53619 	1.54573e-18
16.7621 	-0.938614 	0.687723 	3.53619 	1.54573e-18
16.8323 	-0.512767 	0.942438 	3.05484 	2.54365e-19
16.9024 	-0.512767 	0.942438 	3.05484 	2.54365e-19
16.9725 	-0.512767 	0.942438 	3.05484 	2.54365e-19
17.0427 	-0.512767 	0.942438 	3.05484 	2.54365e-19
17.1128 	-0.512767 	0.942438 	3.05484 	2.54365e-19
17.1829 	-0.512767 	0.942438 	3.05484 	2.54365e-19
17.2531 	-0.512767 	0.942438 	3.05484 	2.54365e-19
17.3232 	-0.512767 	0.942438 	3.05484 	2.54365e-19
17.3933 	-0.512767 	0.942438 	3.05484 	2.54365e-19
17.4635 	-0.512767 	0.942438 	3.05484 	2.54365e-19
17.5336 	-0.396019 	0.992651 	2.93351 	-2.78986e-19
17.6037 	-0.396019 	0.992651 	2.93351 	-2.78986e-19
17.6739 	-0.396019 	0.992651 	2.93351 	-2.78986e-19
17.744 	-0.505386 	1.10891 	3.04593 	4.19558e-19
17.8141 	-0.505386 	1.10891 	3.04593 	4.19558e-19
17.8843 	-0.505386 	1.10891 	3.04593 	4.19558e-19
17.9544 	-0.505386 	1.10891 	3.04593 	4.19558e-19
18.0245 	-0.505386 	1.10891 	3.04593 	4.19558e-19
18.0947 	-0.505386 	1.10891 	3.04593 	4.19558e-19
18.1648 	-0.505386 	1.10891 	3.04593 	4.19558e-19
18.2349 	-0.505386 	1.10891 	3.04593 	4.19558e-19
18.3051 	-0.505386 	1.10891 	3.04593 	4.19558e-19
18.3752 	-0.34545 	1.11545 	2.71908 	-3.18433e-19
18.4453 	-0.34545 	1.11545 	2.71908 	-3.18433e-19
18.5155 	-0.34545 	1.11545 	2.71908 	-3.18433e-19
18.5856 	-0.34545 	1.11545 	2.71908 	-3.18433e-19
18.6557 	-0.34545 	1.11545 	2.71908 	-3.18433e-19
18.7259 	-0.34545 	1.11545 	2.71908 	-3.18433e-19
18.796 	-0.34545 	1.11545 	2.71908 	-3.18433e-19
18.8662 	-0.400839 	1.11714 	2.79256 	4.96941e-19
18.9363 	-0.400839 	1.11714 	2.79256 	4.96941e-19
19.0064 	-0.400839 	1.11714 	2.79256 	4.96941e-19
19.0766 	-0.400839 	1.11714 	2.79256 	4.96941e-19
19.1467 	-0.400839 	1.11714 	2.79256 	4.96941e-19
19.2168 	-0.400839 	1.11714 	2.79256 	4.96941e-19
19.287 	-0.400839 	1.11714 	2.79256 	4.96941e-19
19.3571 	-0.400839 	1.11714 	2.79256 	4.96941e-19
19.4272 	-0.400839 	1.11714 	2.79256 	4.96941e-19
19.4974 	-0.400839 	1.11714 	2.79256 	4.96941e-19
19.5675 	-0.400839 	1.11714 	2.79256 	4.96941e-19
19.6376 	-0.400839 	1.11714 	2.79256 	4.96941e-19
19.7078 	-0.400839 	1.11714 	2.79256 	4.96941e-19
19.7779 	-0.328815 	1.15063 	2.50874 	4.79692e-20
19.848 	-0.328815 	1.15063 	2.50874 	4.79692e-20
19.9182 	-0.328815 	1.15063 	2.50874 	4.79692e-20
19.9883 	-0.328815 	1.15063 	2.50874 	4.79692e-20
20.0584 	-0.328815 	1.15063 	2.50874 	4.79692e-20
20.1286 	-0.328815 	1.15063 	2.50874 	4.79692e-20
20.1987 	-0.328815 	1.15063 	2.50874 	4.79692e-20
20.2688 	-0.452323 	1.07368 	2.5879 	-4.90186e-19
20.339 	-0.452323 	1.07368 	2.5879 	-4.90186e-19
20.4091 	-0.452323 	1.07368 	2.5879 	-4.90186e-19
20.4792 	-0.452323 	1.07368 	2.5879 	-4.90186e-19
20.5494 	-0.452323 	1.07368 	2.5879 	-4.90186e-19
20.6195 	-0.452323 	1.07368 	2.5879 	-4.90186e-19
20.6896 	-0.452323 	1.07368 	2.5879 	-4.90186e-19
20.7598 	-0.452323 	1.07368 	2.5879 	-4.90186e-19
20.8299 	-0.452323 	1.07368 	2.5879 	-4.90186e-19
20.9 	-0.452323 	1.07368 	2.5879 	-4.90186e-19
20.9702 	-0.452323 	1.07368 	2.5879 	-4.90186e-19
21.0403 	-0.452323 	1.07368 	2.5879 	-4.90186e-19
21.1105 	-0.452323 	1.07368 	2.5879 	-4.90186e-19
21.1806 	-0.452323 	1.07368 	2.5879 	-4.90186e-19
21.2507 	-0.452323 	1.07368 	2.5879 	-4.90186e-19
21.3209 	-0.452323 	1.07368 	2.5879 	-4.90186e-19
21.391 	-0.452323 	1.07368 	2.5879 	-4.90186e-19
21.4611 	-0.667205 	1.05389 	2.1211 	7.57003e-19
21.5313 	-0.667205 	1.05389 	2.1211 	7.57003e-19
21.6014 	-0.667205 	1.05389 	2.1211 	7.57003e-19
21.6715 	-0.880167 	0.806152 	2.27278 	5.43689e-19
21.7417 	-0.880167 	0.806152 	2.27278 	5.43689e-19
21.8118 	-0.880167 	0.806152 	2.27278 	5.43689e-19
21.8819 	-0.880167 	0.806152 	2.27278 	5.43689e-19
21.9521 	-0.880167 	0.806152 	2.27278 	5.43689e-19
22.0222 	-0.733986 	0.810885 	2.85306 	-7.92793e-19
22.0923 	-0.733986 	0.810885 	2.85306 	-7.92793e-19
22.1625 	-0.733986 	0.810885 	2.85306 	-7.92793e-19
22.2326 	-0.733986 	0.810885 	2.85306 	-7.92793e-19
22.3027 	-0.733986 	0.810885 	2.85306 	-7.92793e-19
22.3729 	-0.733986 	0.810885 	2.85306 	-7.92793e-19
22.443 	-0.733986 	0.810885 	2.85306 	-7.92793e-19
22.5131 	-0.733986 	0.810885 	2.85306 	-7.92793e-19
22.5833 	-0.733986 	0.810885 	2.85306 	-7.92793e-19
22.6534 	-0.733986 	0.810885 	2.85306 	-7.92793e-19
22.7235 	-0.733986 	0.810885 	2.85306 	-7.92793e-19
22.7937 	-0.733986 	0.810885 	2.85306 	-7.92793e-19
22.8638 	-0.733986 	0.810885 	2.85306 	-7.92793e-19
22.9339 	-0.733986 	0.810885 	2.85306 	-7.92793e-19
23.0041 	-0.733986 	0.810885 	2.85306 	-7.92793e-19
23.0742 	-0.733986 	0.810885 	2.85306 	-7.92793e-19
23.1443 	-0.733986 	0.810885 	2.85306 	-7.92793e-19
23.2145 	-0.733986 	0.810885 	2.85306 	-7.92793e-19
23.2846 	-0.733986 	0.810885 	2.85306 	-7.92793e-19
23.3548 	-0.733986 	0.810885 	2.85306 	-7.92793e-19
23.4249 	-0.733986 	0.810885 	2.85306 	-7.92793e-19
23.495 	-0.486661 	0.707569 	2.8112 	1.19105e-19
23.5652 	-0.486661 	0.707569 	2.8112 	1.19105e-19
23.6353 	-0.486661 	0.707569 	2.8112 	1.19105e-19
23.7054 	-0.486661 	0.707569 	2.8112 	1.19105e-19
23.7756 	-0.486661 	0.707569 	2.8112 	1.19105e-19
23.8457 	-0.486661 	0.707569 	2.8112 	1.19105e-19
23.9158 	-0.486661 	0.707569 	2.8112 	1.19105e-19
23.986 	-0.268997 	0.484805 	2.8034 	-5.96233e-21
24.0561 	-0.268997 	0.484805 	2.8034 	-5.96233e-21
24.1262 	-0.268997 	0.484805 	2.8034 	-5.96233e-21
24.1964 	-0.268997 	0.484805 	2.8034 	-5.96233e-21
24.2665 	-0.268997 	0.484805 	2.8034 	-5.96233e-21
24.3366 	-0.268997 	0.484805 	2.8034 	-5.96233e-21
24.4068 	-0.268997 	0.484805 	2.8034 	-5.96233e-21
24.4769 	-0.268997 	0.484805 	2.8034 	-5.96233e-21
24.547 	-0.268997 	0.484805 	2.8034 	-5.96233e-21
24.6172 	-0.268997 	0.484805 	2.8034 	-5.96233e-21
24.6873 	-0.268997 	0.484805 	2.8034 	-5.96233e-21
24.7574 	-0.268997 	0.484805 	2.8034 	-5.96233e-21
24.8276 	-0.268997 	0.484805 	2.8034 	-5.96233e-21
24.8977 	-0.268997 	0.484805 	2.8034 	-5.96233e-21
24.9678 	-0.268997 	0.484805 	2.8034 	-5.96233e-21
25.038 	-0.268997 	0.484805 	2.8034 	-5.96233e-21
25.1081 	-0.268997 	0.484805 	2.8034 	-5.96233e-21
25.1782 	-0.406857 	0.192167 	2.29699 	0
25.2484 	-0.406857 	0.192167 	2.29699 	0
25.3185 	-0.406857 	0.192167 	2.29699 	0
25.3886 	-0.406857 	0.192167 	2.29699 	0
25.4588 	-0.406857 	0.192167 	2.29699 	0
25.5289 	-0.406857 	0.192167 	2.29699 	0
25.5991 	-0.406857 	0.192167 	2.29699 	0
25.6692 	-0.406857 	0.192167 	2.29699 	0
25.7393 	-0.406857 	0.192167 	2.29699 	0
25.8095 	-0.406857 	0.192167 	2.29699 	0
25.8796 	-0.406857 	0.192167 	2.29699 	0
25.9497 	-0.406857 	0.192167 	2.29699 	0
26.0199 	-0.406857 	0.192167 	2.29699 	0
26.09 	-0.406857 	0.192167 	2.29699 	0
26.1601 	-0.406857 	0.192167 	2.29699 	0
26.2303 	-0.0870719 	0.112783 	2.10798 	5.98432e-20
26.3004 	-0.0870719 	0.112783 	2.10798 	5.98432e-20
26.3705 	-0.0870719 	0.112783 	2.10798 	5.98432e-20
26.4407 	-0.0870719 	0.112783 	2.10798 	5.98432e-20
26.5108 	-0.0870719 	0.112783 	2.10798 	5.98432e-20
26.5809 	-0.0870719 	0.112783 	2.10798 	5.98432e-20
26.6511 	-0.0870719 	0.112783 	2.10798 	5.98432e-20
26.7212 	-0.0870719 	0.112783 	2.10798 	5.98432e-20
26.7913 	-0.0870719 	0.112783 	2.10798 	5.98432e-20
26.8615 	-0.0870719 	0.112783 	2.10798 	5.98432e-20
26.9316 	-0.0870719 	0.112783 	2.10798 	5.98432e-20
27.0017 	-0.0870719 	0.112783 	2.10798 	5.98432e-20
27.0719 	-0.0870719 	0.112783 	2.10798 	5.98432e-20
27.142 	-0.0870719 	0.112783 	2.10798 	5.98432e-20
27.2121 	-0.0870719 	0.112783 	2.10798 	5.98432e-20
27.2823 	-0.0870719 	0.112783 	2.10798 	5.98432e-20
27.3524 	0.0214799 	0.0678036 	2.08014 	-6.90825e-20
27.4225 	0.0214799 	0.0678036 	2.08014 	-6.90825e-20
27.4927 	0.0214799 	0.0678036 	2.08014 	-6.90825e-20
27.5628 	0.0214799 	0.0678036 	2.08014 	-6.90825e-20
27.6329 	0.0214799 	0.0678036 	2.08014 	-6.90825e-20
27.7031 	0.0214799 	0.0678036 	2.08014 	-6.90825e-20
27.7732 	0.0214799 	0.0678036 	2.08014 	-6.90825e-20
27.8434 	0.0214799 	0.0678036 	2.08014 	-6.90825e-20
27.9135 	0.0214799 	0.0678036 	2.08014 	-6.90825e-20
27.9836 	0.0214799 	0.0678036 	2.08014 	-6.90825e-20
28.0538 	0.0214799 	0.0678036 	2.08014 	-6.90825e-20
28.1239 	0.0214799 	0.0678036 	2.08014 	-6.90825e-20
28.194 	0.0214799 	0.0678036 	2.08014 	-6.90825e-20
28.2642 	0.0214799 	0.0678036 	2.08014 	-6.90825e-20
28.3343 	0.0214799 	0.0678036 	2.08014 	-6.90825e-20
28.4044 	0.0214799 	0.0678036 	2.08014 	-6.90825e-20
28.4746 	0.0214799 	0.0678036 	2.08014 	-6.90825e-20
28.5447 	0.0214799 	0.0678036 	2.08014 	-6.90825e-20
28.6148 	0.0214799 	0.0678036 	2.08014 	-6.90825e-20
28.685 	0.0214799 	0.0678036 	2.08014 	-6.90825e-20
28.7551 	0.0214799 	0.0678036 	2.08014 	-6.90825e-20
28.8252 	0.0214799 	0.0678036 	2.08014 	-6.90825e-20
28.8954 	0.0214799 	0.0678036 	2.08014 	-6.90825e-20
28.9655 	0.0682575 	0.0755097 	2.02084 	4.82787e-21
29.0356 	0.0682575 	0.0755097 	2.02084 	4.82787e-21
29.1058 	0.0682575 	0.0755097 	2.02084 	4.82787e-21
29.1759 	0.0682575 	0.0755097 	2.02084 	4.82787e-21
29.246 	0.0682575 	0.0755097 	2.02084 	4.82787e-21
29.3162 	0.0682575 	0.0755097 	2.02084 	4.82787e-21
29.3863 	0.0682575 	0.0755097 	2.02084 	4.82787e-21
29.4564 	0.0682575 	0.0755097 	2.02084 	4.82787e-21
29.5266 	0.0682575 	0.0755097 	2.02084 	4.82787e-21
29.5967 	0.0682575 	0.0755097 	2.02084 	4.82787e-21
29.6668 	0.0682575 	0.0755097 	2.02084 	4.82787e-21
29.737 	0.0682575 	0.0755097 	2.02084 	4.82787e-21
29.8071 	0.0682575 	0.0755097 	2.02084 	4.82787e-21
29.8773 	0.0682575 	0.0755097 	2.02084 	4.82787e-21
29.9474 	0.0682575 	0.0755097 	2.02084 	4.82787e-21
30.0175 	0.0682575 	0.0755097 	2.02084 	4.82787e-21
30.0877 	0.0682575 	0.0755097 	2.02084 	4.82787e-21
30.1578 	0.0682575 	0.0755097 	2.02084 	4.82787e-21
30.2279 	0.0682575 	0.0755097 	2.02084 	4.82787e-21
30.2981 	0.0682575 	0.0755097 	2.02084 	4.82787e-21
30.3682 	0.0682575 	0.0755097 	2.02084 	4.82787e-21
30.4383 	0.0682575 	0.0755097 	2.02084 	4.82787e-21
30.5085 	0.0682575 	0.0755097 	2.02084 	4.82787e-21
30.5786 	0.0682575 	0.0755097 	2.02084 	4.82787e-21
30.6487 	0.0682575 	0.0755097 	2.02084 	4.82787e-21
30.7189 	0.0682575 	0.0755097 	2.02084 	4.82787e-21
30.789 	0.124952 	0.113252 	1.80951 	-1.60062e-19
30.8591 	0.124952 	0.113252 	1.80951 	-1.60062e-19
30.9293 	0.124952 	0.113252 	1.80951 	-1.60062e-19
30.9994 	0.124952 	0.113252 	1.80951 	-1.60062e-19
31.0695 	0.124952 	0.113252 	1.80951 	-1.60062e-19
31.1397 	0.124952 	0.113252 	1.80951 	-1.60062e-19
31.2098 	0.124952 	0.113252 	1.80951 	-1.60062e-19
31.2799 	0.124952 	0.113252 	1.80951 	-1.60062e-19
31.3501 	0.124952 	0.113252 	1.80951 	-1.60062e-19
31.4202 	0.124952 	0.113252 	1.80951 	-1.60062e-19
31.4903 	0.124952 	0.113252 	1.80951 	-1.60062e-19
31.5605 	0.124952 	0.113252 	1.80951 	-1.60062e-19
31.6306 	0.124952 	0.113252 	1.80951 	-1.60062e-19
31.7007 	0.124952 	0.113252 	1.80951 	-1.60062e-19
31.7709 	0.124952 	0.113252 	1.80951 	-1.60062e-19
31.841 	0.124952 	0.113252 	1.80951 	-1.60062e-19
31.9111 	0.124952 	0.113252 	1.80951 	-1.60062e-19
31.9813 	0.124952 	0.113252 	1.80951 	-1.60062e-19
32.0514 	0.124952 	0.113252 	1.80951 	-1.60062e-19
32.1216 	0.124952 	0.113252 	1.80951 	-1.60062e-19
32.1917 	0.124952 	0.113252 	1.80951 	-1.60062e-19
32.2618 	0.124952 	0.113252 	1.80951 	-1.60062e-19
32.332 	0.124952 	0.113252 	1.80951 	-1.60062e-19
32.4021 	0.124952 	0.113252 	1.80951 	-1.60062e-19
32.4722 	0.124952 	0.113252 	1.80951 	-1.60062e-19
32.5424 	0.124952 	0.113252 	1.80951 	-1.60062e-19
32.6125 	0.124952 	0.113252 	1.80951 	-1.60062e-19
32.6826 	0.124952 	0.113252 	1.80951 	-1.60062e-19
32.7528 	0.124952 	0.113252 	1.80951 	-1.60062e-19
32.8229 	0.124952 	0.113252 	1.80951 	-1.60062e-19
32.893 	0.124952 	0.113252 	1.80951 	-1.60062e-19
32.9632 	0.124952 	0.113252 	1.80951 	-1.60062e-19
33.0333 	0.124952 	0.113252 	1.80951 	-1.60062e-19
33.1034 	0.124952 	0.113252 	1.80951 	-1.60062e-19
33.1736 	0.124952 	0.113252 	1.80951 	-1.60062e-19
33.2437 	0.124952 	0.113252 	1.80951 	-1.60062e-19
33.3138 	0.124952 	0.113252 	1.80951 	-1.60062e-19
33.384 	0.124952 	0.113252 	1.80951 	-1.60062e-19
33.4541 	0.124952 	0.113252 	1.80951 	-1.60062e-19
33.5242 	0.124952 	0.113252 	1.80951 	-1.60062e-19
33.5944 	0.124952 	0.113252 	1.80951 	-1.60062e-19
33.6645 	0.124952 	0.113252 	1.80951 	-1.60062e-19
33.7346 	0.0246713 	0.144259 	1.78895 	7.96106e-20
33.8048 	0.0246713 	0.144259 	1.78895 	7.96106e-20
33.8749 	0.0246713 	0.144259 	1.78895 	7.96106e-20
33.945 	0.0246713 	0.144259 	1.78895 	7.96106e-20
34.0152 	0.0246713 	0.144259 	1.78895 	7.96106e-20
34.0853 	0.0246713 	0.144259 	1.78895 	7.96106e-20
34.1554 	0.0258474 	0.158134 	1.78618 	-1.04383e-19
34.2256 	0.0258474 	0.158134 	1.78618 	-1.04383e-19
34.2957 	0.0258474 	0.158134 	1.78618 	-1.04383e-19
34.3659 	0.0258474 	0.158134 	1.78618 	-1.04383e-19
34.436 	0.0258474 	0.158134 	1.78618 	-1.04383e-19
34.5061 	0.0258474 	0.158134 	1.78618 	-1.04383e-19
34.5763 	0.0258474 	0.158134 	1.78618 	-1.04383e-19
34.6464 	0.0258474 	0.158134 	1.78618 	-1.04383e-19
34.7165 	0.177617 	0.145145 	1.77351 	9.90525e-20
34.7867 	0.177617 	0.145145 	1.77351 	9.90525e-20
34.8568 	0.177617 	0.145145 	1.77351 	9.90525e-20
34.9269 	0.177617 	0.145145 	1.77351 	9.90525e-20
34.9971 	0.177617 	0.145145 	1.77351 	9.90525e-20
35.0672 	0.177617 	0.145145 	1.77351 	9.90525e-20
35.1373 	0.177617 	0.145145 	1.77351 	9.90525e-20
35.2075 	0.177617 	0.145145 	1.77351 	9.90525e-20
35.2776 	0.177617 	0.145145 	1.77351 	9.90525e-20
35.3477 	0.177617 	0.145145 	1.77351 	9.90525e-20
35.4179 	0.177617 	0.145145 	1.77351 	9.90525e-20
35.488 	0.177617 	0.145145 	1.77351 	9.90525e-20
35.5581 	0.177617 	0.145145 	1.77351 	9.90525e-20
35.6283 	0.177617 	0.145145 	1.77351 	9.90525e-20
35.6984 	0.177617 	0.145145 	1.77351 	9.90525e-20
35.7685 	0.177617 	0.145145 	1.77351 	9.90525e-20
35.8387 	0.177617 	0.145145 	1.77351 	9.90525e-20
35.9088 	0.177617 	0.145145 	1.77351 	9.90525e-20
35.9789 	0.177617 	0.145145 	1.77351 	9.90525e-20
36.0491 	0.178219 	0.14768 	1.77193 	0
36.1192 	0.178219 	0.14768 	1.77193 	0
36.1893 	0.178219 	0.14768 	1.77193 	0
36.2595 	0.178219 	0.14768 	1.77193 	0
36.3296 	0.178219 	0.14768 	1.77193 	0
36.3997 	0.178219 	0.14768 	1.77193 	0
36.4699 	0.178219 	0.14768 	1.77193 	0
36.54 	0.178219 	0.14768 	1.77193 	0
36.6102 	0.178219 	0.14768 	1.77193 	0
36.6803 	0.178219 	0.14768 	1.77193 	0
36.7504 	0.178219 	0.14768 	1.77193 	0
36.8206 	0.178219 	0.14768 	1.77193 	0
36.8907 	0.0835893 	0.107234 	1.80323 	1.07556e-19
36.9608 	0.0835893 	0.107234 	1.80323 	1.07556e-19
37.031 	0.0835893 	0.107234 	1.80323 	1.07556e-19
37.1011 	0.0835893 	0.107234 	1.80323 	1.07556e-19
37.1712 	0.0835893 	0.107234 	1.80323 	1.07556e-19
37.2414 	0.0835893 	0.107234 	1.80323 	1.07556e-19
37.3115 	0.0835893 	0.107234 	1.80323 	1.07556e-19
37.3816 	0.0835893 	0.107234 	1.80323 	1.07556e-19
37.4518 	0.0835893 	0.107234 	1.80323 	1.07556e-19
37.5219 	0.0835893 	0.107234 	1.80323 	1.07556e-19
37.592 	0.0835893 	0.107234 	1.80323 	1.07556e-19
37.6622 	0.0835893 	0.107234 	1.80323 	1.07556e-19
37.7323 	0.0835893 	0.107234 	1.80323 	1.07556e-19
37.8024 	0.0835893 	0.107234 	1.80323 	1.07556e-19
37.8726 	0.0835893 	0.107234 	1.80323 	1.07556e-19
37.9427 	0.0835893 	0.107234 	1.80323 	1.07556e-19
38.0128 	0.0835893 	0.107234 	1.80323 	1.07556e-19
38.083 	0.0835893 	0.107234 	1.80323 	1.07556e-19
38.1531 	0.0835893 	0.107234 	1.80323 	1.07556e-19
38.2232 	0.139533 	0.0799147 	1.78006 	-1.18806e-19
38.2934 	0.139533 	0.0799147 	1.78006 	-1.18806e-19
38.3635 	0.139533 	0.0799147 	1.78006 	-1.18806e-19
38.4336 	0.139533 	0.0799147 	1.78006 	-1.18806e-19
38.5038 	0.139533 	0.0799147 	1.78006 	-1.18806e-19
38.5739 	0.139533 	0.0799147 	1.78006 	-1.18806e-19
38.644 	0.139533 	0.0799147 	1.78006 	-1.18806e-19
38.7142 	0.139533 	0.0799147 	1.78006 	-1.18806e-19
38.7843 	0.139533 	0.0799147 	1.78006 	-1.18806e-19
38.8545 	0.139533 	0.0799147 	1.78006 	-1.18806e-19
38.9246 	0.139533 	0.0799147 	1.78006 	-1.18806e-19
38.9947 	0.139533 	0.0799147 	1.78006 	-1.18806e-19
39.0649 	0.139533 	0.0799147 	1.78006 	-1.18806e-19
39.135 	0.139533 	0.0799147 	1.78006 	-1.18806e-19
39.2051 	0.113762 	0.0797474 	1.78292 	0
39.2753 	0.113762 	0.0797474 	1.78292 	0
39.3454 	0.113762 	0.0797474 	1.78292 	0
39.4155 	0.113762 	0.0797474 	1.78292 	0
39.4857 	0.113762 	0.0797474 	1.78292 	0
39.5558 	0.113762 	0.0797474 	1.78292 	0
39.6259 	0.113762 	0.0797474 	1.78292 	0
39.6961 	0.113762 	0.0797474 	1.78292 	0
39.7662 	0.113762 	0.0797474 	1.78292 	0
39.8363 	0.113762 	0.0797474 	1.78292 	0
39.9065 	0.113762 	0.0797474 	1.78292 	0
39.9766 	0.113762 	0.0797474 	1.78292 	0
40.0467 	0.113762 	0.0797474 	1.78292 	0
40.1169 	0.113762 	0.0797474 	1.78292 	0
40.187 	0.113762 	0.0797474 	1.78292 	0
40.2571 	0.113762 	0.0797474 	1.78292 	0
40.3273 	0.113762 	0.0797474 	1.78292 	0
40.3974 	0.113762 	0.0797474 	1.78292 	0
40.4675 	0.113762 	0.0797474 	1.78292 	0
40.5377 	0.113762 	0.0797474 	1.78292 	0
40.6078 	0.113762 	0.0797474 	1.78292 	0
40.6779 	0.0694052 	0.0637436 	1.79034 	-4.42418e-20
40.7481 	0.0694052 	0.0637436 	1.79034 	-4.42418e-20
40.8182 	0.0694052 	0.0637436 	1.79034 	-4.42418e-20
40.8883 	0.0694052 	0.0637436 	1.79034 	-4.42418e-20
40.9585 	0.0694052 	0.0637436 	1.79034 	-4.42418e-20
41.0286 	0.0694052 	0.0637436 	1.79034 	-4.42418e-20
41.0988 	0.0694052 	0.0637436 	1.79034 	-4.42418e-20
41.1689 	0.0694052 	0.0637436 	1.79034 	-4.42418e-20
41.239 	0.0802136 	0.0650932 	1.78898 	8.35461e-20
41.3092 	0.0802136 	0.0650932 	1.78898 	8.35461e-20
41.3793 	0.0802136 	0.0650932 	1.78898 	8.35461e-20
41.4494 	0.0802136 	0.0650932 	1.78898 	8.35461e-20
41.5196 	0.0802136 	0.0650932 	1.78898 	8.35461e-20
41.5897 	0.0802136 	0.0650932 	1.78898 	8.35461e-20
41.6598 	0.0802136 	0.0650932 	1.78898 	8.35461e-20
41.73 	0.0802136 	0.0650932 	1.78898 	8.35461e-20
41.8001 	0.0802136 	0.0650932 	1.78898 	8.35461e-20
41.8702 	0.0802136 	0.0650932 	1.78898 	8.35461e-20
41.9404 	0.0802136 	0.0650932 	1.78898 	8.35461e-20
42.0105 	0.0802136 	0.0650932 	1.78898 	8.35461e-20
42.0806 	0.0802136 	0.0650932 	1.78898 	8.35461e-20
42.1508 	0.0802136 	0.0650932 	1.78898 	8.35461e-20
42.2209 	0.0802136 	0.0650932 	1.78898 	8.35461e-20
42.291 	0.0802136 	0.0650932 	1.78898 	8.35461e-20
42.3612 	0.0802136 	0.0650932 	1.78898 	8.35461e-20
42.4313 	0.0802136 	0.0650932 	1.78898 	8.35461e-20
42.5014 	0.0802136 	0.0650932 	1.78898 	8.35461e-20
42.5716 	0.0802136 	0.0650932 	1.78898 	8.35461e-20
42.6417 	0.0802136 	0.0650932 	1.78898 	8.35461e-20
42.7118 	0.0655626 	0.0628834 	1.79385 	0
42.782 	0.0655626 	0.0628834 	1.79385 	0
42.8521 	0.0655626 	0.0628834 	1.79385 	0
42.9222 	0.0655626 	0.0628834 	1.79385 	0
42.9924 	0.0816063 	0.042503 	1.79295 	0
43.0625 	0.0816063 	0.042503 	1.79295 	0
43.1327 	0.0816063 	0.042503 	1.79295 	0
43.2028 	0.0816063 	0.042503 	1.79295 	0