0.490941 	1.45272 	0.00559258 	3.00054 	-4.47729e-20
0.561075 	1.45272 	0.00559258 	3.00054 	-4.47729e-20
0.63121 	1.45272 	0.00559258 	3.00054 	-4.47729e-20
0.701344 	1.45272 	0.00559258 	3.00054 	-4.47729e-20
0.771478 	1.45272 	0.00559258 	3.00054 	-4.47729e-20
0.841613 	1.45272 	0.00559258 	3.00054 	-4.47729e-20
0.911747 	1.45272 	0.00559258 	3.00054 	-4.47729e-20
0.981881 	1.45272 	0.00559258 	3.00054 	-4.47729e-20
1.05202 	1.45272 	0.00559258 	3.00054 	-4.47729e-20
1.12215 	1.45272 	0.00559258 	3.00054 	-4.47729e-20
1.19228 	1.45272 	0.00559258 	3.00054 	-4.47729e-20
1.26242 	1.45272 	0.00559258 	3.00054 	-4.47729e-20
1.33255 	1.41392 	0.0144776 	3.01418 	-4.53423e-20
1.40269 	1.41392 	0.0144776 	3.01418 	-4.53423e-20
1.47282 	1.41392 	0.0144776 	3.01418 	-4.53423e-20
1.54296 	1.41392 	0.0144776 	3.01418 	-4.53423e-20
1.61309 	1.41392 	0.0144776 	3.01418 	-4.53423e-20
1.68323 	1.41392 	0.0144776 	3.01418 	-4.53423e-20
1.75336 	1.41392 	0.0144776 	3.01418 	-4.53423e-20
1.82349 	1.41392 	0.0144776 	3.01418 	-4.53423e-20
1.89363 	1.41392 	0.0144776 	3.01418 	-4.53423e-20
1.96376 	1.41392 	0.0144776 	3.01418 	-4.53423e-20
2.0339 	1.41392 	0.0144776 	3.01418 	-4.53423e-20
2.10403 	1.41392 	0.0144776 	3.01418 	-4.53423e-20
2.17417 	1.35415 	0.014082 	3.03126 	9.50555e-20
2.2443 	1.35415 	0.014082 	3.03126 	9.50555e-20
2.31443 	1.35415 	0.014082 	3.03126 	9.50555e-20
2.38457 	1.35415 	0.014082 	3.03126 	9.50555e-20
2.4547 	1.35415 	0.014082 	3.03126 	9.50555e-20
2.52484 	1.35415 	0.014082 	3.03126 	9.50555e-20
2.59497 	1.35415 	0.014082 	3.03126 	9.50555e-20
2.66511 	1.35415 	0.014082 	3.03126 	9.50555e-20
2.73524 	1.35415 	0.014082 	3.03126 	9.50555e-20
2.80538 	1.35415 	0.014082 	3.03126 	9.50555e-20
2.87551 	1.35415 	0.014082 	3.03126 	9.50555e-20
2.94564 	1.35415 	0.014082 	3.03126 	9.50555e-20
3.01578 	1.27991 	0.0163914 	3.05824 	-1.08851e-20
3.08591 	1.27991 	0.0163914 	3.05824 	-1.08851e-20
3.15605 	1.27991 	0.0163914 	3.05824 	-1.08851e-20
3.22618 	1.27991 	0.0163914 	3.05824 	-1.08851e-20
3.29632 	1.27991 	0.0163914 	3.05824 	-1.08851e-20
3.36645 	1.27991 	0.0163914 	3.05824 	-1.08851e-20
3.43659 	1.27991 	0.0163914 	3.05824 	-1.08851e-20
3.50672 	1.27991 	0.0163914 	3.05824 	-1.08851e-20
3.57685 	1.27991 	0.0163914 	3.05824 	-1.08851e-20
3.64699 	1.27991 	0.0163914 	3.05824 	-1.08851e-20
3.71712 	1.27991 	0.0163914 	3.05824 	-1.08851e-20
3.78726 	1.27287 	0.00644245 	3.05413 	2.13428e-20
3.85739 	1.19375 	0.000209045 	3.08519 	-1.54314e-19
3.92753 	1.19375 	0.000209045 	3.08519 	-1.54314e-19
3.99766 	1.19375 	0.000209045 	3.08519 	-1.54314e-19
4.06779 	1.19375 	0.000209045 	3.08519 	-1.54314e-19
4.13793 	1.19375 	0.000209045 	3.08519 	-1.54314e-19
4.20806 	1.19375 	0.000209045 	3.08519 	-1.54314e-19
4.2782 	1.19375 	0.000209045 	3.08519 	-1.54314e-19
4.34833 	1.19375 	0.000209045 	3.08519 	-1.54314e-19
4.41847 	1.19375 	0.000209045 	3.08519 	-1.54314e-19
4.4886 	1.19375 	0.000209045 	3.08519 	-1.54314e-19
4.55874 	1.19375 	0.000209045 	3.08519 	-1.54314e-19
4.62887 	1.19375 	0.000209045 	3.08519 	-1.54314e-19
4.699 	1.19375 	0.000209045 	3.08519 	-1.54314e-19
4.76914 	1.11404 	0.0041974 	3.10471 	2.98111e-19
4.83927 	1.11404 	0.0041974 	3.10471 	2.98111e-19
4.90941 	1.11404 	0.0041974 	3.10471 	2.98111e-19
4.97954 	1.11404 	0.0041974 	3.10471 	2.98111e-19
5.04968 	1.11404 	0.0041974 	3.10471 	2.98111e-19
5.11981 	1.11404 	0.0041974 	3.10471 	2.98111e-19
5.18994 	1.11404 	0.0041974 	3.10471 	2.98111e-19
5.26008 	1.11404 	0.0041974 	3.10471 	2.98111e-19
5.33021 	1.11404 	0.0041974 	3.10471 	2.98111e-19
5.40035 	1.11404 	0.0041974 	3.10471 	2.98111e-19
5.47048 	1.11404 	0.0041974 	3.10471 	2.98111e-19
5.54062 	1.11404 	0.0041974 	3.10471 	2.98111e-19
5.61075 	1.03772 	-0.000604188 	3.13488 	-1.4355e-19
5.68089 	1.03772 	-0.000604188 	3.13488 	-1.4355e-19
5.75102 	1.03772 	-0.000604188 	3.13488 	-1.4355e-19
5.82115 	1.03772 	-0.000604188 	3.13488 	-1.4355e-19
5.89129 	1.03772 	-0.000604188 	3.13488 	-1.4355e-19
5.96142 	1.03772 	-0.000604188 	3.13488 	-1.4355e-19
6.03156 	1.03772 	-0.000604188 	3.13488 	-1.4355e-19
6.10169 	1.03772 	-0.000604188 	3.13488 	-1.4355e-19
6.17183 	1.03772 	-0.000604188 	3.13488 	-1.4355e-19
6.24196 	1.03772 	-0.000604188 	3.13488 	-1.4355e-19
6.3121 	1.03772 	-0.000604188 	3.13488 	-1.4355e-19
6.38223 	1.03772 	-0.000604188 	3.13488 	-1.4355e-19
6.45236 	0.966289 	0.00700826 	3.1534 	0
6.5225 	0.966289 	0.00700826 	3.1534 	0
6.59263 	0.966289 	0.00700826 	3.1534 	0
6.66277 	0.966289 	0.00700826 	3.1534 	0
6.7329 	0.966289 	0.00700826 	3.1534 	0
6.80304 	0.966289 	0.00700826 	3.1534 	0
6.87317 	0.966289 	0.00700826 	3.1534 	0
6.9433 	0.966289 	0.00700826 	3.1534 	0
7.01344 	0.966289 	0.00700826 	3.1534 	0
7.08357 	0.966289 	0.00700826 	3.1534 	0
7.15371 	0.966289 	0.00700826 	3.1534 	0
7.22384 	0.966289 	0.00700826 	3.1534 	0
7.29398 	0.900433 	-0.000679236 	3.17721 	0
7.36411 	0.900433 	-0.000679236 	3.17721 	0
7.43425 	0.900433 	-0.000679236 	3.17721 	0
7.50438 	0.900433 	-0.000679236 	3.17721 	0
7.57451 	0.900433 	-0.000679236 	3.17721 	0
7.64465 	0.900433 	-0.000679236 	3.17721 	0
7.71478 	0.900433 	-0.000679236 	3.17721 	0
7.78492 	0.900433 	-0.000679236 	3.17721 	0
7.85505 	0.900433 	-0.000679236 	3.17721 	0
7.92519 	0.900433 	-0.000679236 	3.17721 	0
7.99532 	0.900433 	-0.000679236 	3.17721 	0
8.06545 	0.900433 	-0.000679236 	3.17721 	0
8.13559 	0.900433 	-0.000679236 	3.17721 	0
8.20572 	0.83369 	0.00962127 	3.19508 	4.0591e-22
8.27586 	0.83369 	0.00962127 	3.19508 	4.0591e-22
8.34599 	0.83369 	0.00962127 	3.19508 	4.0591e-22
8.41613 	0.83369 	0.00962127 	3.19508 	4.0591e-22
8.48626 	0.83369 	0.00962127 	3.19508 	4.0591e-22
8.5564 	0.83369 	0.00962127 	3.19508 	4.0591e-22
8.62653 	0.83369 	0.00962127 	3.19508 	4.0591e-22
8.69666 	0.83369 	0.00962127 	3.19508 	4.0591e-22
8.7668 	0.83369 	0.00962127 	3.19508 	4.0591e-22
8.83693 	0.83369 	0.00962127 	3.19508 	4.0591e-22
8.90707 	0.83369 	0.00962127 	3.19508 	4.0591e-22
8.9772 	0.83369 	0.00962127 	3.19508 	4.0591e-22
9.04734 	0.765178 	0.00749472 	3.22046 	1.95206e-19
9.11747 	0.765178 	0.00749472 	3.22046 	1.95206e-19
9.18761 	0.765178 	0.00749472 	3.22046 	1.95206e-19
9.25774 	0.765178 	0.00749472 	3.22046 	1.95206e-19
9.32787 	0.765178 	0.00749472 	3.22046 	1.95206e-19
9.39801 	0.765178 	0.00749472 	3.22046 	1.95206e-19
9.46814 	0.765178 	0.00749472 	3.22046 	1.95206e-19
9.53828 	0.765178 	0.00749472 	3.22046 	1.95206e-19
9.60841 	0.765178 	0.00749472 	3.22046 	1.95206e-19
9.67855 	0.765178 	0.00749472 	3.22046 	1.95206e-19
9.74868 	0.765178 	0.00749472 	3.22046 	1.95206e-19
9.81881 	0.765178 	0.00749472 	3.22046 	1.95206e-19
9.88895 	0.765178 	0.00749472 	3.22046 	1.95206e-19
9.95908 	0.697188 	0.025134 	3.23771 	-7.00863e-21
10.0292 	0.697188 	0.025134 	3.23771 	-7.00863e-21
10.0994 	0.697188 	0.025134 	3.23771 	-7.00863e-21
10.1695 	0.697188 	0.025134 	3.23771 	-7.00863e-21
10.2396 	0.697188 	0.025134 	3.23771 	-7.00863e-21
10.3098 	0.697188 	0.025134 	3.23771 	-7.00863e-21
10.3799 	0.697188 	0.025134 	3.23771 	-7.00863e-21
10.45 	0.697188 	0.025134 	3.23771 	-7.00863e-21
10.5202 	0.697188 	0.025134 	3.23771 	-7.00863e-21
10.5903 	0.697188 	0.025134 	3.23771 	-7.00863e-21
10.6604 	0.697188 	0.025134 	3.23771 	-7.00863e-21
10.7306 	0.697188 	0.025134 	3.23771 	-7.00863e-21
10.8007 	0.628584 	0.0354813 	3.26269 	-1.8586e-19
10.8708 	0.628584 	0.0354813 	3.26269 	-1.8586e-19
10.941 	0.628584 	0.0354813 	3.26269 	-1.8586e-19
11.0111 	0.628584 	0.0354813 	3.26269 	-1.8586e-19
11.0812 	0.628584 	0.0354813 	3.26269 	-1.8586e-19
11.1514 	0.628584 	0.0354813 	3.26269 	-1.8586e-19
11.2215 	0.628584 	0.0354813 	3.26269 	-1.8586e-19
11.2916 	0.628584 	0.0354813 	3.26269 	-1.8586e-19
11.3618 	0.628584 	0.0354813 	3.26269 	-1.8586e-19
11.4319 	0.628584 	0.0354813 	3.26269 	-1.8586e-19
11.502 	0.628584 	0.0354813 	3.26269 	-1.8586e-19
11.5722 	0.628584 	0.0354813 	3.26269 	-1.8586e-19
11.6423 	0.628584 	0.0354813 	3.26269 	-1.8586e-19
11.7124 	0.549029 	0.0740998 	3.28256 	-2.56579e-19
11.7826 	0.549029 	0.0740998 	3.28256 	-2.56579e-19
11.8527 	0.549029 	0.0740998 	3.28256 	-2.56579e-19
11.9228 	0.549029 	0.0740998 	3.28256 	-2.56579e-19
11.993 	0.549029 	0.0740998 	3.28256 	-2.56579e-19
12.0631 	0.549029 	0.0740998 	3.28256 	-2.56579e-19
12.1332 	0.549029 	0.0740998 	3.28256 	-2.56579e-19
12.2034 	0.549029 	0.0740998 	3.28256 	-2.56579e-19
12.2735 	0.549029 	0.0740998 	3.28256 	-2.56579e-19
12.3437 	0.549029 	0.0740998 	3.28256 	-2.56579e-19
12.4138 	0.549029 	0.0740998 	3.28256 	-2.56579e-19
12.4839 	0.549029 	0.0740998 	3.28256 	-2.56579e-19
12.5541 	0.549029 	0.0740998 	3.28256 	-2.56579e-19
12.6242 	0.448829 	0.106695 	3.31442 	4.63734e-19
12.6943 	0.448829 	0.106695 	3.31442 	4.63734e-19
12.7645 	0.448829 	0.106695 	3.31442 	4.63734e-19
12.8346 	0.448829 	0.106695 	3.31442 	4.63734e-19
12.9047 	0.448829 	0.106695 	3.31442 	4.63734e-19
12.9749 	0.448829 	0.106695 	3.31442 	4.63734e-19
13.045 	0.448829 	0.106695 	3.31442 	4.63734e-19
13.1151 	0.448829 	0.106695 	3.31442 	4.63734e-19
13.1853 	0.448829 	0.106695 	3.31442 	4.63734e-19
13.2554 	0.448829 	0.106695 	3.31442 	4.63734e-19
13.3255 	0.448829 	0.106695 	3.31442 	4.63734e-19
13.3957 	0.448829 	0.106695 	3.31442 	4.63734e-19
13.4658 	0.448829 	0.106695 	3.31442 	4.63734e-19
13.5359 	0.309878 	0.199173 	3.35815 	-2.05271e-19
13.6061 	0.309878 	0.199173 	3.35815 	-2.05271e-19
13.6762 	0.309878 	0.199173 	3.35815 	-2.05271e-19
13.7463 	0.309878 	0.199173 	3.35815 	-2.05271e-19
13.8165 	0.309878 	0.199173 	3.35815 	-2.05271e-19
13.8866 	0.309878 	0.199173 	3.35815 	-2.05271e-19
13.9567 	0.309878 	0.199173 	3.35815 	-2.05271e-19
14.0269 	0.309878 	0.199173 	3.35815 	-2.05271e-19
14.097 	0.309878 	0.199173 	3.35815 	-2.05271e-19
14.1671 	0.309878 	0.199173 	3.35815 	-2.05271e-19
14.2373 	0.309878 	0.199173 	3.35815 	-2.05271e-19
14.3074 	0.309878 	0.199173 	3.35815 	-2.05271e-19
14.3776 	0.177568 	0.228671 	3.38657 	0
14.4477 	-0.0632836 	0.228587 	3.45455 	-4.92015e-20
14.5178 	-0.0632836 	0.228587 	3.45455 	-4.92015e-20
14.588 	-0.0632836 	0.228587 	3.45455 	-4.92015e-20
14.6581 	-0.0632836 	0.228587 	3.45455 	-4.92015e-20
14.7282 	-0.0632836 	0.228587 	3.45455 	-4.92015e-20
14.7984 	-0.0632836 	0.228587 	3.45455 	-4.92015e-20
14.8685 	-0.0356108 	0.258041 	3.44466 	8.99226e-20
14.9386 	-0.0356108 	0.258041 	3.44466 	8.99226e-20
15.0088 	-0.0356108 	0.258041 	3.44466 	8.99226e-20
15.0789 	-0.0356108 	0.258041 	3.44466 	8.99226e-20
15.149 	-0.0356108 	0.258041 	3.44466 	8.99226e-20
15.2192 	-0.31605 	0.340908 	3.52549 	-5.04638e-19
15.2893 	-0.31605 	0.340908 	3.52549 	-5.04638e-19
15.3594 	-0.31605 	0.340908 	3.52549 	-5.04638e-19
15.4296 	-0.16577 	0.424325 	3.48348 	2.44761e-19
15.4997 	-0.16577 	0.424325 	3.48348 	2.44761e-19
15.5698 	-0.16577 	0.424325 	3.48348 	2.44761e-19
15.64 	-0.16577 	0.424325 	3.48348 	2.44761e-19
15.7101 	-0.16577 	0.424325 	3.48348 	2.44761e-19
15.7802 	-0.16577 	0.424325 	3.48348 	2.44761e-19
15.8504 	-0.16577 	0.424325 	3.48348 	2.44761e-19
15.9205 	-0.484752 	0.44444 	3.56373 	1.24085e-19
15.9906 	-0.484752 	0.44444 	3.56373 	1.24085e-19
16.0608 	-0.484752 	0.44444 	3.56373 	1.24085e-19
16.1309 	-0.21202 	0.542819 	3.47311 	-5.98553e-20
16.201 	-0.21202 	0.542819 	3.47311 	-5.98553e-20
16.2712 	-0.21202 	0.542819 	3.47311 	-5.98553e-20
16.3413 	-0.21202 	0.542819 	3.47311 	-5.98553e-20
16.4114 	-0.21202 	0.542819 	3.47311 	-5.98553e-20
16.4816 	-0.21202 	0.542819 	3.47311 	-5.98553e-20
16.5517 	-0.21202 	0.542819 	3.47311 	-5.98553e-20
16.6219 	-0.456849 	0.671635 	3.5486 	0
16.692 	-0.456849 	0.671635 	3.5486 	0
16.7621 	-0.456849 	0.671635 	3.5486 	0
16.8323 	-0.456849 	0.671635 	3.5486 	0
16.9024 	-0.456849 	0.671635 	3.5486 	0
16.9725 	-0.121535 	0.668409 	3.40641 	3.7224e-21
17.0427 	-0.121535 	0.668409 	3.40641 	3.7224e-21
17.1128 	-0.121535 	0.668409 	3.40641 	3.7224e-21
17.1829 	-0.121535 	0.668409 	3.40641 	3.7224e-21
17.2531 	-0.326749 	0.806283 	3.49314 	-3.31024e-19
17.3232 	-0.326749 	0.806283 	3.49314 	-3.31024e-19
17.3933 	-0.326749 	0.806283 	3.49314 	-3.31024e-19
17.4635 	-0.326749 	0.806283 	3.49314 	-3.31024e-19
17.5336 	-0.326749 	0.806283 	3.49314 	-3.31024e-19
17.6037 	-0.326749 	0.806283 	3.49314 	-3.31024e-19
17.6739 	-0.326749 	0.806283 	3.49314 	-3.31024e-19
17.744 	-0.326749 	0.806283 	3.49314 	-3.31024e-19
17.8141 	-0.326749 	0.806283 	3.49314 	-3.31024e-19
17.8843 	-0.326749 	0.806283 	3.49314 	-3.31024e-19
17.9544 	-0.182678 	0.851833 	3.31964 	0
18.0245 	-0.182678 	0.851833 	3.31964 	0
18.0947 	-0.182678 	0.851833 	3.31964 	0
18.1648 	-0.182678 	0.851833 	3.31964 	0
18.2349 	-0.182678 	0.851833 	3.31964 	0
18.3051 	-0.182678 	0.851833 	3.31964 	0
18.3752 	-0.182678 	0.851833 	3.31964 	0
18.4453 	-0.182678 	0.851833 	3.31964 	0
18.5155 	-0.182678 	0.851833 	3.31964 	0
18.5856 	-0.380841 	0.995801 	3.41501 	0
18.6557 	-0.380841 	0.995801 	3.41501 	0
18.7259 	-0.380841 	0.995801 	3.41501 	0
18.796 	-0.380841 	0.995801 	3.41501 	0
18.8662 	-0.380841 	0.995801 	3.41501 	0
18.9363 	-0.380841 	0.995801 	3.41501 	0
19.0064 	-0.380841 	0.995801 	3.41501 	0
19.0766 	-0.380841 	0.995801 	3.41501 	0
19.1467 	-0.380841 	0.995801 	3.41501 	0
19.2168 	-0.553075 	1.11804 	3.4723 	3.43077e-19
19.287 	-0.18434 	1.01989 	2.84612 	1.34034e-19
19.3571 	-0.18434 	1.01989 	2.84612 	1.34034e-19
19.4272 	-0.18434 	1.01989 	2.84612 	1.34034e-19
19.4974 	-0.18434 	1.01989 	2.84612 	1.34034e-19
19.5675 	-0.18434 	1.01989 	2.84612 	1.34034e-19
19.6376 	-0.18434 	1.01989 	2.84612 	1.34034e-19
19.7078 	-0.18434 	1.01989 	2.84612 	1.34034e-19
19.7779 	-0.18434 	1.01989 	2.84612 	1.34034e-19
19.848 	-0.18434 	1.01989 	2.84612 	1.34034e-19
19.9182 	-0.397562 	1.1737 	3.04713 	4.38571e-19
19.9883 	-0.397562 	1.1737 	3.04713 	4.38571e-19
20.0584 	-0.397562 	1.1737 	3.04713 	4.38571e-19
20.1286 	-0.397562 	1.1737 	3.04713 	4.38571e-19
20.1987 	-0.397562 	1.1737 	3.04713 	4.38571e-19
20.2688 	-0.397562 	1.1737 	3.04713 	4.38571e-19
20.339 	-0.397562 	1.1737 	3.04713 	4.38571e-19
20.4091 	-0.397562 	1.1737 	3.04713 	4.38571e-19
20.4792 	-0.397562 	1.1737 	3.04713 	4.38571e-19
20.5494 	-0.397562 	1.1737 	3.04713 	4.38571e-19
20.6195 	-0.635537 	1.28043 	3.23714 	3.75456e-19
20.6896 	-0.635537 	1.28043 	3.23714 	3.75456e-19
20.7598 	-0.635537 	1.28043 	3.23714 	3.75456e-19
20.8299 	-0.635537 	1.28043 	3.23714 	3.75456e-19
20.9 	-0.547967 	1.40119 	2.36741 	4.15364e-19
20.9702 	-0.547967 	1.40119 	2.36741 	4.15364e-19
21.0403 	-0.547967 	1.40119 	2.36741 	4.15364e-19
21.1105 	-0.547967 	1.40119 	2.36741 	4.15364e-19
21.1806 	-0.547967 	1.40119 	2.36741 	4.15364e-19
21.2507 	-0.547967 	1.40119 	2.36741 	4.15364e-19
21.3209 	-0.925966 	1.48888 	2.69214 	0
21.391 	-0.925966 	1.48888 	2.69214 	0
21.4611 	-0.925966 	1.48888 	2.69214 	0
21.5313 	-0.925966 	1.48888 	2.69214 	0
21.6014 	-0.925966 	1.48888 	2.69214 	0
21.6715 	-0.925966 	1.48888 	2.69214 	0
21.7417 	-0.925966 	1.48888 	2.69214 	0
21.8118 	-0.925966 	1.48888 	2.69214 	0
21.8819 	-0.925966 	1.48888 	2.69214 	0
21.9521 	-0.925966 	1.48888 	2.69214 	0
22.0222 	-0.925966 	1.48888 	2.69214 	0
22.0923 	-1.18399 	1.4303 	3.03432 	8.63306e-19
22.1625 	-1.18399 	1.4303 	3.03432 	8.63306e-19
22.2326 	-1.18399 	1.4303 	3.03432 	8.63306e-19
22.3027 	-1.18399 	1.4303 	3.03432 	8.63306e-19
22.3729 	-1.18399 	1.4303 	3.03432 	8.63306e-19
22.443 	-1.18399 	1.4303 	3.03432 	8.63306e-19
22.5131 	-1.18399 	1.4303 	3.03432 	8.63306e-19
22.5833 	-1.18399 	1.4303 	3.03432 	8.63306e-19
22.6534 	-1.18399 	1.4303 	3.03432 	8.63306e-19
22.7235 	-1.18399 	1.4303 	3.03432 	8.63306e-19
22.7937 	-1.18399 	1.4303 	3.03432 	8.63306e-19
22.8638 	-1.22504 	1.30332 	3.24174 	-1.83133e-18
22.9339 	-1.22504 	1.30332 	3.24174 	-1.83133e-18
23.0041 	-1.22504 	1.30332 	3.24174 	-1.83133e-18
23.0742 	-1.499 	0.834075 	2.2932 	-6.02997e-19
23.1443 	-1.499 	0.834075 	2.2932 	-6.02997e-19
23.2145 	-1.499 	0.834075 	2.2932 	-6.02997e-19
23.2846 	-1.499 	0.834075 	2.2932 	-6.02997e-19
23.3548 	-1.499 	0.834075 	2.2932 	-6.02997e-19
23.4249 	-1.499 	0.834075 	2.2932 	-6.02997e-19
23.495 	-1.499 	0.834075 	2.2932 	-6.02997e-19
23.5652 	-1.499 	0.834075 	2.2932 	-6.02997e-19
23.6353 	-1.499 	0.834075 	2.2932 	-6.02997e-19
23.7054 	-1.33666 	0.627466 	2.48343 	1.89684e-19
23.7756 	-1.33666 	0.627466 	2.48343 	1.89684e-19
23.8457 	-1.33666 	0.627466 	2.48343 	1.89684e-19
23.9158 	-1.33666 	0.627466 	2.48343 	1.89684e-19
23.986 	-1.33666 	0.627466 	2.48343 	1.89684e-19
24.0561 	-1.33666 	0.627466 	2.48343 	1.89684e-19
24.1262 	-1.33666 	0.627466 	2.48343 	1.89684e-19
24.1964 	-1.33666 	0.627466 	2.48343 	1.89684e-19
24.2665 	-1.33666 	0.627466 	2.48343 	1.89684e-19
24.3366 	-1.33666 	0.627466 	2.48343 	1.89684e-19
24.4068 	-1.33666 	0.627466 	2.48343 	1.89684e-19
24.4769 	-1.33666 	0.627466 	2.48343 	1.89684e-19
24.547 	-1.33666 	0.627466 	2.48343 	1.89684e-19
24.6172 	-0.985359 	0.433631 	2.56824 	-1.24919e-18
24.6873 	-0.985359 	0.433631 	2.56824 	-1.24919e-18
24.7574 	-0.985359 	0.433631 	2.56824 	-1.24919e-18
24.8276 	-0.985359 	0.433631 	2.56824 	-1.24919e-18
24.8977 	-0.985359 	0.433631 	2.56824 	-1.24919e-18
24.9678 	-0.985359 	0.433631 	2.56824 	-1.24919e-18
25.038 	-0.985359 	0.433631 	2.56824 	-1.24919e-18
25.1081 	-0.985359 	0.433631 	2.56824 	-1.24919e-18
25.1782 	-0.985359 	0.433631 	2.56824 	-1.24919e-18
25.2484 	-0.985359 	0.433631 	2.56824 	-1.24919e-18
25.3185 	-0.985359 	0.433631 	2.56824 	-1.24919e-18
25.3886 	-0.985359 	0.433631 	2.56824 	-1.24919e-18
25.4588 	-0.521357 	0.278195 	2.58191 	7.54928e-19
25.5289 	-0.521357 	0.278195 	2.58191 	7.54928e-19
25.5991 	-0.521357 	0.278195 	2.58191 	7.54928e-19
25.6692 	-0.521357 	0.278195 	2.58191 	7.54928e-19
25.7393 	-0.521357 	0.278195 	2.58191 	7.54928e-19
25.8095 	-0.521357 	0.278195 	2.58191 	7.54928e-19
25.8796 	-0.521357 	0.278195 	2.58191 	7.54928e-19
25.9497 	-0.521357 	0.278195 	2.58191 	7.54928e-19
26.0199 	-0.521357 	0.278195 	2.58191 	7.54928e-19
26.09 	-0.582629 	-0.145016 	1.76154 	2.55768e-19
26.1601 	-0.582629 	-0.145016 	1.76154 	2.55768e-19
26.2303 	-0.582629 	-0.145016 	1.76154 	2.55768e-19
26.3004 	-0.582629 	-0.145016 	1.76154 	2.55768e-19
26.3705 	-0.582629 	-0.145016 	1.76154 	2.55768e-19
26.4407 	-0.266519 	-0.155505 	1.8396 	-6.55383e-20
26.5108 	-0.266519 	-0.155505 	1.8396 	-6.55383e-20
26.5809 	-0.266519 	-0.155505 	1.8396 	-6.55383e-20
26.6511 	-0.266519 	-0.155505 	1.8396 	-6.55383e-20
26.7212 	-0.266519 	-0.155505 	1.8396 	-6.55383e-20
26.7913 	-0.266519 	-0.155505 	1.8396 	-6.55383e-20
26.8615 	-0.266519 	-0.155505 	1.8396 	-6.55383e-20
26.9316 	-0.266519 	-0.155505 	1.8396 	-6.55383e-20
27.0017 	-0.266519 	-0.155505 	1.8396 	-6.55383e-20
27.0719 	-0.266519 	-0.155505 	1.8396 	-6.55383e-20
27.142 	-0.266519 	-0.155505 	1.8396 	-6.55383e-20
27.2121 	-0.266519 	-0.155505 	1.8396 	-6.55383e-20
27.2823 	-0.266519 	-0.155505 	1.8396 	-6.55383e-20
27.3524 	-0.0117363 	-0.100217 	1.87328 	0
27.4225 	-0.0117363 	-0.100217 	1.87328 	0
27.4927 	-0.0117363 	-0.100217 	1.87328 	0
27.5628 	-0.0117363 	-0.100217 	1.87328 	0
27.6329 	-0.0117363 	-0.100217 	1.87328 	0
27.7031 	-0.0117363 	-0.100217 	1.87328 	0
27.7732 	-0.0117363 	-0.100217 	1.87328 	0
27.8434 	-0.0117363 	-0.100217 	1.87328 	0
27.9135 	-0.0117363 	-0.100217 	1.87328 	0
27.9836 	-0.0117363 	-0.100217 	1.87328 	0
28.0538 	-0.0117363 	-0.100217 	1.87328 	0
28.1239 	-0.0117363 	-0.100217 	1.87328 	0
28.194 	-0.0117363 	-0.100217 	1.87328 	0
28.2642 	-0.0117363 	-0.100217 	1.87328 	0
28.3343 	-0.0117363 	-0.100217 	1.87328 	0
28.4044 	0.154797 	-0.0100657 	1.8759 	0
28.4746 	0.154797 	-0.0100657 	1.8759 	0
28.5447 	0.154797 	-0.0100657 	1.8759 	0
28.6148 	0.154797 	-0.0100657 	1.8759 	0
28.685 	0.154797 	-0.0100657 	1.8759 	0
28.7551 	0.154797 	-0.0100657 	1.8759 	0
28.8252 	0.154797 	-0.0100657 	1.8759 	0
28.8954 	0.154797 	-0.0100657 	1.8759 	0
28.9655 	0.154797 	-0.0100657 	1.8759 	0
29.0356 	0.154797 	-0.0100657 	1.8759 	0
29.1058 	0.154797 	-0.0100657 	1.8759 	0
29.1759 	0.154797 	-0.0100657 	1.8759 	0
29.246 	0.154797 	-0.0100657 	1.8759 	0
29.3162 	0.154797 	-0.0100657 	1.8759 	0
29.3863 	0.154797 	-0.0100657 	1.8759 	0
29.4564 	0.252382 	0.072521 	1.85978 	1.16405e-19
29.5266 	0.252382 	0.072521 	1.85978 	1.16405e-19
29.5967 	0.252382 	0.072521 	1.85978 	1.16405e-19
29.6668 	0.252382 	0.072521 	1.85978 	1.16405e-19
29.737 	0.252382 	0.072521 	1.85978 	1.16405e-19
29.8071 	0.252382 	0.072521 	1.85978 	1.16405e-19
29.8773 	0.252382 	0.072521 	1.85978 	1.16405e-19
29.9474 	0.252382 	0.072521 	1.85978 	1.16405e-19
30.0175 	0.252382 	0.072521 	1.85978 	1.16405e-19
30.0877 	0.252382 	0.072521 	1.85978 	1.16405e-19
30.1578 	0.252382 	0.072521 	1.85978 	1.16405e-19
30.2279 	0.252382 	0.072521 	1.85978 	1.16405e-19
30.2981 	0.252382 	0.072521 	1.85978 	1.16405e-19
30.3682 	0.252382 	0.072521 	1.85978 	1.16405e-19
30.4383 	0.252382 	0.072521 	1.85978 	1.16405e-19
30.5085 	0.252382 	0.072521 	1.85978 	1.16405e-19
30.5786 	0.29916 	0.130911 	1.83709 	5.52269e-20
30.6487 	0.29916 	0.130911 	1.83709 	5.52269e-20
30.7189 	0.29916 	0.130911 	1.83709 	5.52269e-20
30.789 	0.29916 	0.130911 	1.83709 	5.52269e-20
30.8591 	0.29916 	0.130911 	1.83709 	5.52269e-20
30.9293 	0.29916 	0.130911 	1.83709 	5.52269e-20
30.9994 	0.29916 	0.130911 	1.83709 	5.52269e-20
31.0695 	0.29916 	0.130911 	1.83709 	5.52269e-20
31.1397 	0.29916 	0.130911 	1.83709 	5.52269e-20
31.2098 	0.29916 	0.130911 	1.83709 	5.52269e-20
31.2799 	0.29916 	0.130911 	1.83709 	5.52269e-20
31.3501 	0.29916 	0.130911 	1.83709 	5.52269e-20
31.4202 	0.29916 	0.130911 	1.83709 	5.52269e-20
31.4903 	0.29916 	0.130911 	1.83709 	5.52269e-20
31.5605 	0.104491 	0.142669 	1.78172 	9.12541e-20
31.6306 	0.104491 	0.142669 	1.78172 	9.12541e-20
31.7007 	0.127699 	0.162969 	1.79831 	-6.26885e-20
31.7709 	0.127699 	0.162969 	1.79831 	-6.26885e-20
31.841 	0.127699 	0.162969 	1.79831 	-6.26885e-20
31.9111 	0.127699 	0.162969 	1.79831 	-6.26885e-20
31.9813 	0.127699 	0.162969 	1.79831 	-6.26885e-20
32.0514 	0.127699 	0.162969 	1.79831 	-6.26885e-20
32.1216 	0.127699 	0.162969 	1.79831 	-6.26885e-20
32.1917 	0.127699 	0.162969 	1.79831 	-6.26885e-20
32.2618 	0.127699 	0.162969 	1.79831 	-6.26885e-20
32.332 	0.127699 	0.162969 	1.79831 	-6.26885e-20
32.4021 	0.127699 	0.162969 	1.79831 	-6.26885e-20
32.4722 	0.127699 	0.162969 	1.79831 	-6.26885e-20
32.5424 	0.127699 	0.162969 	1.79831 	-6.26885e-20
32.6125 	0.127699 	0.162969 	1.79831 	-6.26885e-20
32.6826 	0.127699 	0.162969 	1.79831 	-6.26885e-20
32.7528 	0.127699 	0.162969 	1.79831 	-6.26885e-20
32.8229 	0.127699 	0.162969 	1.79831 	-6.26885e-20
32.893 	0.127699 	0.162969 	1.79831 	-6.26885e-20
32.9632 	0.13786 	0.166399 	1.80767 	-4.01084e-21
33.0333 	0.13786 	0.166399 	1.80767 	-4.01084e-21
33.1034 	0.13786 	0.166399 	1.80767 	-4.01084e-21
33.1736 	0.13786 	0.166399 	1.80767 	-4.01084e-21
33.2437 	0.13786 	0.166399 	1.80767 	-4.01084e-21
33.3138 	0.13786 	0.166399 	1.80767 	-4.01084e-21
33.384 	0.13786 	0.166399 	1.80767 	-4.01084e-21
33.4541 	0.13786 	0.166399 	1.80767 	-4.01084e-21
33.5242 	0.13786 	0.166399 	1.80767 	-4.01084e-21
33.5944 	0.13786 	0.166399 	1.80767 	-4.01084e-21
33.6645 	0.13786 	0.166399 	1.80767 	-4.01084e-21
33.7346 	0.13786 	0.166399 	1.80767 	-4.01084e-21
33.8048 	0.13786 	0.166399 	1.80767 	-4.01084e-21
33.8749 	0.13786 	0.166399 	1.80767 	-4.01084e-21
33.945 	0.13786 	0.166399 	1.80767 	-4.01084e-21
34.0152 	0.13786 	0.166399 	1.80767 	-4.01084e-21
34.0853 	0.13786 	0.166399 	1.80767 	-4.01084e-21
34.1554 	0.13786 	0.166399 	1.80767 	-4.01084e-21
34.2256 	0.134853 	0.15751 	1.81324 	1.77934e-20
34.2957 	0.134853 	0.15751 	1.81324 	1.77934e-20
34.3659 	0.134853 	0.15751 	1.81324 	1.77934e-20
34.436 	0.134853 	0.15751 	1.81324 	1.77934e-20
34.5061 	0.134853 	0.15751 	1.81324 	1.77934e-20
34.5763 	0.134853 	0.15751 	1.81324 	1.77934e-20
34.6464 	0.134853 	0.15751 	1.81324 	1.77934e-20
34.7165 	0.134853 	0.15751 	1.81324 	1.77934e-20
34.7867 	0.134853 	0.15751 	1.81324 	1.77934e-20
34.8568 	0.134853 	0.15751 	1.81324 	1.77934e-20
34.9269 	0.134853 	0.15751 	1.81324 	1.77934e-20
34.9971 	0.134853 	0.15751 	1.81324 	1.77934e-20
35.0672 	0.134853 	0.15751 	1.81324 	1.77934e-20
35.1373 	0.134853 	0.15751 	1.81324 	1.77934e-20
35.2075 	0.134853 	0.15751 	1.81324 	1.77934e-20
35.2776 	0.134853 	0.15751 	1.81324 	1.77934e-20
35.3477 	0.134853 	0.15751 	1.81324 	1.77934e-20
35.4179 	0.134853 	0.15751 	1.81324 	1.77934e-20
35.488 	0.134853 	0.15751 	1.81324 	1.77934e-20
35.5581 	0.134853 	0.15751 	1.81324 	1.77934e-20
35.6283 	0.130058 	0.133977 	1.81968 	1.24503e-21
35.6984 	0.130058 	0.133977 	1.81968 	1.24503e-21
35.7685 	0.130058 	0.133977 	1.81968 	1.24503e-21
35.8387 	0.130058 	0.133977 	1.81968 	1.24503e-21
35.9088 	0.130058 	0.133977 	1.81968 	1.24503e-21
35.9789 	0.130058 	0.133977 	1.81968 	1.24503e-21
36.0491 	0.130058 	0.133977 	1.81968 	1.24503e-21
36.1192 	0.130058 	0.133977 	1.81968 	1.24503e-21
36.1893 	0.130058 	0.133977 	1.81968 	1.24503e-21
36.2595 	0.130058 	0.133977 	1.81968 	1.24503e-21
36.3296 	0.130058 	0.133977 	1.81968 	1.24503e-21
36.3997 	0.130058 	0.133977 	1.81968 	1.24503e-21
36.4699 	0.130058 	0.133977 	1.81968 	1.24503e-21
36.54 	0.130058 	0.133977 	1.81968 	1.24503e-21
36.6102 	0.130058 	0.133977 	1.81968 	1.24503e-21
36.6803 	0.130058 	0.133977 	1.81968 	1.24503e-21
36.7504 	0.130058 	0.133977 	1.81968 	1.24503e-21
36.8206 	0.130058 	0.133977 	1.81968 	1.24503e-21
36.8907 	0.130058 	0.133977 	1.81968 	1.24503e-21
36.9608 	0.130058 	0.133977 	1.81968 	1.24503e-21
37.031 	0.130058 	0.133977 	1.81968 	1.24503e-21
37.1011 	0.122148 	0.109415 	1.82498 	0
37.1712 	0.122148 	0.109415 	1.82498 	0
37.2414 	0.122148 	0.109415 	1.82498 	0
37.3115 	0.122148 	0.109415 	1.82498 	0
37.3816 	0.122148 	0.109415 	1.82498 	0
37.4518 	0.122148 	0.109415 	1.82498 	0
37.5219 	0.122148 	0.109415 	1.82498 	0
37.592 	0.122148 	0.109415 	1.82498 	0
37.6622 	0.122148 	0.109415 	1.82498 	0
37.7323 	0.122148 	0.109415 	1.82498 	0
37.8024 	0.122148 	0.109415 	1.82498 	0
37.8726 	0.122148 	0.109415 	1.82498 	0
37.9427 	0.122148 	0.109415 	1.82498 	0
38.0128 	0.122148 	0.109415 	1.82498 	0
38.083 	0.122148 	0.109415 	1.82498 	0
38.1531 	0.122148 	0.109415 	1.82498 	0
38.2232 	0.122148 	0.109415 	1.82498 	0
38.2934 	0.115446 	0.0868261 	1.82847 	0
38.3635 	0.115446 	0.0868261 	1.82847 	0
38.4336 	0.115446 	0.0868261 	1.82847 	0
38.5038 	0.115446 	0.0868261 	1.82847 	0
38.5739 	0.115446 	0.0868261 	1.82847 	0
38.644 	0.115446 	0.0868261 	1.82847 	0
38.7142 	0.115446 	0.0868261 	1.82847 	0
38.7843 	0.115446 	0.0868261 	1.82847 	0
38.8545 	0.115446 	0.0868261 	1.82847 	0
38.9246 	0.115446 	0.0868261 	1.82847 	0
38.9947 	0.115446 	0.0868261 	1.82847 	0
39.0649 	0.115446 	0.0868261 	1.82847 	0
39.135 	0.115446 	0.0868261 	1.82847 	0
39.2051 	0.115446 	0.0868261 	1.82847 	0
39.2753 	0.115446 	0.0868261 	1.82847 	0
39.3454 	0.115446 	0.0868261 	1.82847 	0
39.4155 	0.115446 	0.0868261 	1.82847 	0
39.4857 	0.115446 	0.0868261 	1.82847 	0
39.5558 	0.110168 	0.0665735 	1.83048 	0
39.6259 	0.110168 	0.0665735 	1.83048 	0
39.6961 	0.110168 	0.0665735 	1.83048 	0
39.7662 	0.110168 	0.0665735 	1.83048 	0
39.8363 	0.110168 	0.0665735 	1.83048 	0
39.9065 	0.110168 	0.0665735 	1.83048 	0
39.9766 	0.110168 	0.0665735 	1.83048 	0
40.0467 	0.110168 	0.0665735 	1.83048 	0
40.1169 	0.110168 	0.0665735 	1.83048 	0
40.187 	0.110168 	0.0665735 	1.83048 	0
40.2571 	0.110168 	0.0665735 	1.83048 	0
40.3273 	0.110168 	0.0665735 	1.83048 	0
40.3974 	0.110168 	0.0665735 	1.83048 	0
40.4675 	0.110168 	0.0665735 	1.83048 	0
40.5377 	0.110168 	0.0665735 	1.83048 	0
40.6078 	0.110168 	0.0665735 	1.83048 	0
40.6779 	0.110168 	0.0665735 	1.83048 	0
40.7481 	0.107218 	0.0496644 	1.83048 	0
40.8182 	0.107218 	0.0496644 	1.83048 	0
40.8883 	0.107218 	0.0496644 	1.83048 	0
40.9585 	0.107218 	0.0496644 	1.83048 	0
41.0286 	0.107218 	0.0496644 	1.83048 	0
41.0988 	0.107218 	0.0496644 	1.83048 	0
41.1689 	0.107218 	0.0496644 	1.83048 	0
41.239 	0.107218 	0.0496644 	1.83048 	0
41.3092 	0.107218 	0.0496644 	1.83048 	0
41.3793 	0.107218 	0.0496644 	1.83048 	0
41.4494 	0.107218 	0.0496644 	1.83048 	0
41.5196 	0.107218 	0.0496644 	1.83048 	0
41.5897 	0.107218 	0.0496644 	1.83048 	0
41.6598 	0.107218 	0.0496644 	1.83048 	0
41.73 	0.107218 	0.0496644 	1.83048 	0
41.8001 	0.107218 	0.0496644 	1.83048 	0
41.8702 	0.107218 	0.0496644 	1.83048 	0
41.9404 	0.107218 	0.0496644 	1.83048 	0
42.0105 	0.106981 	0.0364855 	1.82783 	0
42.0806 	0.106981 	0.0364855 	1.82783 	0
42.1508 	0.106981 	0.0364855 	1.82783 	0
42.2209 	0.106981 	0.0364855 	1.82783 	0
42.291 	0.106981 	0.0364855 	1.82783 	0
42.3612 	0.106981 	0.0364855 	1.82783 	0
42.4313 	0.106981 	0.0364855 	1.82783 	0
42.5014 	0.106981 	0.0364855 	1.82783 	0
42.5716 	0.106981 	0.0364855 	1.82783 	0
42.6417 	0.106981 	0.0364855 	1.82783 	0
42.7118 	0.106981 	0.0364855 	1.82783 	0
42.782 	0.106981 	0.0364855 	1.82783 	0
42.8521 	0.106981 	0.0364855 	1.82783 	0
42.9222 	0.106981 	0.0364855 	1.82783 	0
42.9924 	0.106981 	0.0364855 	1.82783 	0
43.0625 	0.106981 	0.0364855 	1.82783 	0
43.1327 	0.106981 	0.0364855 	1.82783 	0
43.2028 	0.10754 	0.026986 	1.82424 	0
43.2729 	0.10754 	0.026986 	1.82424 	0
43.3431 	0.10754 	0.026986 	1.82424 	0
43.4132 	0.10754 	0.026986 	1.82424 	0
43.4833 	0.10754 	0.026986 	1.82424 	0
43.5535 	0.10754 	0.026986 	1.82424 	0
43.6236 	0.10754 	0.026986 	1.82424 	0
43.6937 	0.10754 	0.026986 	1.82424 	0
43.7639 	0.10754 	0.026986 	1.82424 	0
43.834 	0.10754 	0.026986 	1.82424 	0
43.9041 	0.10754 	0.026986 	1.82424 	0
43.9743 	0.10754 	0.026986 	1.82424 	0
44.0444 	0.10754 	0.026986 	1.82424 	0
44.1145 	0.10754 	0.026986 	1.82424 	0
44.1847 	0.10754 	0.026986 	1.82424 	0
44.2548 	0.10754 	0.026986 	1.82424 	0
44.3249 	0.10754 	0.026986 	1.82424 	0
44.3951 	0.10754 	0.026986 	1.82424 	0
44.4652 	0.106322 	0.0200497 	1.82201 	0
44.5353 	0.106322 	0.0200497 	1.82201 	0
44.6055 	0.106322 	0.0200497 	1.82201 	0
44.6756 	0.106322 	0.0200497 	1.82201 	0
44.7457 	0.106322 	0.0200497 	1.82201 	0