/*--------------------------------*- C++ -*----------------------------------*\
| =========                 |                                                 |
| \\      /  F ield         | OpenFOAM: The Open Source CFD Toolbox           |
|  \\    /   O peration     | Version:  2306                                  |
|   \\  /    A nd           | Website:  www.openfoam.com                      |
|    \\/     M anipulation  |                                                 |
\*---------------------------------------------------------------------------*/
FoamFile
{
    version     2.0;
    format      ascii;
    arch        "LSB;label=32;scalar=64";
    class       volScalarField;
    location    "66";
    object      p;
}
// * * * * * * * * * * * * * * * * * * * * * * * * * * * * * * * * * * * * * //

dimensions      [0 2 -2 0 0 0 0];

internalField   nonuniform List<scalar> 
8800
(
0.794591
0.746541
0.708166
0.679527
0.658906
0.644157
0.633562
0.626069
0.621248
0.619211
0.620523
0.624764
0.631462
0.640821
0.653593
0.671193
0.695645
0.729263
0.771714
0.828841
0.627117
0.634324
0.642764
0.646181
0.644269
0.638749
0.632042
0.625889
0.621146
0.618312
0.618067
0.620622
0.62517
0.631195
0.638126
0.64476
0.648902
0.648394
0.642338
0.633366
0.603814
0.609991
0.614192
0.617556
0.62006
0.620863
0.619761
0.617627
0.61561
0.614729
0.615736
0.618172
0.621038
0.62328
0.623832
0.622316
0.61948
0.615851
0.61132
0.607536
0.598661
0.601362
0.604085
0.606399
0.608049
0.609381
0.610299
0.610516
0.610273
0.610269
0.611066
0.612265
0.613089
0.613055
0.612281
0.611102
0.609365
0.606874
0.604454
0.602924
0.593443
0.594866
0.596668
0.598726
0.600484
0.601797
0.602833
0.603723
0.604424
0.605059
0.605754
0.606256
0.606325
0.606005
0.605332
0.604147
0.602464
0.600596
0.599279
0.598455
0.588402
0.589316
0.590556
0.592141
0.5938
0.595334
0.596618
0.597715
0.598742
0.599707
0.60045
0.600806
0.600788
0.600388
0.599545
0.598351
0.597016
0.595762
0.594946
0.594401
0.583493
0.584158
0.585119
0.586424
0.587847
0.589331
0.590794
0.59214
0.59338
0.594553
0.595444
0.595872
0.59584
0.59537
0.59458
0.593642
0.592646
0.591735
0.591156
0.590755
0.578688
0.579201
0.579985
0.581118
0.582404
0.583795
0.585271
0.58678
0.588255
0.589662
0.590752
0.591298
0.591329
0.590981
0.590405
0.589704
0.588953
0.588282
0.587855
0.587541
0.573923
0.574331
0.574988
0.575999
0.577214
0.578557
0.580029
0.581628
0.583309
0.58499
0.586332
0.587074
0.587301
0.58718
0.586836
0.586351
0.585806
0.585329
0.585012
0.584757
0.569113
0.569445
0.570014
0.570947
0.572115
0.573446
0.574955
0.576653
0.578529
0.580508
0.582178
0.583221
0.583734
0.583875
0.583766
0.583508
0.58316
0.582844
0.582612
0.582398
0.564169
0.564445
0.564953
0.565841
0.566993
0.568351
0.569937
0.571779
0.573889
0.576213
0.578295
0.57973
0.580585
0.581022
0.581172
0.581143
0.580991
0.580819
0.580654
0.580468
0.559003
0.559235
0.559705
0.560577
0.561753
0.563181
0.564888
0.566929
0.56934
0.57209
0.574678
0.576582
0.577837
0.578615
0.579053
0.579264
0.579312
0.57927
0.579161
0.578995
0.553522
0.553719
0.55417
0.555057
0.556298
0.557841
0.559722
0.562031
0.564824
0.568109
0.571309
0.573771
0.575494
0.576663
0.577426
0.577891
0.578155
0.578238
0.578177
0.578024
0.547622
0.547791
0.54824
0.549171
0.550518
0.552227
0.554351
0.557006
0.560285
0.564232
0.568173
0.571301
0.573576
0.575194
0.576328
0.577102
0.577581
0.577783
0.577762
0.577617
0.541184
0.541329
0.541791
0.542796
0.544296
0.546231
0.548674
0.551772
0.555661
0.560418
0.565257
0.569181
0.57211
0.574258
0.575815
0.576927
0.57765
0.577978
0.577994
0.577853
0.534069
0.534189
0.534678
0.535787
0.537492
0.539723
0.542574
0.546234
0.55088
0.556629
0.56255
0.567424
0.571127
0.573899
0.575958
0.577456
0.578456
0.578913
0.578963
0.578822
0.526084
0.526187
0.52672
0.52797
0.529938
0.532542
0.535914
0.54028
0.545863
0.552822
0.560046
0.566053
0.570668
0.574176
0.576834
0.578789
0.580094
0.580687
0.580768
0.580623
0.517013
0.517114
0.517701
0.519111
0.521409
0.524501
0.528535
0.533783
0.540525
0.548958
0.557747
0.565097
0.570791
0.575162
0.578529
0.581013
0.582668
0.583405
0.583515
0.583361
0.506532
0.506613
0.507291
0.508926
0.511659
0.515374
0.520241
0.526597
0.534777
0.545007
0.555665
0.564595
0.571556
0.576944
0.581119
0.584237
0.586281
0.587168
0.587302
0.587137
0.494261
0.494329
0.495107
0.497056
0.500348
0.504859
0.510793
0.518552
0.528521
0.540937
0.553818
0.564598
0.573024
0.579596
0.584718
0.588557
0.591025
0.592062
0.592214
0.592033
0.479645
0.479702
0.480624
0.482989
0.48702
0.492581
0.499903
0.50946
0.521665
0.536735
0.552239
0.565158
0.575262
0.583186
0.589399
0.594049
0.596967
0.598142
0.598302
0.598103
0.461909
0.461956
0.463091
0.466041
0.471084
0.478064
0.487235
0.499129
0.514146
0.532425
0.550987
0.566344
0.578339
0.587786
0.5952
0.600755
0.604123
0.605411
0.605563
0.605344
0.439886
0.439931
0.441412
0.445245
0.451744
0.460722
0.472428
0.487409
0.505969
0.528095
0.550166
0.568239
0.582314
0.593441
0.602166
0.60866
0.612437
0.613789
0.613916
0.613676
0.411802
0.411867
0.413946
0.419205
0.427968
0.439885
0.455168
0.474253
0.497241
0.523907
0.54992
0.570937
0.587238
0.60014
0.610266
0.61767
0.621754
0.623096
0.623174
0.622916
0.374609
0.374781
0.37808
0.385967
0.398548
0.41497
0.435356
0.459831
0.488232
0.520117
0.550435
0.574547
0.593156
0.607881
0.619411
0.627588
0.631802
0.633034
0.633042
0.63277
0.32245
0.32346
0.330032
0.343331
0.362555
0.38594
0.413366
0.444645
0.479411
0.517083
0.551927
0.579185
0.600085
0.616569
0.629394
0.638097
0.642188
0.643206
0.643135
0.642858
0.246531
0.253934
0.269074
0.292416
0.321535
0.354237
0.390247
0.429344
0.471158
0.51509
0.554767
0.585365
0.608721
0.627095
0.641112
0.650098
0.653906
0.654692
0.654572
0.65433
0.16528
0.182271
0.206773
0.240898
0.280362
0.322509
0.367153
0.41424
0.463472
0.514298
0.559648
0.594323
0.620607
0.641157
0.656454
0.665303
0.668465
0.668976
0.668888
0.668728
0.0968821
0.117053
0.149388
0.192724
0.241336
0.292386
0.345422
0.400354
0.456858
0.514368
0.5651
0.603558
0.632494
0.654824
0.670735
0.679097
0.681754
0.682193
0.682171
0.682056
0.0408358
0.0628764
0.100711
0.150553
0.206362
0.264911
0.325385
0.387539
0.450902
0.514793
0.570638
0.612632
0.643971
0.667787
0.684275
0.69255
0.695009
0.695406
0.695409
0.695325
-0.00566632
0.017599
0.0592185
0.114217
0.175793
0.240532
0.307382
0.375953
0.445598
0.515479
0.576208
0.621589
0.655241
0.680602
0.697809
0.706153
0.708643
0.709029
0.709063
0.709004
-0.0450661
-0.0211108
0.0233972
0.0824498
0.148894
0.218902
0.291284
0.365557
0.440941
0.516437
0.581832
0.630502
0.666434
0.693296
0.711344
0.720117
0.722724
0.723109
0.723143
0.723102
-0.0794017
-0.0550074
-0.008223
0.0541899
0.124748
0.19935
0.276654
0.356091
0.436769
0.517538
0.587397
0.639259
0.677452
0.705844
0.72482
0.734057
0.736871
0.737279
0.737318
0.737297
-0.110181
-0.085411
-0.0367709
0.0285096
0.102622
0.181264
0.262997
0.347155
0.432758
0.518534
0.592695
0.64767
0.688052
0.717955
0.737791
0.747568
0.750624
0.751085
0.751131
0.751117
-0.138393
-0.113294
-0.0630629
0.00469539
0.0819309
0.164161
0.249883
0.338383
0.428622
0.519197
0.59754
0.655542
0.69804
0.729358
0.750086
0.760322
0.763615
0.764164
0.764187
0.764173
-0.164846
-0.139377
-0.0877096
-0.0178047
0.0622315
0.147668
0.237007
0.329519
0.424125
0.519319
0.601762
0.662735
0.707283
0.739968
0.761453
0.772107
0.775585
0.776178
0.776176
0.776155
-0.189934
-0.164094
-0.111121
-0.0393474
0.0432063
0.131522
0.224145
0.320359
0.419078
0.518752
0.605265
0.669202
0.71575
0.749703
0.771777
0.78273
0.786336
0.786953
0.786925
0.786885
-0.214105
-0.187828
-0.133821
-0.06016
0.0246293
0.115528
0.211138
0.310764
0.41336
0.517382
0.607977
0.674922
0.723453
0.75855
0.781132
0.792248
0.795859
0.796475
0.796414
0.796357
-0.237492
-0.210714
-0.155769
-0.0804209
0.00635291
0.0995711
0.197887
0.300655
0.406891
0.515128
0.609841
0.67991
0.730478
0.766664
0.789603
0.800688
0.804276
0.804846
0.804767
0.80469
-0.260253
-0.233032
-0.177042
-0.100245
-0.0116935
0.0835993
0.184349
0.289981
0.399611
0.511921
0.610806
0.684185
0.736934
0.774199
0.797334
0.808259
0.811703
0.812215
0.812104
0.812011
-0.282519
-0.25477
-0.197787
-0.119679
-0.029549
0.0675933
0.170519
0.278742
0.391506
0.50771
0.610816
0.687749
0.742935
0.781344
0.804535
0.815096
0.818272
0.818683
0.818538
0.818431
-0.304334
-0.275962
-0.218072
-0.138737
-0.0471982
0.0515651
0.156424
0.266963
0.382583
0.502456
0.609803
0.69058
0.748573
0.788311
0.811424
0.82136
0.824079
0.824327
0.824156
0.824039
-0.325555
-0.296594
-0.237828
-0.157405
-0.0646235
0.0355663
0.142112
0.254703
0.372884
0.496165
0.607693
0.692614
0.753879
0.79532
0.818347
0.827314
0.829267
0.82925
0.829055
0.828946
-0.346165
-0.316641
-0.257052
-0.175642
-0.0817791
0.0196458
0.127661
0.242027
0.362475
0.48885
0.604424
0.69373
0.758804
0.802548
0.825774
0.833512
0.834168
0.833568
0.833331
0.833285
-0.366232
-0.336071
-0.275732
-0.193429
-0.0986101
0.00387859
0.113151
0.22903
0.351436
0.48056
0.599931
0.693778
0.763193
0.809987
0.834171
0.840894
0.839645
0.837688
0.837153
0.837402
-0.385596
-0.354876
-0.293812
-0.210713
-0.115065
-0.0116573
0.0986711
0.215815
0.339873
0.471379
0.594184
0.692572
0.76678
0.817345
0.843657
0.850577
0.847726
0.843347
0.841078
0.84095
-0.404348
-0.373057
-0.311311
-0.227527
-0.13118
-0.0270029
0.084168
0.202327
0.327721
0.461238
0.587043
0.689838
0.769283
0.824156
0.853727
0.86301
0.860779
0.853708
0.845506
0.837028
-0.422417
-0.390595
-0.328354
-0.24407
-0.147236
-0.0424806
0.0692377
0.188099
0.314463
0.449529
0.5779
0.684838
0.770237
0.829846
0.86288
0.876304
0.87532
0.862984
0.842275
0.837199
-0.439636
-0.407512
-0.344768
-0.260164
-0.162915
-0.0577717
0.0540924
0.173447
0.30039
0.436485
0.566787
0.676982
0.76876
0.833227
0.867036
0.880659
0.881621
0.855439
0.789998
0.761467
-0.455541
-0.425101
-0.360186
-0.275335
-0.177378
-0.0723635
0.0390464
0.158624
0.28575
0.422248
0.553665
0.665863
0.763446
0.833404
0.861379
0.86966
0.855059
0.799065
0.730455
0.689035
-0.504674
-0.441594
-0.374129
-0.29053
-0.191985
-0.0875592
0.0241238
0.1434
0.270213
0.406375
0.537932
0.650858
0.750213
0.82688
0.835297
0.82827
0.775126
0.703205
0.6261
0.583567
-0.471919
-0.455139
-0.395046
-0.310322
-0.214085
-0.10977
0.00100387
0.119625
0.245482
0.380276
0.510181
0.621796
0.713124
0.796672
0.780368
0.662648
0.556851
0.482475
0.408987
0.439292
-0.502694
-0.472792
-0.411487
-0.327713
-0.231366
-0.127141
-0.0161499
0.101833
0.226655
0.359719
0.486956
0.594725
0.676052
0.721108
0.67001
0.517729
0.390071
0.298609
0.201063
0.250026
-0.526032
-0.493755
-0.430814
-0.346963
-0.250536
-0.146377
-0.0354905
0.0816662
0.205099
0.335778
0.459265
0.560801
0.632687
0.641362
0.532209
0.360004
0.209389
0.09166
-0.0362186
-0.00144801
-0.548859
-0.515256
-0.451052
-0.366352
-0.269885
-0.165893
-0.0555369
0.0606457
0.182472
0.310347
0.429072
0.522526
0.578702
0.555437
0.394247
0.19961
0.0147521
-0.148973
-0.332793
-0.342945
-0.571194
-0.53716
-0.472083
-0.38666
-0.290073
-0.186326
-0.0766382
0.0384299
0.158372
0.283022
0.396215
0.481606
0.517638
0.457207
0.262773
0.0525619
-0.157794
-0.335836
-0.581246
-0.841187
-0.593863
-0.559807
-0.494234
-0.408351
-0.311601
-0.208042
-0.0989594
0.0149516
0.132886
0.254032
0.361315
0.438092
0.451977
0.340266
0.147459
-0.0647875
-0.26859
-0.432642
-0.510277
-0.616788
-0.617822
-0.583663
-0.517829
-0.43173
-0.334959
-0.231686
-0.123308
-0.0107358
0.104854
0.221945
0.322894
0.388276
0.376745
0.23052
0.0438915
-0.151771
-0.319766
-0.41164
-0.434939
-0.4511
-0.643333
-0.609035
-0.54303
-0.456875
-0.360274
-0.257467
-0.150041
-0.0391213
0.0736841
0.186035
0.28019
0.330788
0.300664
0.127912
-0.0504555
-0.221318
-0.350133
-0.388998
-0.400972
-0.402189
-0.670604
-0.636086
-0.569899
-0.483785
-0.387497
-0.28539
-0.179179
-0.0702554
0.0393114
0.146298
0.23275
0.268224
0.216448
0.0333907
-0.136005
-0.287585
-0.364855
-0.382068
-0.38307
-0.382866
-0.699691
-0.664876
-0.598456
-0.512459
-0.416646
-0.315444
-0.210726
-0.104153
0.00174616
0.102814
0.180563
0.203564
0.115873
-0.0528228
-0.214055
-0.33727
-0.374836
-0.372867
-0.372366
-0.371803
-0.7303
-0.695236
-0.628601
-0.542814
-0.447633
-0.347576
-0.244653
-0.140789
-0.03897
0.0556989
0.124567
0.130655
0.0243696
-0.132795
-0.275744
-0.352217
-0.362689
-0.365232
-0.365684
-0.36543
-0.761891
-0.726692
-0.660091
-0.574618
-0.480274
-0.381627
-0.280807
-0.180032
-0.0826415
0.0053064
0.0653446
0.0564587
-0.0580837
-0.20078
-0.318873
-0.357374
-0.361899
-0.361785
-0.361354
-0.361036
-0.793988
-0.758667
-0.692475
-0.607474
-0.514223
-0.417275
-0.318904
-0.221599
-0.128975
-0.047613
0.00181428
-0.0148149
-0.133067
-0.255754
-0.347675
-0.360603
-0.357588
-0.35824
-0.358424
-0.358164
-0.825708
-0.790464
-0.724843
-0.640792
-0.548936
-0.454045
-0.358486
-0.265009
-0.177521
-0.102358
-0.063309
-0.0808027
-0.198478
-0.295903
-0.352012
-0.361044
-0.358853
-0.357657
-0.357101
-0.356891
-0.85549
-0.820985
-0.756222
-0.673636
-0.58364
-0.491233
-0.398892
-0.309555
-0.227511
-0.15836
-0.123453
-0.152957
-0.25126
-0.332611
-0.343874
-0.355728
-0.357571
-0.355903
-0.355336
-0.355078
-0.881704
-0.848292
-0.785535
-0.704807
-0.617285
-0.5279
-0.439252
-0.354348
-0.27778
-0.214855
-0.18037
-0.221185
-0.296693
-0.350394
-0.37436
-0.366975
-0.360065
-0.356943
-0.356403
-0.356062
-0.90224
-0.870504
-0.810644
-0.73291
-0.648587
-0.562887
-0.478473
-0.398333
-0.327107
-0.270571
-0.238434
-0.27829
-0.334263
-0.372033
-0.401933
-0.387882
-0.377082
-0.373753
-0.372169
-0.371019
-0.914845
-0.88578
-0.829655
-0.756016
-0.676038
-0.594866
-0.515326
-0.44029
-0.374354
-0.323735
-0.294173
-0.328333
-0.368228
-0.389324
-0.379513
-0.399013
-0.411092
-0.411532
-0.4072
-0.406337
-0.916849
-0.89177
-0.840612
-0.772325
-0.69793
-0.622423
-0.548449
-0.478938
-0.418283
-0.372899
-0.340786
-0.371729
-0.415005
-0.445645
-0.429391
-0.419005
-0.409562
-0.404858
-0.403761
-0.403998
-0.906136
-0.885881
-0.841355
-0.780232
-0.712788
-0.644059
-0.576502
-0.512907
-0.457515
-0.416565
-0.379431
-0.40016
-0.4347
-0.538981
-0.488778
-0.423506
-0.394586
-0.385702
-0.382902
-0.381539
-0.880418
-0.865234
-0.830035
-0.778496
-0.719627
-0.658778
-0.598294
-0.540842
-0.490481
-0.452927
-0.407651
-0.384006
-0.342431
-0.356116
-0.346677
-0.335727
-0.339162
-0.341768
-0.342191
-0.341389
-0.842411
-0.832607
-0.807444
-0.767265
-0.718446
-0.666344
-0.613232
-0.561694
-0.515744
-0.4806
-0.443016
-0.350598
-0.189796
-0.0416551
-0.100343
-0.216481
-0.286809
-0.317008
-0.32796
-0.330832
-0.798902
-0.793311
-0.778429
-0.749372
-0.711197
-0.667595
-0.621545
-0.575244
-0.53262
-0.497786
-0.46444
-0.395581
-0.30176
-0.203431
-0.278212
-0.367513
-0.418956
-0.44382
-0.456617
-0.461864
-0.759704
-0.756338
-0.749223
-0.730275
-0.700866
-0.664527
-0.624336
-0.582269
-0.540822
-0.508186
-0.484086
-0.52073
-0.686759
-0.897403
-0.926864
-0.893598
-0.839627
-0.791845
-0.754485
-0.753744
-0.731619
-0.729543
-0.725912
-0.714347
-0.691365
-0.660108
-0.623709
-0.583318
-0.541571
-0.503713
-0.480471
-0.526872
-0.745127
-1.05874
-1.38165
-1.45843
-1.38354
-1.26278
-1.1231
-1.05345
-0.710542
-0.709812
-0.708659
-0.702849
-0.685327
-0.657094
-0.621436
-0.580256
-0.534255
-0.482985
-0.445847
-0.412564
-0.448287
-0.485707
-0.525975
-0.484532
-0.404883
-0.341616
-0.269542
-0.225871
-0.698036
-0.697781
-0.697202
-0.694454
-0.682044
-0.655576
-0.618692
-0.575418
-0.523265
-0.465044
-0.413384
-0.36178
-0.240443
-7.70666e-06
0.252551
0.473079
0.612658
0.675426
0.712018
0.727055
-0.689282
-0.689119
-0.688581
-0.687478
-0.679821
-0.655634
-0.61782
-0.569646
-0.512992
-0.444794
-0.366061
-0.287419
-0.0719538
0.301573
0.678882
1.03004
1.23079
1.31123
1.33337
1.33412
-0.683966
-0.683725
-0.682999
-0.682411
-0.67842
-0.658594
-0.618617
-0.565603
-0.502825
-0.422419
-0.329373
-0.227658
0.00659871
0.370489
0.737776
1.06274
1.26273
1.34063
1.35546
1.3533
-0.682726
-0.682631
-0.682332
-0.681645
-0.681545
-0.665811
-0.622198
-0.564822
-0.495061
-0.409778
-0.307749
-0.205412
-0.000217001
0.298529
0.57754
0.810789
0.957041
1.03031
1.06894
1.08372
-0.682003
-0.683267
-0.686687
-0.692401
-0.695551
-0.675803
-0.627727
-0.567848
-0.494236
-0.403654
-0.302292
-0.210002
-0.04532
0.216374
0.454907
0.64788
0.777874
0.857324
0.905543
0.924318
-0.680389
-0.681994
-0.68393
-0.685371
-0.685335
-0.667792
-0.631103
-0.577711
-0.50174
-0.407555
-0.309544
-0.220968
-0.0926096
0.136759
0.360376
0.544601
0.69136
0.783977
0.829295
0.842849
-0.704854
-0.703968
-0.690155
-0.652135
-0.615257
-0.625169
-0.636943
-0.595129
-0.51404
-0.415758
-0.321819
-0.239374
-0.139863
0.0638823
0.260222
0.425874
0.560567
0.644328
0.681202
0.690264
-0.761321
-0.757487
-0.746425
-0.718742
-0.697426
-0.698684
-0.698061
-0.628692
-0.530713
-0.425064
-0.332134
-0.250998
-0.170227
-0.0173442
0.150382
0.28762
0.397164
0.462636
0.490088
0.495064
-0.879456
-0.891418
-0.929369
-0.974962
-0.9793
-0.942395
-0.83712
-0.68701
-0.551269
-0.431966
-0.33797
-0.263945
-0.199196
-0.0823601
0.0508275
0.157068
0.241088
0.288616
0.307144
0.309672
-1.01697
-1.04322
-1.09473
-1.13584
-1.13961
-1.08876
-0.92848
-0.7271
-0.560603
-0.432044
-0.339374
-0.272123
-0.220089
-0.134378
-0.0328268
0.0478651
0.110516
0.143717
0.156965
0.157109
-1.01466
-1.035
-1.07248
-1.10457
-1.10744
-1.05064
-0.885809
-0.693561
-0.534189
-0.412362
-0.329165
-0.273255
-0.230283
-0.171979
-0.100071
-0.0398911
0.00327676
0.0268498
0.0342139
0.0338487
-0.804699
-0.825923
-0.862903
-0.900202
-0.909999
-0.854686
-0.718183
-0.580402
-0.462574
-0.370833
-0.305999
-0.263279
-0.233884
-0.194155
-0.148991
-0.110277
-0.0828168
-0.0695636
-0.065234
-0.0665764
-0.457816
-0.472636
-0.501025
-0.535526
-0.55721
-0.542913
-0.490373
-0.425803
-0.365797
-0.313572
-0.272152
-0.242971
-0.224121
-0.202342
-0.178894
-0.161984
-0.152976
-0.150602
-0.150585
-0.151571
-0.135374
-0.143036
-0.161629
-0.192329
-0.228246
-0.254801
-0.271683
-0.275689
-0.268609
-0.252175
-0.234527
-0.218355
-0.206536
-0.200701
-0.198266
-0.199673
-0.203799
-0.209106
-0.211136
-0.211583
0.0560025
0.0518852
0.0388094
0.0115064
-0.0317449
-0.0842176
-0.130455
-0.165807
-0.188046
-0.198455
-0.199673
-0.194977
-0.18967
-0.19457
-0.204131
-0.216033
-0.228654
-0.236689
-0.238912
-0.239015
0.125444
0.122891
0.113122
0.0902988
0.0515442
0.00191721
-0.0499353
-0.0961498
-0.131964
-0.157325
-0.173471
-0.182713
-0.18724
-0.195476
-0.205139
-0.217366
-0.228941
-0.234897
-0.236124
-0.236195
0.129497
0.127743
0.120714
0.103802
0.0743104
0.0347846
-0.00983651
-0.0536563
-0.0930091
-0.126871
-0.155827
-0.182073
-0.197433
-0.198686
-0.202148
-0.206961
-0.212325
-0.214502
-0.214817
-0.215032
0.109388
0.108248
0.103512
0.0918762
0.0711197
0.042083
0.00679883
-0.0303969
-0.0671755
-0.103112
-0.139832
-0.179459
-0.202145
-0.193405
-0.185673
-0.184165
-0.185335
-0.185987
-0.186099
-0.18637
0.0845812
0.0838931
0.0808565
0.0731941
0.0591223
0.038603
0.012304
-0.0172001
-0.048453
-0.0812323
-0.116525
-0.15629
-0.175002
-0.163997
-0.155483
-0.153693
-0.153548
-0.153829
-0.154076
-0.154375
0.0619935
0.0615854
0.0597473
0.0549193
0.0457141
0.0317149
0.0130658
-0.00885319
-0.0329722
-0.0584384
-0.084364
-0.108933
-0.117034
-0.112283
-0.111903
-0.115313
-0.118191
-0.119867
-0.120548
-0.120838
0.0436972
0.0434758
0.0423797
0.039429
0.0335777
0.0243532
0.0116526
-0.00367041
-0.0204021
-0.0367241
-0.0486364
-0.0540947
-0.049629
-0.0555492
-0.0657098
-0.0753134
-0.0817706
-0.0848753
-0.0860543
-0.0863502
0.0291771
0.0290995
0.0285257
0.0268795
0.0234401
0.0177101
0.00962196
-0.000237323
-0.0105238
-0.0185569
-0.0183004
-0.00765922
0.0038848
-0.0102818
-0.0277104
-0.0401314
-0.0475747
-0.0508191
-0.0522822
-0.0526297
0.0178354
0.0178322
0.0175823
0.016801
0.0149766
0.0117757
0.00708591
0.0013924
-0.0040709
-0.00627603
0.00109599
0.0183663
0.0310473
0.0155165
-0.00241539
-0.0141323
-0.0194984
-0.0221596
-0.0236009
-0.0240718
0.00888756
0.00893974
0.00888536
0.00859749
0.00781104
0.0063297
0.0040984
0.00142247
-0.000865929
-0.000477702
0.00755621
0.0229918
0.0331073
0.0204771
0.00710312
6.12127e-05
-0.00281376
-0.00394325
-0.00495367
-0.0055219
0.00136301
0.00141399
0.00139175
0.00148202
0.00163282
0.00156695
0.00124589
0.000710723
0.000135173
-1.75834e-05
0.00100454
0.00493914
0.00960611
0.00868238
0.005489
0.00439954
0.00328772
0.00160297
4.98551e-05
-0.000164797
-0.148285
0.0385414
0.237788
0.404775
0.537466
0.64139
0.727451
0.799891
0.829799
0.813715
0.173662
0.296104
0.424007
0.534184
0.626647
0.703036
0.764494
0.807634
0.830067
0.843032
0.390907
0.473712
0.560585
0.637728
0.703767
0.758902
0.802599
0.834828
0.858587
0.876541
0.549131
0.60797
0.668748
0.72514
0.773962
0.815337
0.849377
0.876932
0.899386
0.917696
0.673139
0.715281
0.761941
0.804692
0.842897
0.876284
0.904928
0.929104
0.948852
0.966827
0.776217
0.809021
0.8472
0.882355
0.914606
0.943646
0.969118
0.990738
1.00774
1.02535
0.868296
0.897023
0.930866
0.962893
0.992665
1.01974
1.0435
1.06329
1.07787
1.09532
0.956584
0.985907
1.01975
1.05179
1.08131
1.10785
1.13072
1.14912
1.16174
1.1792
1.05172
1.08524
1.12158
1.15522
1.1852
1.21129
1.23316
1.25021
1.26163
1.27943
1.1665
1.20501
1.24318
1.27734
1.30655
1.33118
1.35143
1.36711
1.37842
1.39676
1.31113
1.35058
1.3861
1.41646
1.442
1.46402
1.483
1.49851
1.51114
1.52927
1.4858
1.51784
1.5436
1.56592
1.58594
1.60466
1.62228
1.63881
1.65455
1.67274
1.67337
1.69092
1.70643
1.72301
1.73915
1.75368
1.7667
1.78066
1.79774
1.81742
1.85495
1.86591
1.87804
1.88883
1.89808
1.90763
1.9185
1.93008
1.94003
1.9552
2.06594
2.06796
2.0528
2.03757
2.03118
2.03684
2.05544
2.08585
2.11799
2.14873
2.37186
2.23481
2.15851
2.1164
2.09895
2.10299
2.13034
2.18649
2.28994
2.50522
0.69088
0.687505
0.68158
0.671777
0.658839
0.646423
0.636122
0.628193
0.622561
0.61931
0.61898
0.621759
0.626911
0.634187
0.643643
0.655344
0.668483
0.68048
0.68794
0.692662
0.608882
0.614768
0.621675
0.626917
0.629769
0.629447
0.626553
0.622647
0.619104
0.616847
0.616726
0.618966
0.622686
0.627066
0.631032
0.633045
0.631942
0.627858
0.621968
0.614925
0.601208
0.603555
0.606907
0.609817
0.612039
0.613847
0.614818
0.614578
0.613571
0.612706
0.612912
0.614376
0.616224
0.617528
0.617591
0.616433
0.614635
0.612299
0.609149
0.606188
0.596037
0.597124
0.598991
0.601376
0.603342
0.604741
0.605849
0.606725
0.607219
0.607499
0.608032
0.608859
0.609437
0.609431
0.608928
0.60807
0.606676
0.604627
0.602522
0.60111
0.590905
0.59156
0.59267
0.594395
0.596206
0.597831
0.599109
0.600155
0.601104
0.601964
0.602744
0.603312
0.603495
0.603322
0.602784
0.601771
0.600346
0.598783
0.597466
0.596685
0.585934
0.586389
0.587174
0.588474
0.589974
0.591517
0.592997
0.594304
0.595468
0.596574
0.597543
0.598148
0.598324
0.598086
0.597416
0.596431
0.595304
0.594178
0.593274
0.592755
0.581083
0.581423
0.582034
0.583105
0.584401
0.58579
0.587254
0.588726
0.590127
0.591449
0.592617
0.593366
0.593592
0.593351
0.59277
0.592006
0.59117
0.590318
0.589655
0.589275
0.576308
0.576573
0.577066
0.577978
0.579153
0.58046
0.581874
0.583393
0.584973
0.586544
0.587959
0.588896
0.58925
0.589168
0.588802
0.588267
0.58764
0.587016
0.586535
0.586245
0.571532
0.571742
0.572152
0.572955
0.574051
0.575312
0.576717
0.578283
0.58
0.581819
0.58353
0.584736
0.585335
0.585502
0.585376
0.585067
0.584649
0.584219
0.583878
0.583651
0.566666
0.566835
0.567187
0.567918
0.568969
0.570211
0.571646
0.573299
0.575177
0.577258
0.579323
0.580896
0.581829
0.582292
0.582425
0.58235
0.582149
0.581895
0.58167
0.58149
0.561623
0.56176
0.56207
0.562756
0.563793
0.565061
0.566566
0.56835
0.570444
0.572844
0.575341
0.577371
0.578703
0.579509
0.579937
0.580114
0.580127
0.580044
0.579919
0.579774
0.556312
0.556421
0.556705
0.557372
0.558428
0.559768
0.561387
0.563356
0.565734
0.568539
0.571566
0.574146
0.57595
0.577153
0.577915
0.578367
0.578606
0.578695
0.578657
0.578539
0.550635
0.550722
0.550989
0.551663
0.552774
0.554227
0.556016
0.558238
0.56098
0.564295
0.567974
0.571214
0.573576
0.575239
0.576379
0.577153
0.577643
0.577896
0.577935
0.577837
0.544482
0.544548
0.544809
0.545511
0.546717
0.54833
0.550353
0.552907
0.556112
0.560063
0.564538
0.56857
0.571596
0.573801
0.575376
0.57651
0.577279
0.577709
0.577821
0.577741
0.537723
0.537769
0.538032
0.538785
0.540124
0.541955
0.544284
0.547264
0.551054
0.55579
0.561231
0.566216
0.57003
0.572876
0.574963
0.576503
0.577592
0.578214
0.5784
0.578333
0.5302
0.530228
0.530495
0.531322
0.532839
0.534953
0.537673
0.541193
0.545715
0.551416
0.55803
0.564157
0.568906
0.572506
0.575201
0.577226
0.578679
0.579508
0.579766
0.579709
0.521705
0.521719
0.521996
0.522922
0.524675
0.527133
0.530358
0.534562
0.539993
0.54688
0.554912
0.562405
0.568263
0.57275
0.576162
0.578768
0.580634
0.581691
0.582022
0.581971
0.511946
0.511931
0.512263
0.513331
0.515366
0.518284
0.52215
0.527211
0.533777
0.542121
0.551867
0.560981
0.568147
0.57368
0.577932
0.581215
0.583563
0.584868
0.585272
0.585224
0.500612
0.500573
0.500952
0.502213
0.504619
0.508128
0.512806
0.518955
0.52694
0.537076
0.548889
0.55992
0.568612
0.575369
0.580607
0.584667
0.587567
0.589137
0.58961
0.58956
0.487216
0.487152
0.48761
0.489125
0.492018
0.496295
0.502026
0.509568
0.519343
0.53169
0.545979
0.559258
0.569715
0.577878
0.584266
0.589222
0.592731
0.594575
0.595107
0.59505
0.471103
0.47101
0.471594
0.473463
0.477008
0.482312
0.48944
0.498799
0.510854
0.525924
0.543164
0.559052
0.571523
0.581282
0.588968
0.594936
0.599108
0.601217
0.601792
0.601721
0.451321
0.451203
0.451992
0.454375
0.458837
0.465568
0.474603
0.486384
0.501371
0.519798
0.540519
0.55938
0.574107
0.585643
0.594747
0.601847
0.606697
0.609036
0.609625
0.609532
0.426435
0.426305
0.427431
0.430614
0.436463
0.445285
0.457025
0.472104
0.490879
0.513409
0.538172
0.56035
0.577538
0.590999
0.601649
0.609925
0.615415
0.617912
0.618476
0.618354
0.394112
0.394009
0.395749
0.400314
0.408476
0.42056
0.436274
0.455884
0.479508
0.506965
0.536318
0.562098
0.581886
0.597368
0.609622
0.619078
0.625075
0.627608
0.628097
0.62794
0.350169
0.350237
0.35332
0.360768
0.373237
0.390647
0.41225
0.437966
0.467618
0.50081
0.535213
0.564779
0.587229
0.604749
0.61859
0.629106
0.635359
0.637752
0.638117
0.637927
0.28677
0.287995
0.295514
0.30947
0.329817
0.355701
0.385589
0.41907
0.455845
0.49542
0.535149
0.568539
0.5936
0.613069
0.628321
0.639586
0.645783
0.647805
0.648003
0.647795
0.211403
0.21351
0.227998
0.251991
0.283252
0.31913
0.358025
0.399753
0.44413
0.490695
0.536531
0.57457
0.602918
0.62479
0.64166
0.653575
0.659488
0.661195
0.661344
0.661222
0.133924
0.140396
0.16193
0.196173
0.237912
0.283517
0.331396
0.381426
0.433484
0.48713
0.539202
0.581992
0.613632
0.637924
0.656526
0.668625
0.673802
0.67501
0.6751
0.675052
0.0706457
0.0792804
0.105354
0.146701
0.196658
0.250544
0.306535
0.364348
0.42375
0.484223
0.542265
0.589506
0.624187
0.650519
0.670133
0.682242
0.687094
0.688205
0.688328
0.688336
0.0190771
0.0283276
0.0579576
0.104555
0.160681
0.221224
0.284074
0.348768
0.414887
0.481762
0.545477
0.596954
0.634471
0.662733
0.683468
0.69586
0.700522
0.701582
0.701773
0.701828
-0.0240262
-0.0145077
0.0175667
0.0681786
0.12937
0.195444
0.2641
0.334795
0.406947
0.479743
0.548834
0.604383
0.644669
0.674843
0.696721
0.709462
0.714236
0.7155
0.71572
0.715807
-0.0610748
-0.0514578
-0.017562
0.0362638
0.101659
0.172459
0.246179
0.322197
0.399828
0.47812
0.552303
0.611773
0.654766
0.686823
0.70991
0.723322
0.72842
0.72978
0.729997
0.730086
-0.0937571
-0.0841141
-0.0488248
0.00772027
0.0766366
0.151519
0.229738
0.310567
0.393232
0.476655
0.555685
0.618951
0.664588
0.698539
0.722834
0.736962
0.742459
0.743919
0.744137
0.744208
-0.123363
-0.113687
-0.0772559
-0.0183626
0.0535697
0.132036
0.214265
0.299466
0.38679
0.475071
0.558767
0.625718
0.673925
0.709665
0.73513
0.749979
0.755881
0.757439
0.757636
0.757686
-0.150786
-0.141076
-0.103651
-0.042708
0.0318978
0.113544
0.199363
0.288555
0.380228
0.473133
0.561351
0.631904
0.682607
0.720068
0.746613
0.762106
0.768425
0.77006
0.770238
0.77026
-0.176612
-0.166835
-0.128488
-0.0658217
0.0111998
0.0956951
0.184753
0.277599
0.37332
0.470632
0.563274
0.637396
0.690549
0.729668
0.757224
0.773195
0.779783
0.781484
0.781646
0.781636
-0.201317
-0.191412
-0.152176
-0.0880205
-0.00879901
0.0782394
0.170226
0.26641
0.365908
0.467432
0.564431
0.642145
0.697744
0.738433
0.766874
0.783193
0.789922
0.791636
0.791783
0.791743
-0.225193
-0.215076
-0.175132
-0.109477
-0.028294
0.0610065
0.155639
0.254877
0.357887
0.463437
0.56474
0.646113
0.704214
0.74644
0.775626
0.79217
0.79889
0.800577
0.800703
0.800638
-0.248351
-0.238046
-0.197401
-0.130322
-0.0474196
0.0439126
0.14092
0.242936
0.349193
0.458561
0.564127
0.649284
0.710019
0.753827
0.783641
0.800235
0.806845
0.808457
0.808539
0.808445
-0.270985
-0.260408
-0.219009
-0.150664
-0.0662352
0.0269087
0.126039
0.230559
0.339796
0.452767
0.562532
0.65163
0.715228
0.760736
0.791106
0.80758
0.813934
0.815401
0.815432
0.815321
-0.293046
-0.282216
-0.24011
-0.170569
-0.0847576
0.00999178
0.111008
0.217765
0.329705
0.446028
0.559894
0.653105
0.71989
0.767333
0.798236
0.814365
0.820277
0.821519
0.821476
0.821348
-0.314617
-0.303489
-0.260643
-0.19003
-0.10298
-0.00681999
0.0958555
0.204599
0.318957
0.438351
0.556165
0.65364
0.724006
0.773761
0.805294
0.820847
0.825993
0.826862
0.826737
0.826604
-0.335535
-0.324186
-0.280602
-0.209011
-0.120867
-0.0234664
0.0806388
0.19112
0.307612
0.429778
0.55131
0.653146
0.727512
0.780114
0.812617
0.827451
0.831412
0.831592
0.831315
0.831199
-0.355934
-0.344261
-0.299983
-0.227504
-0.138394
-0.0399157
0.0654413
0.177402
0.295748
0.42038
0.545321
0.651511
0.730271
0.786361
0.820493
0.834838
0.83721
0.836041
0.835323
0.835269
-0.375667
-0.363692
-0.318765
-0.245469
-0.15549
-0.056089
0.0503391
0.163558
0.283466
0.41021
0.538225
0.648618
0.732087
0.792302
0.828971
0.843744
0.84474
0.84142
0.839233
0.838611
-0.394788
-0.382528
-0.336899
-0.26286
-0.172126
-0.0719217
0.0354132
0.149664
0.270871
0.399398
0.530077
0.644344
0.732713
0.797558
0.837602
0.854375
0.855622
0.850582
0.844384
0.836047
-0.413222
-0.400736
-0.354466
-0.279835
-0.188511
-0.087681
0.0203389
0.135333
0.257536
0.387466
0.520386
0.638168
0.731735
0.801883
0.845844
0.866243
0.870391
0.864892
0.853985