/*--------------------------------*- C++ -*----------------------------------*\
| =========                 |                                                 |
| \\      /  F ield         | OpenFOAM: The Open Source CFD Toolbox           |
|  \\    /   O peration     | Version:  2306                                  |
|   \\  /    A nd           | Website:  www.openfoam.com                      |
|    \\/     M anipulation  |                                                 |
\*---------------------------------------------------------------------------*/
FoamFile
{
    version     2.0;
    format      ascii;
    arch        "LSB;label=32;scalar=64";
    class       surfaceScalarField;
    location    "66";
    object      phi;
}
// * * * * * * * * * * * * * * * * * * * * * * * * * * * * * * * * * * * * * //

dimensions      [0 3 -1 0 0 0 0];

oriented        oriented;

internalField   nonuniform List<scalar> 
17370
(
-0.0910982
0.0935443
0.286565
-0.074953
0.0569525
0.364776
-0.0409353
0.0299512
0.427152
-0.0211963
0.0155963
0.504852
-0.0113471
0.00864854
0.602101
-0.006517
0.00506469
0.72051
-0.00384577
0.00297416
0.863778
-0.00220615
0.00163033
1.03603
-0.00110004
0.000679528
1.24292
-0.000268483
-0.000125807
1.49159
0.000512446
-0.000927056
1.49161
0.00133187
-0.00183534
1.24319
0.0023822
-0.00311775
1.03637
0.00396396
-0.00516327
0.864106
0.00660489
-0.00872889
0.721181
0.0114206
-0.0156604
0.603454
0.0212502
-0.0299933
0.508182
0.0409662
-0.0569738
0.432176
0.0749696
-0.0935539
0.36536
0.0911121
0.197899
-0.127349
0.0881476
0.039201
-0.364739
0.353794
-0.072625
0.0835702
-0.446567
0.454371
-0.0817025
0.0738977
-0.520973
0.529528
-0.0657873
0.0572322
-0.612852
0.621019
-0.0494795
0.041312
-0.727003
0.733793
-0.0343834
0.0275935
-0.867516
0.872455
-0.0222493
0.0173102
-1.03855
1.04191
-0.0135882
0.0102329
-1.24472
1.24713
-0.00767509
0.00526035
-1.49284
1.49486
-0.00329043
0.00127115
-1.49269
1.49451
0.000551185
-0.00237415
-1.2441
1.24602
0.00435218
-0.00626875
-1.0376
1.04008
0.00861123
-0.0110942
-0.866158
0.869804
0.0143625
-0.0180084
-0.724478
0.729768
0.0228751
-0.0281649
-0.608885
0.61577
0.0349038
-0.0417881
-0.514988
0.522693
0.0499065
-0.0576119
-0.439772
0.447826
0.0661084
-0.0741624
-0.375153
0.376999
0.081898
-0.0837447
-0.256913
0.223414
0.0727466
-0.0392477
-0.0686582
0.0589302
0.00972797
-0.0520645
0.058757
-0.374548
0.367856
-0.0578673
0.0540378
-0.453834
0.457663
-0.0486769
0.044335
-0.527749
0.532091
-0.0401089
0.0363237
-0.621111
0.624896
-0.0320963
0.0280201
-0.734885
0.738961
-0.0235412
0.0195424
-0.874057
0.878055
-0.0153988
0.0118765
-1.04341
1.04693
-0.00830262
0.00523286
-1.24867
1.25174
-0.00199254
-0.00101243
-1.49695
1.49996
0.00399519
-0.00717349
-1.49743
1.50061
0.0101525
-0.0136021
-1.25009
1.25354
0.0169966
-0.0209916
-1.04572
1.04971
0.0248588
-0.0292076
-0.87731
0.881659
0.0331795
-0.037305
-0.739304
0.74343
0.041005
-0.0451451
-0.626334
0.630475
0.0494139
-0.0547037
-0.534929
0.540219
0.0584549
-0.0592459
-0.457913
0.458704
0.0524286
-0.0320464
-0.336385
0.316002
0.00978901
-0.068495
0.0587059
-0.0531735
0.0491266
0.00404692
-0.0331503
0.0436355
-0.35839
0.347905
-0.0473459
0.0467539
-0.459524
0.460116
-0.0437722
0.040498
-0.536038
0.539313
-0.0367819
0.0334409
-0.628461
0.631802
-0.0298686
0.02671
-0.742277
0.745436
-0.0233504
0.0201734
-0.881598
0.884775
-0.0165651
0.0131763
-1.05042
1.05381
-0.00943035
0.00598271
-1.25504
1.25849
-0.00214805
-0.00150726
-1.50334
1.50699
0.00513046
-0.0088718
-1.50413
1.50788
0.012192
-0.0157623
-1.25715
1.26072
0.0189688
-0.0223651
-1.05348
1.05688
0.0253541
-0.0285274
-0.885265
0.888438
0.031536
-0.0349607
-0.746916
0.750341
0.0381776
-0.0417652
-0.634484
0.638072
0.0449283
-0.0477847
-0.544443
0.5473
0.0482455
-0.0443512
-0.456865
0.452971
0.0336456
-0.0162729
-0.296622
0.279249
0.00412119
-0.0528828
0.0487616
-0.0460077
0.0434858
0.00252199
-0.0229045
0.0332598
-0.337275
0.32692
-0.0390304
0.0400078
-0.459833
0.458856
-0.038783
0.0364769
-0.541991
0.544297
-0.0338281
0.0312576
-0.634806
0.637376
-0.0282412
0.0253731
-0.748509
0.751377
-0.0221281
0.0191222
-0.887786
0.890792
-0.0157932
0.0126728
-1.05699
1.06011
-0.00911429
0.00569697
-1.26192
1.26533
-0.00175887
-0.00206797
-1.51076
1.51459
0.00585321
-0.00966458
-1.51168
1.5155
0.0129119
-0.0162391
-1.26418
1.26751
0.0191212
-0.0221736
-1.06004
1.06309
0.0249319
-0.0279272
-0.891576
0.894572
0.0305904
-0.0334035
-0.753521
0.756334
0.0358036
-0.0382797
-0.641068
0.643544
0.0404377
-0.041468
-0.549109
0.550139
0.0402873
-0.0342198
-0.447763
0.441695
0.0235401
-0.0103042
-0.264052
0.250816
0.00261339
-0.0455599
0.0429465
-0.041391
0.0396085
0.00178255
-0.0168338
0.0260954
-0.317065
0.307804
-0.0326906
0.034815
-0.457282
0.455157
-0.0343818
0.0326904
-0.546307
0.547999
-0.0304784
0.0283626
-0.639685
0.6418
-0.0259263
0.0235347
-0.754002
0.756394
-0.0206928
0.0179238
-0.893662
0.896431
-0.0147189
0.0116726
-1.06315
1.0662
-0.00820022
0.00487973
-1.26866
1.27198
-0.00103379
-0.00272222
-1.51837
1.52213
0.00642395
-0.0101107
-1.51924
1.52293
0.0132165
-0.0163963
-1.27076
1.27394
0.0191399
-0.0219911
-1.06611
1.06896
0.0244399
-0.026957
-0.897362
0.899879
0.029083
-0.0312578
-0.758774
0.760949
0.0331564
-0.035146
-0.645729
0.647719
0.036622
-0.0367902
-0.550687
0.550855
0.0343537
-0.0273246
-0.435058
0.428029
0.0176268
-0.00745025
-0.239256
0.229079
0.00189418
-0.0407507
0.0388565
-0.0380735
0.0367342
0.00133922
-0.0128554
0.02082
-0.299195
0.29123
-0.0275707
0.0304859
-0.452606
0.449691
-0.030685
0.029556
-0.549438
0.550567
-0.0275526
0.0256233
-0.643853
0.645782
-0.0234088
0.0212636
-0.758638
0.760783
-0.0187476
0.0162656
-0.898999
0.901481
-0.0133249
0.0104502
-1.06911
1.07199
-0.00710097
0.00387097
-1.27523
1.27846
-0.000129067
-0.00350284
-1.5258
1.52943
0.0070679
-0.0106094
-1.52653
1.53007
0.0135709
-0.0165546
-1.27704
1.28003
0.0190496
-0.0215454
-1.07168
1.07418
0.0236262
-0.0257352
-0.902177
0.904286
0.0275452
-0.0294273
-0.762957
0.764839
0.0310816
-0.0328172
-0.64956
0.651296
0.0336317
-0.0330622
-0.550657
0.550088
0.0297013
-0.0223567
-0.420785
0.413441
0.0138318
-0.00577184
-0.220062
0.212002
0.00147508
-0.0371982
0.0357231
-0.0355647
0.0345338
0.0010309
-0.0100416
0.0167762
-0.283905
0.27717
-0.0232656
0.0266355
-0.446527
0.443158
-0.0274092
0.0267064
-0.551475
0.552178
-0.0249351
0.0231436
-0.647682
0.649473
-0.021069
0.0190504
-0.762862
0.764881
-0.0166761
0.0143469
-0.90382
0.906149
-0.0116065
0.00891732
-1.0747
1.07739
-0.00575174
0.00266294
-1.28158
1.28466
0.000940858
-0.00444133
-1.53297
1.53647
0.0078586
-0.0112153
-1.53351
1.53686
0.0139711
-0.0166844
-1.28289
1.2856
0.0189064
-0.0210991
-1.07656
1.07876
0.0229326
-0.0248017
-0.906285
0.908154
0.0264044
-0.0280664
-0.766602
0.768264
0.0295169
-0.0309187
-0.652885
0.654286
0.0312303
-0.0299305
-0.549168
0.547869
0.0259469
-0.0186762
-0.406108
0.398837
0.0112378
-0.00465902
-0.204753
0.198174
0.00119612
-0.0344037
0.0332076
-0.0336287
0.0328265
0.000802228
-0.0079543
0.0136133
-0.271002
0.265343
-0.0196187
0.0231869
-0.439678
0.43611
-0.0244383
0.0239818
-0.552789
0.553245
-0.0224794
0.0207968
-0.651259
0.652941
-0.0188174
0.0168862
-0.766851
0.768782
-0.0146089
0.0123709
-0.908369
0.910607
-0.00973574
0.00716057
-1.07995
1.08253
-0.0041438
0.00119848
-1.28763
1.29058
0.00224024
-0.00557657
-1.53986
1.5432
0.00881198
-0.0119477
-1.54009
1.54323
0.0144841
-0.01695
-1.28819
1.29066
0.0189541
-0.020917
-1.0809
1.08286
0.0225455
-0.024202
-0.909936
0.911592
0.0256218
-0.0270932
-0.769821
0.771293
0.0283506
-0.0293745
-0.655481
0.656505
0.0293137
-0.027345
-0.546239
0.54427
0.022957
-0.0159495
-0.391694
0.384686
0.00941636
-0.00388967
-0.192172
0.186645
0.00100308
-0.0321205
0.0311174
-0.0321219
0.0314967
0.000625237
-0.00634435
0.0110841
-0.260171
0.255432
-0.0164991
0.0200683
-0.43254
0.42897
-0.0216437
0.0214127
-0.553623
0.553854
-0.0201428
0.0185204
-0.654639
0.656262
-0.0165968
0.0147152
-0.770682
0.772563
-0.0124973
0.0103192
-0.912742
0.91492
-0.00775562
0.00525332
-1.08499
1.08749
-0.00233038
-0.000500323
-1.29341
1.29624
0.00379141
-0.00695878
-1.54642
1.54958
0.0100011
-0.0129193
-1.54623
1.54915
0.0152586
-0.0175114
-1.29302
1.29528
0.0193185
-0.0210624
-1.08479
1.08653
0.0224957
-0.0239543
-0.913169
0.914627
0.0252094
-0.0265074
-0.772669
0.773967
0.0276195
-0.0282251
-0.657312
0.657918
0.0277935
-0.025261
-0.542034
0.539502
0.0206243
-0.0139459
-0.377854
0.371175
0.00812792
-0.00335298
-0.181533
0.176758
0.000869126
-0.0301917
0.0293226
-0.030951
0.0304691
0.000481899
-0.00504865
0.00899549
-0.251114
0.247167
-0.0137752
0.0171965
-0.425482
0.422061
-0.0189558
0.0189153
-0.55403
0.554071
-0.0178408
0.0162531
-0.65793
0.659518
-0.0143522
0.0124859
-0.774426
0.776292
-0.010287
0.00813322
-0.917
0.919154
-0.00560759
0.00315307
-1.08988
1.09234
-0.000299962
-0.00245636
-1.29897
1.30173
0.00562511
-0.00864217
-1.55264
1.55565
0.0115078
-0.0142255
-1.55194
1.55466
0.016378
-0.0184227
-1.29743
1.29947
0.0200362
-0.0215657
-1.08827
1.0898
0.0228133
-0.0240906
-0.916014
0.917292
0.0251978
-0.0263382
-0.775175
0.776315
0.0272574
-0.027486
-0.65833
0.658558
0.0266565
-0.0236451
-0.536746
0.533734
0.0188574
-0.0124996
-0.364676
0.358318
0.00722588
-0.00298399
-0.172282
0.16804
0.000778595
-0.0285084
0.0277298
-0.0300549
0.0296942
0.000360673
-0.00396324
0.00721347
-0.243592
0.240342
-0.0113461
0.0145097
-0.418782
0.415618
-0.0163267
0.0164399
-0.554081
0.553968
-0.0154475
0.0139323
-0.661141
0.662656
-0.0120267
0.0101434
-0.778151
0.780034
-0.00792548
0.00576123
-0.921216
0.923381
-0.00323679
0.00079664
-1.09469
1.09713
0.00202396
-0.00472306
-1.30439
1.30709
0.00779963
-0.0106929
-1.55856
1.56146
0.0134029
-0.0159323
-1.55725
1.55978
0.0179029
-0.0197435
-1.30142
1.30326
0.0211673
-0.0224864
-1.09134
1.09266
0.0235533
-0.0246556
-0.918501
0.919603
0.0256184
-0.0265902
-0.77736
0.778331
0.0272523
-0.0271933
-0.658661
0.658602
0.0259215
-0.0224856
-0.530524
0.527088
0.0175912
-0.011499
-0.352119
0.346027
0.00661925
-0.00274249
-0.16401
0.160134
0.000721397
-0.0269893
0.0262679
-0.029394
0.0291415
0.000252523
-0.00301185
0.00563334
-0.237427
0.234806
-0.00911927
0.0119423
-0.412644
0.409821
-0.013703
0.0138975
-0.553867
0.553673
-0.0129474
0.0114754
-0.66423
0.665702
-0.00954242
0.00761325
-0.781917
0.783846
-0.00534125
0.00313272
-0.925456
0.927665
-0.000571906
-0.00189107
-1.09948
1.10194
0.00471373
-0.00738967
-1.3097
1.31238
0.0104036
-0.0131968
-1.56425
1.56705
0.0157681
-0.01812
-1.56218
1.56453
0.0199153
-0.0215572
-1.30499
1.30663
0.0227922
-0.0238964
-1.09402
1.09512
0.0247775
-0.0257032
-0.920637
0.921563
0.0265227
-0.0273242
-0.779196
0.779998
0.0276956
-0.0273514
-0.658397
0.658053
0.0256315
-0.0217814
-0.523465
0.519615
0.0167793
-0.0108687
-0.340061
0.33415
0.00624912
-0.00260223
-0.156401
0.152754
0.000690753
-0.025572
0.0248812
-0.0289461
0.0287963
0.000149794
-0.00213085
0.00416216
-0.2325
0.230468
-0.00699675
0.00940931
-0.407226
0.404814
-0.0110059
0.0112031
-0.55354
0.553343
-0.0102617
0.00879465
-0.667268
0.668735
-0.00680747
0.0048028
-0.785779
0.787784
-0.00244147
0.000156784
-0.929787
0.932071
0.0024854
-0.00500407
-1.10432
1.10683
0.00786688
-0.0105505
-1.31497
1.31766
0.0135321
-0.0162467
-1.56975
1.57246
0.0186934
-0.0208755
-1.56676
1.56894
0.0224978
-0.0239404
-1.30816
1.3096
0.0249813
-0.0258572
-1.0963
1.09717
0.0265378
-0.0272705
-0.922408
0.923141
0.0279377
-0.0285952
-0.780677
0.781334
0.0286522
-0.0279295
-0.657495
0.656772
0.0257588
-0.0215009
-0.515607
0.511349
0.0163674
-0.0105458
-0.328327
0.322506
0.00606999
-0.00254302
-0.149198
0.145671
0.000681328
-0.0242058
0.0235244
-0.0287033
0.0286574
4.58334e-05
-0.00127181
0.00272758
-0.228742
0.227287
-0.00489707
0.00683595
-0.402664
0.400725
-0.00816522
0.00828293
-0.553261
0.553144
-0.00730378
0.00580522
-0.670334
0.671833
-0.0037251
0.00161207
-0.789796
0.791909
0.000878632
-0.00328295
-0.934274
0.936678
0.00604161
-0.00865402
-1.10927
1.11189
0.0115963
-0.0143219
-1.32027
1.323
0.0173026
-0.0199603
-1.57509
1.57775
0.0222955
-0.0243127
-1.571
1.57301
0.0257608
-0.0269974
-1.31091
1.31215
0.027835
-0.0284763
-1.09815
1.09879
0.028949
-0.0294754
-0.923791
0.924318
0.0299766
-0.0304236
-0.781791
0.782238
0.0301941
-0.0290149
-0.655826
0.654647
0.026358
-0.0216604
-0.506941
0.502243
0.0163394
-0.0104994
-0.316727
0.310887
0.006058
-0.00255424
-0.142187
0.138684
0.000690417
-0.0228501
0.0221597
-0.0286683
0.0287329
-6.46436e-05
-0.000388018
0.00126365
-0.226136
0.22526
-0.00274131
0.00414214
-0.399082
0.397681
-0.00510177
0.00505482
-0.553202
0.553249
-0.00398023
0.00239577
-0.673514
0.675098
-0.000190178
-0.00207142
-0.794033
0.796294
0.00473937
-0.00730285
-0.938997
0.941561
0.0102273
-0.0129757
-1.11442
1.11717
0.0160406
-0.018843
-1.32566
1.32846
0.0218537
-0.0244744
-1.58033
1.58295
0.0267074
-0.0285598
-1.5749
1.57675
0.029828
-0.0308498
-1.31323
1.31426
0.0314756
-0.0318731
-1.09956
1.09996
0.0321284
-0.0324336
-0.924756
0.925062
0.0327449
-0.0329088
-0.782376
0.78254
0.0323852
-0.0306573
-0.653258
0.65153
0.0274675
-0.0222774
-0.497397
0.492207
0.0166906
-0.0107144
-0.30504
0.299063
0.00620048
-0.00262985
-0.135181
0.131611
0.000716298
-0.0214688
0.0207525
-0.0288549
0.0290343
-0.000179413
0.000533245
-0.000272576
-0.224705
0.224444
-0.000463724
0.00124828
-0.396608
0.395823
-0.00172753
0.00143498
-0.553541
0.553834
-0.000209151
-0.00153711
-0.67692
0.678666
0.00393258
-0.0063925
-0.798576
0.801036
0.00928775
-0.012058
-0.944042
0.946812
0.0152009
-0.0181319
-1.11986
1.12279
0.0213667
-0.0242828
-1.33121
1.33413
0.0273553
-0.0299563
-1.58549
1.58809
0.0320915
-0.0337722
-1.57846
1.58014
0.034852
-0.0356412
-1.3151
1.31588
0.0360428
-0.0361829
-1.10048
1.10062
0.0362044
-0.0362717
-0.925263
0.92533
0.036386
-0.0361819
-0.782328
0.782124
0.0352753
-0.0329341
-0.649633
0.647292
0.0291393
-0.0233702
-0.486851
0.481082
0.0174162
-0.0111762
-0.293024
0.286784
0.00648482
-0.00276332
-0.128001
0.12428
0.000756975
-0.0200289
0.019272
-0.0292962
0.0296216
-0.00032538
0.00155313
-0.00193537
-0.224531
0.224913
0.00204809
-0.00198927
-0.395368
0.395309
0.00212268
-0.00277678
-0.554497
0.555151
0.00423772
-0.00617966
-0.680701
0.682643
0.00881442
-0.0115234
-0.803511
0.80622
0.0147065
-0.0177397
-0.949504
0.952537
0.0211606
-0.0243251
-1.12566
1.12883
0.0277792
-0.0308465
-1.337
1.34006
0.0340102
-0.0366052
-1.59061
1.59321
0.0386401
-0.0401285
-1.58166
1.58315
0.0409995
-0.0415421
-1.31645
1.31699
0.041703
-0.0415623
-1.10086
1.10072
0.0413254
-0.0411352
-0.925257
0.925066
0.041041
-0.0403624
-0.781492
0.780813
0.0389901
-0.0359364
-0.644806
0.641753
0.0314351
-0.0249672
-0.475117
0.468649
0.0185213
-0.0118782
-0.280421
0.273778
0.00690295
-0.00294954
-0.120482
0.116528
0.000810514
-0.0185022
0.0176917
-0.0300178
0.0305208
-0.000502932
0.00284088
-0.00398297
-0.225694
0.226836
0.00496316
-0.00570576
-0.395588
0.39633
0.00656007
-0.00768098
-0.556294
0.557415
0.0094668
-0.0116855
-0.684953
0.687172
0.0146444
-0.0176753
-0.808949
0.81198
0.021222
-0.024584
-0.955499
0.958861
0.0283508
-0.0318044
-1.13194
1.1354
0.035529
-0.0387816
-1.34309
1.34634
0.0420575
-0.0446484
-1.59571
1.59831
0.0465698
-0.0478472
-1.58446
1.58574
0.0484667
-0.0487457
-1.31726
1.31754
0.0486417
-0.0481913
-1.10064
1.10019
0.0476744
-0.0472085
-0.924676
0.92421
0.0467851
-0.0456494
-0.779727
0.778591
0.0436629
-0.0397603
-0.638565
0.634663
0.0344169
-0.0270933
-0.46194
0.454616
0.0200073
-0.0128102
-0.266946
0.259749
0.00744405
-0.00318198
-0.112463
0.108201
0.000874687
-0.0168637
0.015989
-0.0310938
0.0318183
-0.000724511
0.00434389
-0.00637343
-0.228391
0.23042
0.0084205
-0.0100724
-0.397476
0.399127
0.0117546
-0.01346
-0.559196
0.560901
0.0157063
-0.0183022
-0.689844
0.692439
0.0216933
-0.0251307
-0.815038
0.818475
0.0291302
-0.032898
-0.962161
0.965929
0.0370867
-0.0408883
-1.13881
1.14261
0.0449315
-0.0483956
-1.34955
1.35301
0.0517894
-0.0543595
-1.6008
1.60337
0.0561337
-0.0571544
-1.58681
1.58784
0.0574869
-0.0574566
-1.31746
1.31743
0.057059
-0.0562704
-1.09976
1.09897
0.0554454
-0.0546676
-0.923469
0.922691
0.0538378
-0.0521787
-0.777073
0.775414
0.0494401
-0.0445101
-0.630626
0.625696
0.0381434
-0.0297637
-0.446992
0.438612
0.021864
-0.0139515
-0.252295
0.244383
0.00808897
-0.00344933
-0.103795
0.0991551
0.000945455
-0.0150941
0.0141487
-0.0326069
0.0336207
-0.00101382
0.00623229
-0.00932049
-0.23287
0.235958
0.0126363
-0.0153488
-0.4013
0.404012
0.0180008
-0.0204191
-0.563477
0.565896
0.0232712
-0.0263666
-0.695584
0.69868
0.0303209
-0.0342728
-0.82195
0.825902
0.0388315
-0.0430908
-0.969647
0.973907
0.0477804
-0.0519834
-1.14638
1.15059
0.0563794
-0.0600602
-1.35642
1.3601
0.0635481
-0.0660498
-1.6058
1.6083
0.0676151
-0.068308
-1.58862
1.58931
0.0682863
-0.0678782
-1.3169
1.31649
0.0671602
-0.0659947
-1.09813
1.09697
0.0648241
-0.063739
-0.921573
0.920488
0.0623811
-0.060107
-0.773375
0.771101
0.0564464
-0.0502487
-0.620621
0.614423
0.0426267
-0.0329492
-0.429865
0.420187
0.0240436
-0.0152538
-0.236147
0.227357
0.00880083
-0.00373212
-0.0943476
0.0892789
0.00101645
-0.0131831
0.0121667
-0.0346838
0.0360984
-0.00141465
0.00870496
-0.0131437
-0.239458
0.243897
0.0179534
-0.0219029
-0.407427
0.411377
0.0256895
-0.0289716
-0.56947
0.572752
0.0326075
-0.036363
-0.702442
0.706198
0.0410442
-0.0456413
-0.829894
0.834491
0.0508768
-0.0557138
-0.97813
0.982967
0.0609721
-0.065608
-1.15475
1.15939
0.0703543
-0.0742158
-1.36369
1.36755
0.0777239
-0.0800629
-1.61062
1.61296
0.0813165
-0.08158
-1.58971
1.58998
0.0811379
-0.0802453
-1.31548
1.31459
0.0791466
-0.0775807
-1.09566
1.09409
0.0760683
-0.0745665
-0.918953
0.917451
0.0726862
-0.0695876
-0.768408
0.765309
0.0647643
-0.0569951
-0.608055
0.600285
0.0478311
-0.0365714
-0.410068
0.398809
0.026455
-0.0166368
-0.218185
0.208367
0.00952276
-0.00400211
-0.0840323
0.0785116
0.00107891
-0.0111343
0.0100554
-0.037525
0.0395078
-0.00198277
0.012135
-0.0183028
-0.248668
0.254836
0.0249106
-0.0303045
-0.416356
0.421749
0.0354345
-0.0397738
-0.577567
0.581906
0.0444044
-0.0490227
-0.710757
0.715375
0.0546362
-0.0600244
-0.839126
0.844514
0.0660543
-0.0715359
-0.987777
0.993258
0.0773879
-0.0824324
-1.16396
1.169
0.0874522
-0.0913839
-1.37125
1.37518
0.0947548
-0.0967637
-1.61502
1.61703
0.0975401
-0.0972198
-1.58986
1.58954
0.0962571
-0.0947822
-1.31302
1.31155
0.0932259
-0.0912305
-1.09225
1.09025
0.0893389
-0.0872869
-0.915339
0.913287
0.0848775
-0.0806974
-0.761699
0.757519
0.0744193
-0.0646883
-0.592298
0.582567
0.0536289
-0.0404661
-0.387042
0.373879
0.0289367
-0.017973
-0.198132
0.187169
0.0101706
-0.00422013
-0.0728256
0.0668751
0.00112131
-0.00896993
0.00784862
-0.0414506
0.0443112
-0.0028606
0.017134
-0.0255595
-0.261246
0.269672
0.0343941
-0.0415272
-0.428756
0.435889
0.048287
-0.0539041
-0.588256
0.593874
0.0598307
-0.0655818
-0.72095
0.726701
0.0723375
-0.078633
-0.849917
0.856213
0.0855115
-0.0916184
-0.998691
1.0048
0.0979714
-0.103282
-1.1739
1.17921
0.108365
-0.112139
-1.37883
1.3826
0.115093
-0.116506
-1.61861
1.62003
0.116563
-0.115448
-1.58873
1.58761
0.113801
-0.11165
-1.30934
1.30719
0.109564
-0.107105
-1.0878
1.08534
0.104821
-0.102089
-0.910444
0.907712
0.0989849
-0.0934004
-0.752681
0.747096
0.0852788
-0.0731063
-0.572526
0.560353
0.0597432
-0.0443434
-0.360177
0.344777
0.0312333
-0.0190782
-0.175806
0.163651
0.0106308
-0.00433673
-0.0608062
0.0545121
0.00112988
-0.00673605
0.00560618
-0.047038
0.0513852
-0.00434721
0.0248611
-0.0363603
-0.278352
0.289851
0.0480942
-0.057548
-0.445656
0.455109
0.0663353
-0.0734473
-0.602142
0.609254
0.0809265
-0.0881924
-0.733398
0.740664
0.0961441
-0.103265
-0.862468
0.869589
0.110821
-0.117327
-1.01075
1.01726
0.12386
-0.129094
-1.18419
1.18943
0.133826
-0.137045
-1.38588
1.3891
0.139145
-0.139576
-1.62081
1.62125
0.138584
-0.136411
-1.58586
1.58369
0.1339
-0.130937
-1.30422
1.30126
0.128231
-0.125257
-1.08221
1.07924
0.122475
-0.119057
-0.904089
0.900671
0.114954
-0.107489
-0.740639
0.733175
0.0969727
-0.0817795
-0.547712
0.532519
0.0656881
-0.0477718
-0.328888
0.310972
0.0330022
-0.0197288
-0.151215
0.137941
0.0107743
-0.00429885
-0.0481964
0.041721
0.00108989
-0.00450459
0.00341469
-0.0553646
0.0628116
-0.00744707
0.0383958
-0.0543797
-0.302144
0.318128
0.0701871
-0.0828682
-0.468715
0.481396
0.0938506
-0.102338
-0.619666
0.628154
0.111332
-0.119871
-0.74849
0.757029
0.128743
-0.136266
-0.87647
0.883994
0.143906
-0.150202
-1.02333
1.02963
0.15623
-0.160744
-1.19402
1.19853
0.164449
-0.166498
-1.39151
1.39356
0.167163
-0.166148
-1.62078
1.61976
0.16374
-0.160211
-1.58073
1.57721
0.156613
-0.152652
-1.29737
1.29341
0.149253
-0.145758
-1.0753
1.07181
0.142366
-0.138088
-0.896048
0.891771
0.132475
-0.122407
-0.724459
0.71439
0.108756
-0.0898665
-0.51657
0.49768
0.0707525
-0.0502505
-0.292759
0.272257
0.0339324
-0.0197843
-0.124694
0.110546
0.0105436
-0.00409259
-0.0353957
0.0289446
0.000995075
-0.00237343
0.00137836
-0.0697394
0.0738642
-0.0041248
0.02934
-0.0432324
-0.33662
0.350512
0.0572822
-0.0689438
-0.499375
0.511036
0.0793701
-0.0890863
-0.640426
0.650142
0.0999216
-0.109883
-0.76508
0.775041
0.120953
-0.130803
-0.890604
0.900454
0.1413
-0.150636
-1.03499
1.04432
0.160385
-0.168731
-1.20196
1.2103
0.177007
-0.183586
-1.39445
1.40103
0.189408
-0.193155
-1.61755
1.6213
0.194808
-0.194956
-1.57268
1.57282
0.193985
-0.192335
-1.28843
1.28678
0.190974
-0.189199
-1.06685
1.06507
0.187256
-0.183004
-0.885618
0.881366
0.175142
-0.159958
-0.702522
0.687339
0.13918
-0.111619
-0.477791
0.45023
0.0852471
-0.0583454
-0.251771
0.224869
0.0381499
-0.0215405
-0.0970592
0.0804498
0.0111411
-0.00418883
-0.0229796
0.0160273
0.000985583
-0.000443492
-0.000542091
-0.0812201
0.0792228
0.00199729
0.00748829
-0.0166697
-0.36715
0.376332
0.0273762
-0.0356647
-0.527359
0.535647
0.0440304
-0.0521955
-0.662454
0.670619
0.0621613
-0.0714619
-0.78461
0.793911
0.0813825
-0.0904332
-0.909729
0.91878
0.100042
-0.108244
-1.05337
1.06157
0.116985
-0.124093
-1.21845
1.22555
0.131074
-0.136321
-1.40728
1.41253
0.140387
-0.142563
-1.62422
1.6264
0.142669
-0.141271
-1.57228
1.57088
0.138757
-0.135447
-1.28436
1.28105
0.132466
-0.129223
-1.06091
1.05766
0.125866
-0.120535
-0.872601
0.867269
0.112044
-0.0983238
-0.668108
0.654387
0.0820505
-0.0625433
-0.421078
0.40157
0.0456514
-0.0301806
-0.198494
0.183023
0.0193609
-0.0108923
-0.0649431
0.0564745
0.00569277
-0.00217951
-0.00939149
0.00587823
0.000462001
0.00162381
-0.00208581
-0.082634
0.0796683
0.00296577
-0.00176001
-0.00353857
-0.387803
0.393101
0.0108284
-0.0168224
-0.548073
0.554067
0.022991
-0.0301591
-0.681028
0.688196
0.0387914
-0.0468656
-0.802302
0.810376
0.0556915
-0.0635768
-0.927061
0.934946
0.0716924
-0.0789735
-1.06957
1.07685
0.086505
-0.0926923
-1.23219
1.23838
0.0982777
-0.102215
-1.41705
1.42099
0.105134
-0.106019
-1.6278
1.62869
0.104849
-0.102178
-1.56881
1.56614
0.0986417
-0.0944193
-1.27734
1.27312
0.0901588
-0.0856586
-1.05229
1.04779
0.0811749
-0.0752057
-0.857563
0.851593
0.0674693
-0.0561674
-0.637621
0.626319
0.0444183
-0.0318438
-0.380552
0.367977
0.0223868
-0.0146249
-0.167274
0.159512
0.00956707
-0.0056996
-0.048114
0.0442465
0.0031843
-0.00121473
-0.00243615
0.000466576
0.00028594
0.00276469
-0.00305063
-0.0813193
0.0785033
0.00281602
-0.00547527
0.00295565
-0.40156
0.404079
0.00173407
-0.00627123
-0.563347
0.567884
0.011483
-0.0174927
-0.696342
0.702352
0.0248501
-0.0317441
-0.817791
0.824685
0.0392643
-0.0460056
-0.942278
0.949019
0.0533157
-0.0594511
-1.08367
1.08981
0.0659635
-0.0708228
-1.24411
1.24897
0.0754553
-0.0785374
-1.42464
1.42772
0.0803465
-0.0800152
-1.62903
1.6287
0.0780598
-0.0746247
-1.56282
1.55939
0.070399
-0.0650464
-1.26842
1.26307
0.0600229
-0.0545398
-1.04162
1.03614
0.0490663
-0.0429999
-0.84149
0.835424
0.0360067
-0.0273978
-0.612229
0.60362
0.0196265
-0.0127503
-0.354298
0.347422
0.00850978
-0.0056054
-0.15094
0.148036
0.0038924
-0.00263682
-0.0397935
0.0385379
0.00164001
-0.000676619
0.00151008
-0.00247347
0.000179625
0.00359138
-0.00377101
-0.0797288
0.0772231
0.00250571
-0.00667287
0.00580415
-0.410667
0.411536
-0.00238971
-0.000814321
-0.575602
0.578806
0.00505882
-0.0105207
-0.709155
0.714617
0.0166856
-0.0227115
-0.830862
0.836888
0.0291941
-0.0350136
-0.955279
0.961099
0.0412346
-0.0466305
-1.09578
1.10117
0.0520619
-0.0564008
-1.25364
1.25797
0.0602001
-0.062551
-1.43036
1.43271
0.0635856
-0.0625574
-1.62809
1.62706
0.0599571
-0.0556915
-1.55514
1.55087
0.05093
-0.0451412
-1.25747
1.25168
0.0395526
-0.033245
-1.0294
1.02309
0.0273842
-0.0211624
-0.825738
0.819516
0.0152765
-0.00883458
-0.592764
0.586322
0.00409418
-0.00103672
-0.338827
0.33577
-7.26767e-05
0.000198441
-0.14358
0.143454
5.36634e-05
-0.000323709
-0.0365426
0.0368126
0.000358916
-0.000199812
0.00350681
-0.00366592
7.3353e-05
0.00416657
-0.00423992
-0.0782246
0.0760634
0.00216114
-0.00662255
0.00629964
-0.416822
0.417145
-0.00429154
0.00171921
-0.584937
0.587509
0.00231271
-0.00696636
-0.719978
0.724631
0.0122411
-0.0174501
-0.842106
0.847315
0.023182
-0.0283428
-0.96654
0.971701
0.0339717
-0.038631
-1.10626
1.11092
0.0434172
-0.0472021
-1.26197
1.26576
0.0503742
-0.0521859
-1.43472
1.43653
0.0526414
-0.0514875
-1.62583
1.62468
0.0484159
-0.0438976
-1.54605
1.54154
0.0387897
-0.0326274
-1.24556
1.2394
0.0269225
-0.020112
-1.01604
1.00923
0.0139394
-0.00767723
-0.810559
0.804297
0.00247603
0.00233299
-0.577581
0.572772
-0.00528796
0.00635743
-0.330198
0.329129
-0.00562439
0.00427127
-0.141713
0.143066
-0.00300527
0.00166349
-0.0365905
0.0379323
-0.000798391
0.000274593
0.00382742
-0.00330362
-4.70232e-05
0.00444246
-0.00439544
-0.0770346
0.0753312
0.00170341
-0.00580381
0.00585036
-0.421293
0.421247
-0.00427251
0.00237495
-0.593013
0.59491
0.00134188
-0.00553755
-0.729277
0.733472
0.0105125
-0.0149672
-0.852102
0.856557
0.0199632
-0.0244949
-0.9768
0.981332
0.0297722
-0.0339385
-1.11558
1.11974
0.0381008
-0.041573
-1.26931
1.27278
0.044739
-0.0462187
-1.4383
1.43978
0.0464876
-0.0450096
-1.62304
1.62156
0.0420486
-0.0371258
-1.53671
1.53179
0.0320714
-0.0259578
-1.23297
1.22686
0.0200257
-0.0133324
-1.00206
0.995364
0.00705541
-0.000580467
-0.795972
0.789497
-0.00370267
0.00771779
-0.565239
0.561224
-0.0100194
0.010142
-0.325305
0.325182
-0.00879941
0.00689406
-0.142865
0.14477
-0.00504604
0.00308584
-0.0387865
0.0407467
-0.00166808
0.000674524
0.00275875
-0.00176519
-0.000157091
0.00439995
-0.00424286
-0.0763356
0.0749841
0.00135142
-0.00477062
0.00497038
-0.424737
0.424537
-0.00362019
0.00183195
-0.599971
0.601759
0.00171297
-0.00542735
-0.737575
0.74129
0.00965584
-0.0139166
-0.860932
0.865193
0.0184877
-0.0231072
-0.985638
0.990258
0.027588
-0.0315022
-1.12397
1.12789
0.0357056
-0.0388373
-1.27609
1.27922
0.0413979
-0.0431555
-1.44111
1.44287
0.0434225
-0.0420278
-1.62008
1.61868
0.0390084
-0.0344214
-1.527
1.52241
0.0294695
-0.0234519
-1.22038
1.21436
0.0177024
-0.0111121
-0.98832
0.98173
0.00500577
0.00106348
-0.781822
0.775752
-0.00559448
0.00909952
-0.554417
0.550912
-0.0110381
0.0112503
-0.322298
0.322086
-0.00996095
0.00787051
-0.145136
0.147227
-0.00593118
0.0037928
-0.0421017
0.0442401
-0.00214869
0.000924575
0.000762228
0.00046189
-0.000236499
0.00411025
-0.00387375
-0.0761575
0.0750255
0.00113208
-0.00352082
0.00350878
-0.427756
0.427768
-0.00246486
0.000735518
-0.606295
0.608024
0.00267001
-0.00623068
-0.74522
0.748781
0.0102511
-0.0140707
-0.86921
0.87303
0.0187146
-0.0224955
-0.994265
0.998046
0.0268898
-0.0305657
-1.13193
1.1356
0.0345817
-0.0378331
-1.28229
1.28555
0.040585
-0.04202
-1.44434
1.44577
0.0424959
-0.0413576
-1.61716
1.61603
0.0388226
-0.0343819
-1.51767
1.51323
0.0297343
-0.0239929
-1.20845
1.20271
0.0185345
-0.0121665
-0.974817
0.968449
0.00641142
-0.000345278
-0.768458
0.762392
-0.00416087
0.00759184
-0.544533
0.541102
-0.00958122
0.0100785
-0.319478
0.31898
-0.00935643
0.00770225
-0.147505
0.149159
-0.00600491
0.0039901
-0.0456876
0.0477025
-0.00236737
0.00103597
-0.00158755
0.00291895
-0.000286722
0.00365517
-0.00336844
-0.0762593
0.0754637
0.000795606
-0.00237899
0.00191686
-0.430817
0.431279
-0.00103779
-0.000830674
-0.611796
0.613664
0.0038743
-0.00726585
-0.752309
0.755701
0.0110861
-0.0150062
-0.876683
0.880603
0.0189933
-0.0229008
-1.00201
1.00591
0.0272154
-0.0306394
-1.13968
1.1431
0.0346929
-0.0378426
-1.28856
1.29171
0.0405826
-0.042476
-1.44758
1.44947
0.0433492
-0.0423979
-1.61489
1.61394
0.0400095
-0.0362009
-1.50895
1.50514
0.0320418
-0.0266305
-1.19687
1.19146
0.0214125
-0.0156193
-0.961988
0.956194
0.00982647
-0.00417256
-0.755407
0.749754
-0.000591152
0.00422349
-0.535033
0.5314
-0.00617753
0.00721215
-0.316152
0.315117
-0.00711169
0.0062216
-0.149125
0.150015
-0.00499931
0.00345152
-0.0488549
0.0504027
-0.00212875
0.000961707
-0.00394961
0.00511665
-0.000281588
0.00311449
-0.0028329
-0.07678
0.0761577
0.000622324
-0.00141137
0.00103182
-0.43408
0.434459
0.000357519
-0.00222739
-0.61734
0.61921
0.00539781
-0.00862907
-0.758843
0.762074
0.0122719
-0.0157648
-0.884163
0.887655
0.0198505
-0.0234166
-1.0098
1.01336
0.0276504
-0.0314824
-1.14696
1.15079
0.0351356
-0.0385773
-1.29487
1.29832
0.0416925
-0.0436277
-1.45123
1.45317
0.0448143
-0.044587
-1.61319
1.61296
0.0425916
-0.0393727
-1.5012
1.49798
0.0354238
-0.0305084
-1.18614
1.18122
0.0257706
-0.0202306
-0.950013
0.944473
0.0149071
-0.00940294
-0.743065
0.737561
0.00469306
-0.000435871
-0.525382
0.521125
-0.00203728
0.00353113
-0.311951
0.310457
-0.00416024
0.00397875
-0.149421
0.149602
-0.00338957
0.00247473
-0.0510338
0.0519486
-0.00159529
0.00075376
-0.0058806
0.00672213
-0.00024016
0.00260749
-0.00236733
-0.077588
0.0771536
0.000434374
-0.000377024
-0.000124783
-0.437515
0.438017
0.00160836
-0.00375156
-0.622595
0.624738
0.00680716
-0.00986106
-0.765101
0.768155
0.0135769
-0.0169031
-0.891105
0.894431
0.0208112
-0.0244827
-1.01739
1.02106
0.0285994
-0.0323757
-1.15445
1.15822
0.0362274
-0.0396712
-1.30165
1.30509
0.0429428
-0.0455976
-1.45537
1.45802
0.0471883
-0.0472181
-1.61265
1.61268
0.0458819
-0.0429691
-1.49465
1.49174
0.0395885
-0.0352675
-1.1763
1.17198
0.0306717
-0.0254737
-0.938702
0.933504
0.0204217
-0.0149104