/*--------------------------------*- C++ -*----------------------------------*\
| =========                 |                                                 |
| \\      /  F ield         | OpenFOAM: The Open Source CFD Toolbox           |
|  \\    /   O peration     | Version:  2306                                  |
|   \\  /    A nd           | Website:  www.openfoam.com                      |
|    \\/     M anipulation  |                                                 |
\*---------------------------------------------------------------------------*/
FoamFile
{
    version     2.0;
    format      ascii;
    arch        "LSB;label=32;scalar=64";
    class       volVectorField;
    location    "66";
    object      U;
}
// * * * * * * * * * * * * * * * * * * * * * * * * * * * * * * * * * * * * * //

dimensions      [0 1 -1 0 0 0 0];

internalField   nonuniform List<vector> 
8800
(
(0.984956 -0.0884518 0)
(1.00213 -0.0568246 0)
(0.999651 -0.0305574 0)
(1 -0.0158642 0)
(1.00009 -0.00872429 0)
(1.00011 -0.00508983 0)
(1.00007 -0.00300084 0)
(1.00002 -0.00168921 0)
(0.999999 -0.000783602 0)
(1.00007 -8.00523e-05 0)
(0.999981 0.000633931 0)
(0.999991 0.00139516 0)
(1.00003 0.0024201 0)
(1.00005 0.00401173 0)
(1.00004 0.00671745 0)
(1.00001 0.0117409 0)
(0.99984 0.0220506 0)
(0.999169 0.0411652 0)
(1.00748 0.0768941 0)
(0.773655 0.0450714 0)
(0.361012 -0.0151707 0)
(1.04557 -0.0741972 0)
(1.0871 -0.0678838 0)
(1.04775 -0.0522939 0)
(1.0246 -0.0383903 0)
(1.01243 -0.0261119 0)
(1.00652 -0.0167609 0)
(1.00363 -0.0102369 0)
(1.00219 -0.00558171 0)
(1.00152 -0.00196576 0)
(1.00138 0.0012692 0)
(1.00172 0.00459782 0)
(1.0027 0.0085062 0)
(1.00472 0.0138354 0)
(1.00881 0.0215529 0)
(1.01734 0.0323659 0)
(1.03444 0.045701 0)
(1.06548 0.0598046 0)
(1.09407 0.072917 0)
(0.842194 0.0557167 0)
(0.217098 -0.00164609 0)
(1.07587 -0.0503484 0)
(1.09984 -0.0487066 0)
(1.06466 -0.0401561 0)
(1.04001 -0.0329926 0)
(1.02383 -0.0256902 0)
(1.01403 -0.0182925 0)
(1.00853 -0.0115474 0)
(1.00567 -0.00572719 0)
(1.00448 -0.000395279 0)
(1.00478 0.00475124 0)
(1.00662 0.0100826 0)
(1.01056 0.0161196 0)
(1.01786 0.0230122 0)
(1.03049 0.0302605 0)
(1.05063 0.0372531 0)
(1.08034 0.0445859 0)
(1.10617 0.0517936 0)
(0.942779 0.0413438 0)
(0.216431 0.00166879 0)
(0.175934 -0.000644918 0)
(1.01872 -0.0354009 0)
(1.1056 -0.0414046 0)
(1.07815 -0.0362384 0)
(1.05291 -0.0302104 0)
(1.03564 -0.0244777 0)
(1.02361 -0.0187326 0)
(1.01567 -0.0126892 0)
(1.01099 -0.0065305 0)
(1.00892 -0.000241364 0)
(1.00944 0.00595889 0)
(1.01253 0.0119206 0)
(1.01858 0.0177203 0)
(1.02832 0.0232677 0)
(1.04263 0.0286769 0)
(1.06334 0.0343257 0)
(1.09375 0.0402836 0)
(1.09408 0.0419025 0)
(0.828704 0.0227994 0)
(0.174804 0.000669031 0)
(0.1544 -0.000486742 0)
(0.95739 -0.0255426 0)
(1.10413 -0.0350708 0)
(1.08799 -0.0326246 0)
(1.06149 -0.02807 0)
(1.04361 -0.0230657 0)
(1.03117 -0.0177847 0)
(1.02246 -0.0122564 0)
(1.0168 -0.00632738 0)
(1.01408 0.00016058 0)
(1.01471 0.00664799 0)
(1.01853 0.0125332 0)
(1.02542 0.0178143 0)
(1.03563 0.0227492 0)
(1.05028 0.0275453 0)
(1.07196 0.0320132 0)
(1.10065 0.035882 0)
(1.06903 0.0340112 0)
(0.74104 0.0143824 0)
(0.152696 0.000513582 0)
(0.139888 -0.000357897 0)
(0.900475 -0.0191951 0)
(1.09652 -0.0301189 0)
(1.09613 -0.0292318 0)
(1.06915 -0.0254744 0)
(1.05045 -0.0213646 0)
(1.03748 -0.0166236 0)
(1.02844 -0.0113549 0)
(1.02242 -0.00562132 0)
(1.01936 0.000747871 0)
(1.01994 0.00712467 0)
(1.02395 0.0127665 0)
(1.03103 0.0177132 0)
(1.04154 0.0221547 0)
(1.0568 0.0260985 0)
(1.07939 0.0295728 0)
(1.10288 0.0322318 0)
(1.03703 0.0281706 0)
(0.6743 0.0102719 0)
(0.137483 0.000389353 0)
(0.129256 -0.000273302 0)
(0.850783 -0.0148187 0)
(1.08418 -0.0260079 0)
(1.10182 -0.0263251 0)
(1.07601 -0.0230099 0)
(1.05679 -0.0193529 0)
(1.04338 -0.015129 0)
(1.03397 -0.0102299 0)
(1.02768 -0.00470578 0)
(1.02441 0.00147446 0)
(1.02486 0.00762526 0)
(1.02885 0.0129856 0)
(1.03606 0.0175216 0)
(1.04685 0.0213533 0)
(1.06249 0.0246664 0)
(1.08551 0.0276529 0)
(1.10201 0.0294261 0)
(1.00216 0.0236616 0)
(0.622266 0.00789682 0)
(0.125997 0.000311197 0)
(0.121152 -0.000210539 0)
(0.808506 -0.0116453 0)
(1.06892 -0.0224032 0)
(1.10537 -0.0236873 0)
(1.08227 -0.0208058 0)
(1.06262 -0.0173656 0)
(1.04893 -0.013431 0)
(1.03925 -0.00886009 0)
(1.03269 -0.003606 0)
(1.02917 0.00234661 0)
(1.02945 0.00823157 0)
(1.03338 0.013241 0)
(1.04065 0.0173134 0)
(1.05153 0.0206536 0)
(1.0674 0.0235671 0)
(1.09079 0.0262455 0)
(1.09826 0.0271125 0)
(0.966866 0.0201226 0)
(0.580428 0.0063528 0)
(0.116854 0.000256415 0)
(0.114876 -0.00016228 0)
(0.772902 -0.00926875 0)
(1.05215 -0.0192278 0)
(1.10776 -0.0212442 0)
(1.08816 -0.0187389 0)
(1.0681 -0.0154511 0)
(1.05417 -0.0116791 0)
(1.04429 -0.00731101 0)
(1.03749 -0.00229656 0)
(1.03371 0.0033987 0)
(1.03375 0.0089768 0)
(1.03755 0.0136062 0)
(1.04475 0.0172687 0)
(1.05564 0.0202254 0)
(1.07172 0.0228115 0)
(1.09479 0.025143 0)
(1.09167 0.0251987 0)
(0.932486 0.0173921 0)
(0.545779 0.00529759 0)
(0.109316 0.000217862 0)
(0.109985 -0.000123877 0)
(0.74304 -0.00742431 0)
(1.03493 -0.0164105 0)
(1.1092 -0.0189426 0)
(1.09376 -0.0167461 0)
(1.07341 -0.0135538 0)
(1.0592 -0.0098752 0)
(1.04913 -0.00562755 0)
(1.04211 -0.000782306 0)
(1.03803 0.00466593 0)
(1.03778 0.00992337 0)
(1.04134 0.0141906 0)
(1.04841 0.0174896 0)
(1.05927 0.0200974 0)
(1.07556 0.0223927 0)
(1.0975 0.0243485 0)
(1.08262 0.023635 0)
(0.89959 0.0153202 0)
(0.516259 0.00456329 0)
(0.102892 0.000191139 0)
(0.106193 -9.20649e-05 0)
(0.718102 -0.00593697 0)
(1.01811 -0.0138797 0)
(1.10981 -0.0167162 0)
(1.09925 -0.0147971 0)
(1.07863 -0.0116188 0)
(1.06412 -0.00797299 0)
(1.05383 -0.00378808 0)
(1.04655 0.000946883 0)
(1.04215 0.00618788 0)
(1.04153 0.0111451 0)
(1.04478 0.0150731 0)
(1.05166 0.0180254 0)
(1.06248 0.0202933 0)
(1.07895 0.0223248 0)
(1.09885 0.0238769 0)
(1.07149 0.0224192 0)
(0.868294 0.0137935 0)
(0.490402 0.00405945 0)
(0.0972365 0.0001737 0)
(0.10331 -6.45234e-05 0)
(0.697446 -0.00468955 0)
(1.00229 -0.0115686 0)
(1.10975 -0.0145281 0)
(1.10459 -0.0128058 0)
(1.08386 -0.00959414 0)
(1.06903 -0.00592286 0)
(1.05847 -0.00173995 0)
(1.05088 0.00293547 0)
(1.04607 0.00801912 0)
(1.04501 0.0127083 0)
(1.04788 0.0163117 0)
(1.05453 0.018925 0)
(1.06528 0.0208565 0)
(1.08188 0.022631 0)
(1.09919 0.023779 0)
(1.05856 0.0215615 0)
(0.838433 0.0127219 0)
(0.467113 0.00372973 0)
(0.0920885 0.000163567 0)
(0.101216 -3.91587e-05 0)
(0.680599 -0.00359414 0)
(0.987923 -0.00940685 0)
(1.10922 -0.0122922 0)
(1.10975 -0.0106859 0)
(1.08916 -0.00741819 0)
(1.07398 -0.0036623 0)
(1.0631 0.000582632 0)
(1.05514 0.00525337 0)
(1.04984 0.0102307 0)
(1.04823 0.0146806 0)
(1.05065 0.0179676 0)
(1.05703 0.0202441 0)
(1.06768 0.0218341 0)
(1.08433 0.0233385 0)
(1.09852 0.024063 0)
(1.04398 0.0210782 0)
(0.809678 0.0120353 0)
(0.445532 0.00353624 0)
(0.0872446 0.00015924 0)
(0.0998474 -1.41246e-05 0)
(0.66726 -0.00258159 0)
(0.975382 -0.00731997 0)
(1.10854 -0.00994948 0)
(1.11487 -0.00837713 0)
(1.09463 -0.00501653 0)
(1.07906 -0.00111321 0)
(1.0678 0.00325595 0)
(1.05938 0.00798597 0)
(1.05348 0.0129075 0)
(1.05121 0.0171445 0)
(1.05309 0.0201186 0)
(1.05914 0.0220483 0)
(1.06965 0.0232789 0)
(1.08632 0.0245167 0)
(1.0966 0.0247832 0)
(1.02781 0.0209553 0)
(0.781598 0.0116789 0)
(0.424956 0.00345368 0)
(0.0825395 0.000159594 0)
(0.0991894 1.29713e-05 0)
(0.657273 -0.0015979 0)
(0.964976 -0.00523599 0)
(1.10805 -0.00743599 0)
(1.12007 -0.00580555 0)
(1.10034 -0.00230221 0)
(1.08435 0.00181504 0)
(1.07264 0.00637602 0)
(1.06365 0.0112341 0)
(1.05702 0.0161507 0)
(1.05395 0.0201965 0)
(1.05519 0.0228581 0)
(1.06084 0.0244201 0)
(1.07119 0.0252774 0)
(1.08776 0.0262105 0)
(1.0934 0.0259568 0)
(1.01001 0.0212273 0)
(0.753716 0.0116245 0)
(0.404798 0.00346723 0)
(0.0778386 0.000164058 0)
(0.0992622 3.73143e-05 0)
(0.650607 -0.000596378 0)
(0.957007 -0.00308301 0)
(1.10807 -0.00468009 0)
(1.12552 -0.00288405 0)
(1.10639 0.000823241 0)
(1.08994 0.00522884 0)
(1.07769 0.0100602 0)
(1.06801 0.0151175 0)
(1.06049 0.0200792 0)
(1.05647 0.0239496 0)
(1.05694 0.0262901 0)
(1.0621 0.0274723 0)
(1.07227 0.027934 0)
(1.08845 0.0284987 0)
(1.08867 0.0276131 0)
(0.99041 0.0219297 0)
(0.725493 0.0118567 0)
(0.384522 0.00356859 0)
(0.0730193 0.00017219 0)
(0.100102 7.40283e-05 0)
(0.647337 0.000433544 0)
(0.951792 -0.000789034 0)
(1.10897 -0.00159864 0)
(1.13142 0.000484253 0)
(1.1129 0.00447413 0)
(1.09594 0.00925849 0)
(1.08303 0.014448 0)
(1.07252 0.0197809 0)
(1.06392 0.0248389 0)
(1.05875 0.0285445 0)
(1.0583 0.0305424 0)
(1.0629 0.0313286 0)
(1.07282 0.0313666 0)
(1.08824 0.0315089 0)
(1.08216 0.0298584 0)
(0.968734 0.0230866 0)
(0.696334 0.0123649 0)
(0.363624 0.0037494 0)
(0.0679721 0.000183426 0)
(0.10192 0.000110323 0)
(0.647848 0.00159989 0)
(0.949682 0.00173682 0)
(1.1112 0.00192173 0)
(1.13798 0.00439043 0)
(1.12001 0.00880466 0)
(1.10245 0.0140687 0)
(1.08877 0.019711 0)
(1.07722 0.0254011 0)
(1.06732 0.0306035 0)
(1.06079 0.0341493 0)
(1.05924 0.0357644 0)
(1.06317 0.0361229 0)
(1.07278 0.0357035 0)
(1.08687 0.0353536 0)
(1.07359 0.0327689 0)
(0.944587 0.0247423 0)
(0.66561 0.0131453 0)
(0.341634 0.00400375 0)
(0.0626021 0.000197065 0)
(0.104776 0.000160648 0)
(0.652582 0.00305221 0)
(0.951167 0.00464588 0)
(1.11522 0.00597383 0)
(1.14543 0.00901228 0)
(1.12788 0.0139962 0)
(1.10963 0.019856 0)
(1.09499 0.0260633 0)
(1.08219 0.0321944 0)
(1.07071 0.0375772 0)
(1.06254 0.040938 0)
(1.05974 0.0421152 0)
(1.06285 0.042015 0)
(1.07208 0.0410823 0)
(1.08419 0.0402128 0)
(1.06259 0.0364595 0)
(0.917425 0.0269339 0)
(0.632625 0.0141922 0)
(0.318096 0.00432346 0)
(0.0568267 0.000212425 0)
(0.108948 0.000226962 0)
(0.661963 0.00473783 0)
(0.956703 0.00808013 0)
(1.12154 0.0107479 0)
(1.15403 0.0145475 0)
(1.13671 0.020279 0)
(1.11764 0.0268803 0)
(1.1018 0.0337773 0)
(1.08745 0.0404292 0)
(1.07406 0.0460045 0)
(1.06397 0.0491225 0)
(1.05972 0.0497974 0)
(1.06186 0.0491824 0)
(1.07064 0.0476696 0)
(1.08026 0.0461901 0)
(1.04867 0.0410322 0)
(0.886565 0.0296929 0)
(0.596638 0.0154877 0)
(0.292588 0.00469444 0)
(0.0505861 0.00022811 0)
(0.114776 0.000316116 0)
(0.67677 0.00683802 0)
(0.966937 0.0122434 0)
(1.13073 0.0164861 0)
(1.16417 0.021266 0)
(1.14678 0.027978 0)
(1.12665 0.0354908 0)
(1.10931 0.0432071 0)
(1.09304 0.0504379 0)
(1.07734 0.056171 0)
(1.06501 0.0589419 0)
(1.059 0.058981 0)
(1.06013 0.0578015 0)
(1.06841 0.0556582 0)
(1.07483 0.053471 0)
(1.03119 0.0465673 0)
(0.851165 0.0330115 0)
(0.556882 0.0169867 0)
(0.264764 0.00509159 0)
(0.043855 0.00024217 0)
(0.122771 0.00044482 0)
(0.697974 0.00959211 0)
(0.98274 0.0174432 0)
(1.14345 0.0235316 0)
(1.17633 0.0295641 0)
(1.15838 0.037551 0)
(1.13686 0.0461632 0)
(1.1176 0.0548123 0)
(1.09893 0.0626239 0)
(1.08046 0.0684006 0)
(1.06552 0.0706518 0)
(1.05754 0.0699064 0)
(1.05755 0.0680264 0)
(1.06531 0.0651668 0)
(1.06754 0.0620697 0)
(1.0093 0.0531286 0)
(0.810242 0.0368404 0)
(0.512624 0.01861 0)
(0.234407 0.00547786 0)
(0.036661 0.000252103 0)
(0.133665 0.000629048 0)
(0.72681 0.0133728 0)
(1.00527 0.0241496 0)
(1.16049 0.0324324 0)
(1.1911 0.0400427 0)
(1.17188 0.0496711 0)
(1.14844 0.0595706 0)
(1.12666 0.0692017 0)
(1.10499 0.0774781 0)
(1.08323 0.0830476 0)
(1.06535 0.0845 0)
(1.05523 0.0827745 0)
(1.05403 0.0800675 0)
(1.061 0.0763274 0)
(1.05768 0.0721695 0)
(0.981943 0.0606853 0)
(0.762701 0.0410529 0)
(0.463264 0.0202238 0)
(0.201524 0.00580048 0)
(0.029103 0.000254877 0)
(0.148702 0.000921354 0)
(0.765275 0.018804 0)
(1.03619 0.0331533 0)
(1.1828 0.0441334 0)
(1.20927 0.0538449 0)
(1.18758 0.0653858 0)
(1.16143 0.0766763 0)
(1.13633 0.087159 0)
(1.11096 0.0955664 0)
(1.08538 0.100476 0)
(1.06425 0.10071 0)
(1.05189 0.0977343 0)
(1.04943 0.0940512 0)
(1.05516 0.0895174 0)
(1.04449 0.0838167 0)
(0.94773 0.0691046 0)
(0.707455 0.045393 0)
(0.408522 0.0216286 0)
(0.166464 0.00599143 0)
(0.0213701 0.000247177 0)
(0.170088 0.00142777 0)
(0.816642 0.0270289 0)
(1.07809 0.0460101 0)
(1.2115 0.0605042 0)
(1.23141 0.0730094 0)
(1.20557 0.0863137 0)
(1.17556 0.0987953 0)
(1.14618 0.109619 0)
(1.11637 0.117481 0)
(1.08651 0.121017 0)
(1.06193 0.119447 0)
(1.04733 0.114869 0)
(1.04364 0.110032 0)
(1.04776 0.104631 0)
(1.02684 0.0969162 0)
(0.904974 0.0780086 0)
(0.643695 0.0494602 0)
(0.348792 0.0225699 0)
(0.130092 0.00597725 0)
(0.0137602 0.000225359 0)
(0.201223 0.00254942 0)
(0.886671 0.0407261 0)
(1.13462 0.0665668 0)
(1.24702 0.0851375 0)
(1.25728 0.100285 0)
(1.22522 0.114805 0)
(1.19001 0.12752 0)
(1.15538 0.13755 0)
(1.12054 0.143749 0)
(1.08609 0.144901 0)
(1.05806 0.140782 0)
(1.04134 0.134183 0)
(1.03656 0.127973 0)
(1.03836 0.121508 0)
(1.00321 0.111099 0)
(0.851702 0.086721 0)
(0.571505 0.052708 0)
(0.285862 0.0228564 0)
(0.0941394 0.00573536 0)
(0.00676411 0.000187015 0)
(0.243666 0.00881274 6.94852e-20)
(0.979419 0.0679785 6.24994e-20)
(1.20347 0.101152 -2.2162e-20)
(1.28623 0.121658 0)
(1.28402 0.139277 -5.9503e-34)
(1.24437 0.153189 8.77072e-21)
(1.20321 0.164358 -1.61712e-20)
(1.16283 0.172173 0)
(1.12261 0.175621 3.40314e-34)
(1.08332 0.173582 -2.07488e-20)
(1.05166 0.166423 0)
(1.03273 0.157632 -2.49552e-20)
(1.02708 0.150223 -7.38003e-20)
(1.02566 0.143461 -3.48644e-20)
(0.969554 0.128885 -1.05211e-20)
(0.781802 0.0966621 -6.25721e-21)
(0.485742 0.0554983 0)
(0.218163 0.0228872 4.36265e-21)
(0.0586248 0.00556968 5.12974e-21)
(0.000353589 0.000149012 9.10857e-20)
(0.27325 0.0242234 4.55964e-20)
(1.0561 0.110779 1.06523e-21)
(1.26027 0.150434 5.64231e-21)
(1.3213 0.171068 0)
(1.30747 0.188568 -2.93473e-20)
(1.26079 0.200286 -3.38864e-20)
(1.21372 0.209125 -1.61244e-20)
(1.16753 0.21444 -5.86322e-20)
(1.12171 0.215094 0)
(1.0772 0.209924 8.83262e-20)
(1.04145 0.199816 8.82162e-20)
(1.02005 0.188857 2.63237e-20)
(1.01231 0.17967 9.66229e-20)
(1.00279 0.170486 1.36283e-19)
(0.916504 0.14958 0)
(0.687287 0.106985 1.92023e-19)
(0.384805 0.0578425 2.74831e-19)
(0.147912 0.0221968 3.04174e-19)
(0.0230658 0.00417278 -3.46094e-19)
(-0.00619026 -0.000497357 -6.42107e-21)
(0.274461 0.0403375 0)
(1.10464 0.166344 6.79494e-21)
(1.29857 0.210997 0)
(1.34857 0.231116 -3.43431e-20)
(1.32587 0.245565 0)
(1.27328 0.253373 -6.49758e-20)
(1.22068 0.258466 3.25642e-20)
(1.16898 0.260171 -1.16512e-19)
(1.11785 0.257157 -3.16408e-21)
(1.06835 0.248206 4.54022e-20)
(1.02872 0.234708 1.94381e-19)
(1.00494 0.221243 -4.3722e-22)
(0.994841 0.210084 -7.02691e-20)
(0.976629 0.197883 -1.28511e-19)
(0.868585 0.169666 1.51916e-19)
(0.619599 0.116459 -2.68692e-19)
(0.325892 0.0599458 -3.53993e-20)
(0.111411 0.0212166 0)
(0.00509593 0.00203265 -2.35496e-23)
(-0.00977454 -0.00137154 0)
(0.267967 0.0541677 5.30215e-20)
(1.13079 0.225114 -3.15313e-20)
(1.32213 0.276081 -3.15453e-20)
(1.36663 0.296373 1.52757e-20)
(1.33781 0.306877 -2.6249e-20)
(1.28079 0.310128 1.35121e-19)
(1.22363 0.310783 6.74491e-20)
(1.16716 0.308219 0)
(1.11126 0.300972 -2.24133e-19)
(1.05718 0.28775 0)
(1.01392 0.270491 -1.01623e-19)
(0.987808 0.254254 -1.2673e-19)
(0.975334 0.240772 -7.65577e-20)
(0.950033 0.224947 -9.33741e-20)
(0.829407 0.189461 0)
(0.57598 0.127073 0)
(0.295039 0.0641401 -2.30317e-19)
(0.0932606 0.0210003 4.53581e-20)
(-0.00519293 -0.000281527 -2.64311e-20)
(-0.0124069 -0.00242015 -3.04515e-20)
(0.260168 0.0663055 4.6525e-21)
(1.14214 0.2837 0)
(1.335 0.342029 5.06389e-20)
(1.37644 0.362995 3.96785e-20)
(1.34337 0.369637 6.29045e-20)
(1.28312 0.36833 0)
(1.22239 0.364432 6.44388e-20)
(1.16198 0.357405 1.27757e-19)
(1.10199 0.345688 1.13812e-19)
(1.04381 0.327943 2.14346e-19)
(0.997151 0.306679 0)
(0.968737 0.287436 -2.73294e-19)
(0.953909 0.271432 -1.65374e-19)
(0.923216 0.251989 -9.7916e-20)
(0.797284 0.210076 6.00067e-19)
(0.548625 0.139801 7.11063e-20)
(0.280482 0.0704299 3.32759e-19)
(0.0866263 0.0219291 -1.57374e-18)
(-0.00961635 -0.00218467 9.27004e-19)
(-0.0140674 -0.00347596 -1.09983e-18)
(0.252645 0.0772411 3.45511e-20)
(1.14401 0.340256 -1.83285e-21)
(1.34009 0.40695 -2.05724e-21)
(1.37963 0.429093 -2.92276e-20)
(1.34349 0.432113 -4.66447e-20)
(1.28083 0.426428 3.59063e-21)
(1.21728 0.418128 -7.00187e-20)
(1.15366 0.40671 1.31033e-19)
(1.09014 0.39054 -2.45057e-19)
(1.0283 0.368239 0)
(0.978475 0.34288 -1.23252e-19)
(0.947786 0.320532 -3.19033e-21)
(0.930692 0.301944 -1.8138e-19)
(0.896274 0.279033 0)
(0.770124 0.231508 -1.30067e-19)
(0.53127 0.154475 -3.07567e-19)
(0.276029 0.0790881 8.16221e-19)
(0.0878367 0.024598 -8.04553e-19)
(-0.00916058 -0.00311715 1.13754e-18)
(-0.0145936 -0.00433556 -1.16375e-18)
(0.246246 0.0873075 -8.22799e-22)
(1.13997 0.394098 1.06462e-20)
(1.33957 0.469848 1.21048e-20)
(1.37761 0.493468 6.55209e-21)
(1.33924 0.493263 -2.24994e-20)
(1.27476 0.48348 0)
(1.20894 0.471029 -6.25065e-20)
(1.1426 0.455422 -1.36525e-19)
(1.07603 0.434956 -1.26663e-19)
(1.0109 0.408193 0)
(0.958138 0.378776 -1.2737e-19)
(0.925226 0.35332 -1.59413e-19)
(0.905947 0.332119 1.97098e-19)
(0.868935 0.305937 -1.20012e-19)
(0.745557 0.253562 -5.69734e-19)
(0.518611 0.170672 3.36912e-19)
(0.27619 0.0892456 9.95038e-20)
(0.0931641 0.0288665 0)
(-0.00517142 -0.00271665 -1.10328e-18)
(-0.0140475 -0.00484626 -3.99035e-20)
(0.241088 0.0968319 1.11877e-20)
(1.13235 0.445039 -1.68334e-20)
(1.33494 0.53026 -9.12734e-21)
(1.37165 0.555409 3.10684e-20)
(1.33157 0.552425 -7.3152e-20)
(1.2657 0.538911 1.12778e-19)
(1.19803 0.522611 1.34977e-19)
(1.12939 0.503078 -2.17961e-19)
(1.06014 0.478545 8.01971e-20)
(0.992002 0.447495 -5.27316e-19)
(0.936486 0.414129 -1.4513e-19)
(0.901423 0.385615 0)
(0.880103 0.361906 2.14324e-19)
(0.841237 0.332558 2.5767e-19)
(0.72216 0.275642 3.07743e-19)
(0.507279 0.187791 -3.67502e-19)
(0.27747 0.100566 -1.08168e-19)
(0.0998996 0.0346078 1.27322e-19)
(0.00070325 -0.0010542 0)
(-0.0127635 -0.00499901 -8.68956e-20)
(0.23709 0.105969 -1.63247e-19)
(1.1228 0.493187 9.46006e-20)
(1.32746 0.587984 1.30825e-20)
(1.36277 0.614598 1.16669e-20)
(1.32131 0.609206 -2.68734e-20)
(1.25436 0.592329 -8.15831e-21)
(1.18518 0.572532 -1.48629e-19)
(1.11457 0.549382 -7.91599e-20)
(1.04289 0.521047 -2.20689e-19)
(0.971973 0.485934 6.47647e-22)
(0.913849 0.448752 -4.53475e-19)
(0.87674 0.417266 3.87494e-19)
(0.853514 0.39109 -2.36515e-19)
(0.813236 0.358717 2.85181e-19)
(0.698398 0.297531 0)
(0.495144 0.205147 -2.00599e-19)
(0.2777 0.112301 4.86354e-22)
(0.106348 0.0412402 -5.57812e-19)
(0.00717584 0.0015024 -8.14327e-20)
(-0.011037 -0.00482808 0)
(0.234145 0.114862 0)
(1.11228 0.538772 1.07825e-19)
(1.31804 0.643414 5.07299e-20)
(1.35179 0.670892 -3.07899e-21)
(1.30913 0.663399 -4.1972e-20)
(1.24135 0.643514 0)
(1.17092 0.620568 -6.37056e-20)
(1.09858 0.594133 -2.08423e-21)
(1.0247 0.5623 4.73446e-19)
(0.951168 0.523373 -7.20369e-20)
(0.890548 0.482526 -3.28084e-19)
(0.851498 0.448156 2.00911e-19)
(0.8265 0.419535 -4.4651e-21)
(0.784935 0.384089 3.03608e-19)
(0.673764 0.318733 1.87256e-19)
(0.48119 0.222055 -4.33927e-19)
(0.275141 0.123931 5.12767e-19)
(0.110789 0.0481884 1.51715e-19)
(0.0129626 0.00457533 6.2206e-19)
(-0.00918746 -0.00442063 -1.63616e-18)
(0.232166 0.123687 -5.23316e-20)
(1.10151 0.581979 7.31811e-20)
(1.30733 0.695865 -5.12583e-20)
(1.33933 0.724266 -1.277e-20)
(1.2956 0.714907 0)
(1.22718 0.692338 -4.33553e-20)
(1.1557 0.666592 2.18348e-19)
(1.08183 0.637207 1.72086e-19)
(1.00592 0.602197 0)
(0.929884 0.559727 -1.04404e-18)
(0.866828 0.515372 8.89738e-19)
(0.825905 0.478166 0)
(0.799238 0.447082 2.77521e-19)
(0.756405 0.408453 -4.44907e-21)
(0.647931 0.338842 -6.00743e-19)
(0.465324 0.237568 2.34126e-19)
(0.269666 0.134717 0)
(0.112434 0.0546671 8.20386e-19)
(0.0171316 0.00751951 0)
(-0.00755295 -0.00395034 -7.76204e-19)
(0.23101 0.132485 6.22202e-20)
(1.09089 0.623043 9.36116e-20)
(1.29586 0.745413 -5.11779e-20)
(1.32584 0.77474 0)
(1.2812 0.76371 -2.3736e-20)
(1.21226 0.738762 0)
(1.13991 0.710535 -2.08919e-19)
(1.06467 0.678532 -7.69861e-20)
(0.986855 0.640678 8.23452e-20)
(0.908378 0.594954 -5.16752e-19)
(0.842888 0.547249 9.14885e-20)
(0.800131 0.507205 0)
(0.771895 0.473555 -5.9309e-19)
(0.727768 0.431543 4.30523e-21)
(0.6213 0.357223 0)
(0.447186 0.251285 2.24909e-21)
(0.261187 0.143858 7.53135e-19)
(0.110921 0.0598931 -7.08145e-19)
(0.0191877 0.00979392 2.08387e-19)
(-0.00635258 -0.00356049 0)
(0.230361 0.141172 0)
(1.08075 0.662005 1.11899e-19)
(1.28383 0.792251 7.28766e-20)
(1.31175 0.822364 -5.00789e-21)
(1.26629 0.809833 1.6242e-21)
(1.19695 0.782787 -9.70462e-20)
(1.12386 0.752379 8.01435e-20)
(1.04737 0.718078 -9.34956e-20)
(0.967762 0.677706 3.70999e-19)
(0.886872 0.629044 -8.26661e-19)
(0.818897 0.578155 -8.1666e-21)
(0.774282 0.535231 -2.58089e-19)
(0.744519 0.49884 9.63962e-19)
(0.698986 0.453077 -5.14403e-21)
(0.593956 0.373628 -4.67653e-19)
(0.427181 0.262724 -8.29935e-19)
(0.250083 0.150974 0)
(0.106964 0.0633867 0)
(0.0193977 0.0110983 2.2481e-19)
(-0.00557978 -0.0033434 -1.30033e-19)
(0.230407 0.149886 8.62417e-20)
(1.07122 0.698792 -2.53533e-19)
(1.2715 0.836479 -7.81063e-20)
(1.2974 0.867197 0)
(1.25116 0.853333 -2.9974e-21)
(1.18153 0.824439 -7.71075e-20)
(1.1078 0.792135 1.85735e-19)
(1.03019 0.75584 3.60207e-19)
(0.948871 0.713283 4.79881e-19)
(0.865569 0.662011 -6.73945e-19)
(0.795003 0.608121 -7.66558e-19)
(0.748422 0.562276 6.90518e-19)
(0.717081 0.522873 0)
(0.670036 0.472808 -2.12941e-19)
(0.566002 0.387689 -5.05825e-19)
(0.405456 0.271496 -5.97356e-19)
(0.236675 0.155621 -7.03307e-19)
(0.100699 0.0650609 2.07088e-19)
(0.0181127 0.0113931 -1.20985e-19)
(-0.00519377 -0.00330997 5.80613e-22)
(0.230572 0.158518 0)
(1.06239 0.733804 0)
(1.25915 0.878192 4.88989e-21)
(1.283 0.909365 0)
(1.23606 0.894301 -3.312e-20)
(1.1662 0.863781 4.23304e-20)
(1.09195 0.829832 0)
(1.01333 0.791829 4.13091e-20)
(0.930371 0.747411 7.97619e-19)
(0.844652 0.69388 -1.5508e-18)
(0.771334 0.637216 0)
(0.72259 0.588419 -4.45013e-19)
(0.689518 0.545617 -6.04233e-21)
(0.64082 0.490534 -4.61393e-21)
(0.537444 0.399109 5.41469e-19)
(0.382228 0.277345 -1.53641e-22)
(0.221527 0.157613 -1.51611e-18)
(0.0926962 0.0648233 4.4576e-19)
(0.0157153 0.0107973 1.30996e-19)
(-0.00504984 -0.00338165 0)
(0.230902 0.167006 -3.40994e-19)
(1.05403 0.767176 -1.69551e-19)
(1.24688 0.917479 -2.2566e-19)
(1.26873 0.948997 2.30482e-19)
(1.22116 0.932813 -8.90654e-20)
(1.15115 0.900877 0)
(1.07647 0.865516 1.06404e-19)
(0.996929 0.826073 -9.33915e-20)
(0.912418 0.78011 7.78753e-21)
(0.824283 0.724687 1.14897e-19)
(0.748023 0.665532 9.92546e-19)
(0.69681 0.613771 -1.55861e-19)
(0.661718 0.567095 -5.94819e-19)
(0.611184 0.506085 -2.48345e-19)
(0.508374 0.407552 2.93942e-19)
(0.358258 0.280005 1.9311e-22)
(0.205094 0.156847 4.08328e-19)
(0.0836034 0.0627739 -9.59013e-19)
(0.0126664 0.00945803 1.12835e-18)
(-0.005049 -0.0035346 1.62002e-19)
(0.231124 0.17525 1.29208e-19)
(1.04615 0.798985 -9.52385e-20)
(1.2348 0.95444 1.22327e-20)
(1.25471 0.986228 1.4593e-19)
(1.2066 0.968981 3.23307e-20)
(1.1365 0.935801 -6.39938e-20)
(1.06149 0.899239 2.71387e-20)
(0.981122 0.858593 -3.8645e-19)
(0.895148 0.811382 -8.7362e-19)
(0.804601 0.754446 -9.21825e-19)
(0.725207 0.693161 0)
(0.671117 0.638473 -6.86839e-19)
(0.63357 0.587418 8.58381e-19)
(0.580881 0.519335 0)
(0.478718 0.412626 -6.29614e-19)
(0.334146 0.279009 3.73882e-19)
(0.188734 0.153166 -4.38971e-19)
(0.0746935 0.0592168 -5.1585e-19)
(0.0096556 0.00770282 -9.08588e-19)
(-0.00512816 -0.00373722 -6.97637e-19)
(0.231708 0.183366 -1.45143e-19)
(1.03857 0.829227 1.01752e-19)
(1.22299 0.98915 2.34306e-19)
(1.24102 1.02114 2.11903e-19)
(1.19247 1.0029 -6.05771e-20)
(1.12235 0.968641 -2.16585e-20)
(1.04709 0.931054 9.34372e-20)
(0.965998 0.889435 -3.92329e-19)
(0.878648 0.841254 -5.16208e-19)
(0.785728 0.783178 9.62649e-19)
(0.703014 0.720181 2.1792e-18)
(0.645579 0.662691 0)
(0.604967 0.606788 0)
(0.549533 0.530286 -2.85757e-19)
(0.448142 0.413881 0)
(0.310122 0.273487 8.03106e-19)
(0.173841 0.145765 9.43188e-19)
(0.0679751 0.0540728 0)
(0.00788378 0.00586024 0)
(-0.00520035 -0.00393218 7.49401e-19)
(0.231969 0.191054 1.64704e-19)
(1.03133 0.857894 1.36028e-19)
(1.21151 1.02173 1.69799e-19)
(1.22775 1.05385 -2.02682e-19)
(1.17885 1.03468 -7.86881e-20)
(1.10878 0.999476 3.67857e-21)
(1.03334 0.961021 -1.25242e-19)
(0.951625 0.918625 -1.10609e-21)
(0.863003 0.869731 -1.01007e-20)
(0.767763 0.810887 -9.07532e-21)
(0.681589 0.746647 1.12177e-18)
(0.620304 0.686587 0)
(0.575851 0.625489 8.70424e-19)
(0.516724 0.539134 6.09972e-19)
(0.415889 0.411105 1.46912e-18)
(0.285739 0.262136 4.32664e-19)
(0.16191 0.13191 -5.07226e-19)
(0.067824 0.0441454 -2.96838e-19)
(0.0134328 0.00266936 0)
(-0.00325458 -0.00346911 8.05186e-19)
(0.232542 0.198761 -3.69037e-19)
(1.02439 0.885074 0)
(1.20033 1.05223 1.98831e-19)
(1.21492 1.08443 -1.71192e-19)
(1.1658 1.06442 1.0563e-19)
(1.0958 1.02839 2.89172e-20)
(1.02029 0.989199 2.25713e-19)
(0.938042 0.9462 -3.30723e-20)
(0.848258 0.896825 0)
(0.750789 0.837549 -1.05654e-18)
(0.661072 0.772579 -2.43476e-18)
(0.595444 0.710326 1.01033e-19)
(0.546269 0.64384 1.2024e-18)
(0.482147 0.546329 0)
(0.38077 0.404735 9.91975e-19)
(0.258698 0.243865 0)
(0.150894 0.105643 0)
(0.0793422 0.0149339 -3.20867e-19)
(0.0482446 -0.012137 0)
(0.0266756 0.0100763 2.156e-19)
(0.232766 0.205877 -4.11748e-19)
(1.01771 0.911116 0)
(1.18947 1.08086 3.29582e-19)
(1.20249 1.11312 0)
(1.15326 1.09238 -6.36295e-20)
(1.08338 1.05568 0)
(1.00788 1.0159 8.16022e-21)
(0.925153 0.972496 5.30388e-20)
(0.834289 0.922896 6.43916e-20)
(0.734634 0.863547 -1.15353e-18)
(0.641272 0.79841 7.24332e-20)
(0.570747 0.734565 8.15013e-19)
(0.515781 0.662652 1.17209e-18)
(0.444885 0.552524 1.58586e-19)
(0.340831 0.39624 7.78092e-19)
(0.223936 0.219578 0)
(0.128679 0.0626214 1.06899e-18)
(0.07076 -0.0275976 -6.18488e-19)
(0.040621 0.0443247 7.1378e-19)
(-0.059588 0.436468 -8.46201e-19)
(0.232974 0.212804 3.40732e-19)
(1.01102 0.935791 5.37531e-19)
(1.17884 1.10794 0)
(1.19032 1.14037 9.657e-21)
(1.14105 1.11914 1.87023e-19)
(1.07123 1.08201 -1.27155e-19)
(0.995782 1.04192 6.77753e-20)
(0.912542 0.998448 0)
(0.82056 0.949029 4.18938e-19)
(0.718622 0.890183 -5.93593e-20)
(0.62127 0.825625 0)
(0.544941 0.761011 0)
(0.482386 0.683366 1.05216e-18)
(0.402512 0.558245 -4.91685e-19)
(0.292868 0.387545 -7.90333e-19)
(0.176699 0.192661 0)
(0.0748705 0.0726111 5.34914e-19)
(0.00547106 0.440002 -6.11161e-19)
(0.0311618 1.89695 -3.34291e-19)
(0.061906 2.81196 -4.42022e-19)
(0.232967 0.218983 -2.53974e-19)
(1.00442 0.959261 -6.87027e-19)
(1.16844 1.13345 1.94554e-19)
(1.17841 1.16605 1.63996e-19)
(1.12919 1.14449 0)
(1.05945 1.10711 -1.09857e-19)
(0.984206 1.06694 7.67857e-20)
(0.900404 1.02363 -2.47791e-20)
(0.807345 0.974709 6.2879e-20)
(0.703138 0.916853 1.09506e-18)
(0.601667 0.853576 1.22685e-18)
(0.51896 0.789341 9.14169e-19)
(0.446876 0.706043 1.06006e-18)
(0.356491 0.562525 -1.15791e-18)
(0.242621 0.382577 -1.19553e-18)
(0.11887 0.237427 0)
(0.0428214 0.835412 0)
(0.0974079 2.55561 2.92662e-19)
(0.100357 3.20343 0)
(0.103083 3.38858 6.40312e-19)
(0.235985 0.224744 0)
(0.998517 0.981806 0)
(1.15802 1.15724 0)
(1.16655 1.19001 4.91017e-20)
(1.11733 1.16815 1.70173e-19)
(1.04781 1.13084 -1.05503e-19)
(0.973048 1.09087 4.32496e-20)
(0.888682 1.04791 -2.36311e-20)
(0.794595 0.999784 5.12883e-19)
(0.688196 0.943407 -1.76153e-20)
(0.582594 0.882148 2.41878e-18)
(0.49312 0.819425 -1.05927e-19)
(0.409342 0.731641 1.28062e-19)
(0.309187 0.563334 1.68021e-19)
(0.181587 0.394899 -7.78113e-21)
(0.0979234 0.964941 3.56794e-21)
(0.137335 2.72805 -1.55892e-18)
(0.144557 3.29394 -5.75011e-19)
(0.134092 3.42561 2.86665e-19)
(0.122115 3.44749 -3.13593e-19)
(0.156073 0.177061 1.44148e-19)
(0.988048 1.00632 0)
(1.14726 1.17948 -3.77318e-19)
(1.15517 1.21267 -4.38641e-19)
(1.10621 1.19085 3.96759e-19)
(1.03717 1.15381 1.2064e-19)
(0.962203 1.11373 -3.59649e-20)
(0.877462 1.07142 2.36473e-19)
(0.782452 1.0244 -4.12775e-19)
(0.674073 0.970009 0)
(0.564439 0.911542 1.18075e-18)
(0.467944 0.851021 -7.44615e-19)
(0.371336 0.762974 0)
(0.253938 0.56191 1.51565e-19)
(0.141022 0.737997 3.68839e-19)
(0.152844 2.50416 -4.28462e-19)
(0.20783 3.3227 4.72065e-19)
(0.188939 3.4374 2.53018e-19)
(0.157034 3.45899 2.7711e-19)
(0.135925 3.4693 4.39524e-19)
(0.275872 0.262738 -2.55659e-19)
(0.971777 1.01589 0)
(1.12911 1.205 4.15383e-19)
(1.14029 1.24317 4.76358e-19)
(1.08891 1.224 -4.32354e-19)
(1.01914 1.18736 -1.64686e-19)
(0.943167 1.14888 -8.63937e-21)
(0.857925 1.10782 1.8963e-20)
(0.761601 1.06303 3.834e-19)
(0.650464 1.01266 9.26496e-19)
(0.535497 0.960734 6.58528e-20)
(0.428099 0.905283 6.59746e-19)
(0.30182 0.800682 1.18978e-19)
(0.211886 0.916755 -1.52866e-19)
(0.226558 2.35523 -3.40732e-19)
(0.286402 3.32497 3.14221e-19)
(0.269978 3.46512 -3.50507e-19)
(0.234725 3.48731 -2.02383e-19)
(0.198407 3.51486 -1.57321e-19)
(0.147838 3.50892 -1.52312e-20)
(0.264984 0.26028 0)
(0.969543 1.0388 1.19151e-19)
(1.12072 1.22854 -8.58274e-20)
(1.12969 1.2669 -5.67625e-20)
(1.07806 1.24721 -2.98691e-19)
(1.00823 1.21078 1.69629e-19)
(0.93196 1.17247 2.13202e-20)
(0.84651 1.13224 1.62668e-20)
(0.749637 1.08893 -3.93368e-19)
(0.637155 1.04146 -2.69831e-20)
(0.519268 0.994489 -2.12263e-18)
(0.406442 0.943024 9.446e-20)
(0.283375 0.866416 -1.11342e-19)
(0.252709 1.48297 -1.41216e-19)
(0.326731 3.10359 3.49647e-20)
(0.346035 3.46294 6.90201e-22)
(0.305454 3.5183 4.90331e-19)
(0.268636 3.5453 2.30091e-19)
(0.220348 3.56856 -4.01989e-20)
(0.163065 3.56462 -6.64186e-20)
(0.249381 0.258399 2.98978e-19)
(0.965839 1.06428 8.17162e-19)
(1.11192 1.25412 -2.46907e-19)
(1.11845 1.29198 -2.15123e-19)
(1.0666 1.2718 0)
(0.996897 1.2354 2.96951e-19)
(0.920614 1.19734 6.02593e-20)
(0.835229 1.1579 1.33415e-20)
(0.738128 1.11619 -4.43624e-20)
(0.624842 1.07188 -8.2034e-19)
(0.504917 1.03032 -9.71058e-19)
(0.388362 0.982441 -7.62504e-19)
(0.285878 0.996806 -8.46786e-19)
(0.322608 2.21055 8.69118e-19)
(0.41345 3.37461 6.99502e-19)
(0.390315 3.52004 0)
(0.344363 3.56479 0)
(0.306337 3.60502 -2.99167e-20)
(0.256523 3.66353 0)
(0.175563 3.64002 -1.28371e-20)
(0.239003 0.260322 -4.4901e-19)
(0.960044 1.09067 -6.95951e-19)
(1.10168 1.28091 0)
(1.10586 1.31779 1.14837e-20)
(1.05386 1.29699 -3.21703e-19)
(0.984455 1.26053 4.76779e-19)
(0.908489 1.22276 5.59639e-20)
(0.823381 1.18402 3.69333e-21)