0.490941 	1.73228 	0.00547595 	3.00064 	-5.35129e-20
0.561075 	1.73228 	0.00547595 	3.00064 	-5.35129e-20
0.63121 	1.73228 	0.00547595 	3.00064 	-5.35129e-20
0.701344 	1.73228 	0.00547595 	3.00064 	-5.35129e-20
0.771478 	1.73228 	0.00547595 	3.00064 	-5.35129e-20
0.841613 	1.73228 	0.00547595 	3.00064 	-5.35129e-20
0.911747 	1.73228 	0.00547595 	3.00064 	-5.35129e-20
0.981881 	1.73228 	0.00547595 	3.00064 	-5.35129e-20
1.05202 	1.73228 	0.00547595 	3.00064 	-5.35129e-20
1.12215 	1.73228 	0.00547595 	3.00064 	-5.35129e-20
1.19228 	1.73228 	0.00547595 	3.00064 	-5.35129e-20
1.26242 	1.73228 	0.00547595 	3.00064 	-5.35129e-20
1.33255 	1.69288 	0.0144242 	3.01428 	-5.47937e-20
1.40269 	1.69288 	0.0144242 	3.01428 	-5.47937e-20
1.47282 	1.69288 	0.0144242 	3.01428 	-5.47937e-20
1.54296 	1.69288 	0.0144242 	3.01428 	-5.47937e-20
1.61309 	1.69288 	0.0144242 	3.01428 	-5.47937e-20
1.68323 	1.69288 	0.0144242 	3.01428 	-5.47937e-20
1.75336 	1.69288 	0.0144242 	3.01428 	-5.47937e-20
1.82349 	1.69288 	0.0144242 	3.01428 	-5.47937e-20
1.89363 	1.69288 	0.0144242 	3.01428 	-5.47937e-20
1.96376 	1.69288 	0.0144242 	3.01428 	-5.47937e-20
2.0339 	1.69288 	0.0144242 	3.01428 	-5.47937e-20
2.10403 	1.69288 	0.0144242 	3.01428 	-5.47937e-20
2.17417 	1.63213 	0.0138508 	3.03202 	1.14181e-19
2.2443 	1.63213 	0.0138508 	3.03202 	1.14181e-19
2.31443 	1.63213 	0.0138508 	3.03202 	1.14181e-19
2.38457 	1.63213 	0.0138508 	3.03202 	1.14181e-19
2.4547 	1.63213 	0.0138508 	3.03202 	1.14181e-19
2.52484 	1.63213 	0.0138508 	3.03202 	1.14181e-19
2.59497 	1.63213 	0.0138508 	3.03202 	1.14181e-19
2.66511 	1.63213 	0.0138508 	3.03202 	1.14181e-19
2.73524 	1.63213 	0.0138508 	3.03202 	1.14181e-19
2.80538 	1.63213 	0.0138508 	3.03202 	1.14181e-19
2.87551 	1.63213 	0.0138508 	3.03202 	1.14181e-19
2.94564 	1.63213 	0.0138508 	3.03202 	1.14181e-19
3.01578 	1.55817 	0.0167666 	3.05874 	-1.32691e-20
3.08591 	1.55817 	0.0167666 	3.05874 	-1.32691e-20
3.15605 	1.55817 	0.0167666 	3.05874 	-1.32691e-20
3.22618 	1.55817 	0.0167666 	3.05874 	-1.32691e-20
3.29632 	1.55817 	0.0167666 	3.05874 	-1.32691e-20
3.36645 	1.55817 	0.0167666 	3.05874 	-1.32691e-20
3.43659 	1.55817 	0.0167666 	3.05874 	-1.32691e-20
3.50672 	1.55817 	0.0167666 	3.05874 	-1.32691e-20
3.57685 	1.55817 	0.0167666 	3.05874 	-1.32691e-20
3.64699 	1.55817 	0.0167666 	3.05874 	-1.32691e-20
3.71712 	1.55817 	0.0167666 	3.05874 	-1.32691e-20
3.78726 	1.55097 	0.00712902 	3.05557 	2.59943e-20
3.85739 	1.47198 	-0.000764713 	3.08414 	-1.91591e-19
3.92753 	1.47198 	-0.000764713 	3.08414 	-1.91591e-19
3.99766 	1.47198 	-0.000764713 	3.08414 	-1.91591e-19
4.06779 	1.47198 	-0.000764713 	3.08414 	-1.91591e-19
4.13793 	1.47198 	-0.000764713 	3.08414 	-1.91591e-19
4.20806 	1.47198 	-0.000764713 	3.08414 	-1.91591e-19
4.2782 	1.47198 	-0.000764713 	3.08414 	-1.91591e-19
4.34833 	1.47198 	-0.000764713 	3.08414 	-1.91591e-19
4.41847 	1.47198 	-0.000764713 	3.08414 	-1.91591e-19
4.4886 	1.47198 	-0.000764713 	3.08414 	-1.91591e-19
4.55874 	1.47198 	-0.000764713 	3.08414 	-1.91591e-19
4.62887 	1.47198 	-0.000764713 	3.08414 	-1.91591e-19
4.699 	1.47198 	-0.000764713 	3.08414 	-1.91591e-19
4.76914 	1.3933 	0.00557394 	3.10669 	3.72829e-19
4.83927 	1.3933 	0.00557394 	3.10669 	3.72829e-19
4.90941 	1.3933 	0.00557394 	3.10669 	3.72829e-19
4.97954 	1.3933 	0.00557394 	3.10669 	3.72829e-19
5.04968 	1.3933 	0.00557394 	3.10669 	3.72829e-19
5.11981 	1.3933 	0.00557394 	3.10669 	3.72829e-19
5.18994 	1.3933 	0.00557394 	3.10669 	3.72829e-19
5.26008 	1.3933 	0.00557394 	3.10669 	3.72829e-19
5.33021 	1.3933 	0.00557394 	3.10669 	3.72829e-19
5.40035 	1.3933 	0.00557394 	3.10669 	3.72829e-19
5.47048 	1.3933 	0.00557394 	3.10669 	3.72829e-19
5.54062 	1.3933 	0.00557394 	3.10669 	3.72829e-19
5.61075 	1.31872 	-0.00209584 	3.13353 	-1.81011e-19
5.68089 	1.31872 	-0.00209584 	3.13353 	-1.81011e-19
5.75102 	1.31872 	-0.00209584 	3.13353 	-1.81011e-19
5.82115 	1.31872 	-0.00209584 	3.13353 	-1.81011e-19
5.89129 	1.31872 	-0.00209584 	3.13353 	-1.81011e-19
5.96142 	1.31872 	-0.00209584 	3.13353 	-1.81011e-19
6.03156 	1.31872 	-0.00209584 	3.13353 	-1.81011e-19
6.10169 	1.31872 	-0.00209584 	3.13353 	-1.81011e-19
6.17183 	1.31872 	-0.00209584 	3.13353 	-1.81011e-19
6.24196 	1.31872 	-0.00209584 	3.13353 	-1.81011e-19
6.3121 	1.31872 	-0.00209584 	3.13353 	-1.81011e-19
6.38223 	1.31872 	-0.00209584 	3.13353 	-1.81011e-19
6.45236 	1.24754 	0.00527754 	3.15329 	0
6.5225 	1.24754 	0.00527754 	3.15329 	0
6.59263 	1.24754 	0.00527754 	3.15329 	0
6.66277 	1.24754 	0.00527754 	3.15329 	0
6.7329 	1.24754 	0.00527754 	3.15329 	0
6.80304 	1.24754 	0.00527754 	3.15329 	0
6.87317 	1.24754 	0.00527754 	3.15329 	0
6.9433 	1.24754 	0.00527754 	3.15329 	0
7.01344 	1.24754 	0.00527754 	3.15329 	0
7.08357 	1.24754 	0.00527754 	3.15329 	0
7.15371 	1.24754 	0.00527754 	3.15329 	0
7.22384 	1.24754 	0.00527754 	3.15329 	0
7.29398 	1.17959 	-0.0013469 	3.17778 	0
7.36411 	1.17959 	-0.0013469 	3.17778 	0
7.43425 	1.17959 	-0.0013469 	3.17778 	0
7.50438 	1.17959 	-0.0013469 	3.17778 	0
7.57451 	1.17959 	-0.0013469 	3.17778 	0
7.64465 	1.17959 	-0.0013469 	3.17778 	0
7.71478 	1.17959 	-0.0013469 	3.17778 	0
7.78492 	1.17959 	-0.0013469 	3.17778 	0
7.85505 	1.17959 	-0.0013469 	3.17778 	0
7.92519 	1.17959 	-0.0013469 	3.17778 	0
7.99532 	1.17959 	-0.0013469 	3.17778 	0
8.06545 	1.17959 	-0.0013469 	3.17778 	0
8.13559 	1.17959 	-0.0013469 	3.17778 	0
8.20572 	1.11242 	0.00751708 	3.19596 	3.66141e-22
8.27586 	1.11242 	0.00751708 	3.19596 	3.66141e-22
8.34599 	1.11242 	0.00751708 	3.19596 	3.66141e-22
8.41613 	1.11242 	0.00751708 	3.19596 	3.66141e-22
8.48626 	1.11242 	0.00751708 	3.19596 	3.66141e-22
8.5564 	1.11242 	0.00751708 	3.19596 	3.66141e-22
8.62653 	1.11242 	0.00751708 	3.19596 	3.66141e-22
8.69666 	1.11242 	0.00751708 	3.19596 	3.66141e-22
8.7668 	1.11242 	0.00751708 	3.19596 	3.66141e-22
8.83693 	1.11242 	0.00751708 	3.19596 	3.66141e-22
8.90707 	1.11242 	0.00751708 	3.19596 	3.66141e-22
8.9772 	1.11242 	0.00751708 	3.19596 	3.66141e-22
9.04734 	1.04592 	0.00322916 	3.21974 	2.70246e-19
9.11747 	1.04592 	0.00322916 	3.21974 	2.70246e-19
9.18761 	1.04592 	0.00322916 	3.21974 	2.70246e-19
9.25774 	1.04592 	0.00322916 	3.21974 	2.70246e-19
9.32787 	1.04592 	0.00322916 	3.21974 	2.70246e-19
9.39801 	1.04592 	0.00322916 	3.21974 	2.70246e-19
9.46814 	1.04592 	0.00322916 	3.21974 	2.70246e-19
9.53828 	1.04592 	0.00322916 	3.21974 	2.70246e-19
9.60841 	1.04592 	0.00322916 	3.21974 	2.70246e-19
9.67855 	1.04592 	0.00322916 	3.21974 	2.70246e-19
9.74868 	1.04592 	0.00322916 	3.21974 	2.70246e-19
9.81881 	1.04592 	0.00322916 	3.21974 	2.70246e-19
9.88895 	1.04592 	0.00322916 	3.21974 	2.70246e-19
9.95908 	0.978602 	0.0168238 	3.23772 	-2.06486e-21
10.0292 	0.978602 	0.0168238 	3.23772 	-2.06486e-21
10.0994 	0.978602 	0.0168238 	3.23772 	-2.06486e-21
10.1695 	0.978602 	0.0168238 	3.23772 	-2.06486e-21
10.2396 	0.978602 	0.0168238 	3.23772 	-2.06486e-21
10.3098 	0.978602 	0.0168238 	3.23772 	-2.06486e-21
10.3799 	0.978602 	0.0168238 	3.23772 	-2.06486e-21
10.45 	0.978602 	0.0168238 	3.23772 	-2.06486e-21
10.5202 	0.978602 	0.0168238 	3.23772 	-2.06486e-21
10.5903 	0.978602 	0.0168238 	3.23772 	-2.06486e-21
10.6604 	0.978602 	0.0168238 	3.23772 	-2.06486e-21
10.7306 	0.978602 	0.0168238 	3.23772 	-2.06486e-21
10.8007 	0.910713 	0.0221423 	3.26157 	-2.65975e-19
10.8708 	0.910713 	0.0221423 	3.26157 	-2.65975e-19
10.941 	0.910713 	0.0221423 	3.26157 	-2.65975e-19
11.0111 	0.910713 	0.0221423 	3.26157 	-2.65975e-19
11.0812 	0.910713 	0.0221423 	3.26157 	-2.65975e-19
11.1514 	0.910713 	0.0221423 	3.26157 	-2.65975e-19
11.2215 	0.910713 	0.0221423 	3.26157 	-2.65975e-19
11.2916 	0.910713 	0.0221423 	3.26157 	-2.65975e-19
11.3618 	0.910713 	0.0221423 	3.26157 	-2.65975e-19
11.4319 	0.910713 	0.0221423 	3.26157 	-2.65975e-19
11.502 	0.910713 	0.0221423 	3.26157 	-2.65975e-19
11.5722 	0.910713 	0.0221423 	3.26157 	-2.65975e-19
11.6423 	0.910713 	0.0221423 	3.26157 	-2.65975e-19
11.7124 	0.837698 	0.0524011 	3.28157 	-4.10553e-19
11.7826 	0.837698 	0.0524011 	3.28157 	-4.10553e-19
11.8527 	0.837698 	0.0524011 	3.28157 	-4.10553e-19
11.9228 	0.837698 	0.0524011 	3.28157 	-4.10553e-19
11.993 	0.837698 	0.0524011 	3.28157 	-4.10553e-19
12.0631 	0.837698 	0.0524011 	3.28157 	-4.10553e-19
12.1332 	0.837698 	0.0524011 	3.28157 	-4.10553e-19
12.2034 	0.837698 	0.0524011 	3.28157 	-4.10553e-19
12.2735 	0.837698 	0.0524011 	3.28157 	-4.10553e-19
12.3437 	0.837698 	0.0524011 	3.28157 	-4.10553e-19
12.4138 	0.837698 	0.0524011 	3.28157 	-4.10553e-19
12.4839 	0.837698 	0.0524011 	3.28157 	-4.10553e-19
12.5541 	0.837698 	0.0524011 	3.28157 	-4.10553e-19
12.6242 	0.755879 	0.0776261 	3.30765 	7.89266e-19
12.6943 	0.755879 	0.0776261 	3.30765 	7.89266e-19
12.7645 	0.755879 	0.0776261 	3.30765 	7.89266e-19
12.8346 	0.755879 	0.0776261 	3.30765 	7.89266e-19
12.9047 	0.755879 	0.0776261 	3.30765 	7.89266e-19
12.9749 	0.755879 	0.0776261 	3.30765 	7.89266e-19
13.045 	0.755879 	0.0776261 	3.30765 	7.89266e-19
13.1151 	0.755879 	0.0776261 	3.30765 	7.89266e-19
13.1853 	0.755879 	0.0776261 	3.30765 	7.89266e-19
13.2554 	0.755879 	0.0776261 	3.30765 	7.89266e-19
13.3255 	0.755879 	0.0776261 	3.30765 	7.89266e-19
13.3957 	0.755879 	0.0776261 	3.30765 	7.89266e-19
13.4658 	0.755879 	0.0776261 	3.30765 	7.89266e-19
13.5359 	0.651456 	0.151618 	3.34209 	-3.80388e-19
13.6061 	0.651456 	0.151618 	3.34209 	-3.80388e-19
13.6762 	0.651456 	0.151618 	3.34209 	-3.80388e-19
13.7463 	0.651456 	0.151618 	3.34209 	-3.80388e-19
13.8165 	0.651456 	0.151618 	3.34209 	-3.80388e-19
13.8866 	0.651456 	0.151618 	3.34209 	-3.80388e-19
13.9567 	0.651456 	0.151618 	3.34209 	-3.80388e-19
14.0269 	0.651456 	0.151618 	3.34209 	-3.80388e-19
14.097 	0.651456 	0.151618 	3.34209 	-3.80388e-19
14.1671 	0.651456 	0.151618 	3.34209 	-3.80388e-19
14.2373 	0.651456 	0.151618 	3.34209 	-3.80388e-19
14.3074 	0.651456 	0.151618 	3.34209 	-3.80388e-19
14.3776 	0.553372 	0.175709 	3.36163 	0
14.4477 	0.351859 	0.174299 	3.41985 	3.52668e-19
14.5178 	0.351859 	0.174299 	3.41985 	3.52668e-19
14.588 	0.351859 	0.174299 	3.41985 	3.52668e-19
14.6581 	0.351859 	0.174299 	3.41985 	3.52668e-19
14.7282 	0.351859 	0.174299 	3.41985 	3.52668e-19
14.7984 	0.351859 	0.174299 	3.41985 	3.52668e-19
14.8685 	0.378427 	0.199078 	3.41032 	-7.10988e-19
14.9386 	0.378427 	0.199078 	3.41032 	-7.10988e-19
15.0088 	0.378427 	0.199078 	3.41032 	-7.10988e-19
15.0789 	0.378427 	0.199078 	3.41032 	-7.10988e-19
15.149 	0.378427 	0.199078 	3.41032 	-7.10988e-19
15.2192 	0.14065 	0.26351 	3.47693 	3.4048e-19
15.2893 	0.14065 	0.26351 	3.47693 	3.4048e-19
15.3594 	0.14065 	0.26351 	3.47693 	3.4048e-19
15.4296 	0.2693 	0.33298 	3.4322 	4.99094e-20
15.4997 	0.2693 	0.33298 	3.4322 	4.99094e-20
15.5698 	0.2693 	0.33298 	3.4322 	4.99094e-20
15.64 	0.2693 	0.33298 	3.4322 	4.99094e-20
15.7101 	0.2693 	0.33298 	3.4322 	4.99094e-20
15.7802 	0.2693 	0.33298 	3.4322 	4.99094e-20
15.8504 	0.2693 	0.33298 	3.4322 	4.99094e-20
15.9205 	0.0148385 	0.336634 	3.53162 	9.18944e-20
15.9906 	0.0148385 	0.336634 	3.53162 	9.18944e-20
16.0608 	0.0148385 	0.336634 	3.53162 	9.18944e-20
16.1309 	0.226844 	0.422142 	3.44336 	2.03744e-19
16.201 	0.226844 	0.422142 	3.44336 	2.03744e-19
16.2712 	0.226844 	0.422142 	3.44336 	2.03744e-19
16.3413 	0.226844 	0.422142 	3.44336 	2.03744e-19
16.4114 	0.226844 	0.422142 	3.44336 	2.03744e-19
16.4816 	0.226844 	0.422142 	3.44336 	2.03744e-19
16.5517 	0.226844 	0.422142 	3.44336 	2.03744e-19
16.6219 	0.0427408 	0.52134 	3.51991 	0
16.692 	0.0427408 	0.52134 	3.51991 	0
16.7621 	0.0427408 	0.52134 	3.51991 	0
16.8323 	0.0427408 	0.52134 	3.51991 	0
16.9024 	0.0427408 	0.52134 	3.51991 	0
16.9725 	0.27357 	0.529176 	3.4236 	1.90947e-19
17.0427 	0.27357 	0.529176 	3.4236 	1.90947e-19
17.1128 	0.27357 	0.529176 	3.4236 	1.90947e-19
17.1829 	0.27357 	0.529176 	3.4236 	1.90947e-19
17.2531 	0.122767 	0.612759 	3.47524 	1.35682e-19
17.3232 	0.122767 	0.612759 	3.47524 	1.35682e-19
17.3933 	0.122767 	0.612759 	3.47524 	1.35682e-19
17.4635 	0.122767 	0.612759 	3.47524 	1.35682e-19
17.5336 	0.122767 	0.612759 	3.47524 	1.35682e-19
17.6037 	0.122767 	0.612759 	3.47524 	1.35682e-19
17.6739 	0.122767 	0.612759 	3.47524 	1.35682e-19
17.744 	0.122767 	0.612759 	3.47524 	1.35682e-19
17.8141 	0.122767 	0.612759 	3.47524 	1.35682e-19
17.8843 	0.122767 	0.612759 	3.47524 	1.35682e-19
17.9544 	0.199641 	0.628598 	3.39541 	0
18.0245 	0.199641 	0.628598 	3.39541 	0
18.0947 	0.199641 	0.628598 	3.39541 	0
18.1648 	0.199641 	0.628598 	3.39541 	0
18.2349 	0.199641 	0.628598 	3.39541 	0
18.3051 	0.199641 	0.628598 	3.39541 	0
18.3752 	0.199641 	0.628598 	3.39541 	0
18.4453 	0.199641 	0.628598 	3.39541 	0
18.5155 	0.199641 	0.628598 	3.39541 	0
18.5856 	0.106403 	0.719029 	3.43753 	0
18.6557 	0.106403 	0.719029 	3.43753 	0
18.7259 	0.106403 	0.719029 	3.43753 	0
18.796 	0.106403 	0.719029 	3.43753 	0
18.8662 	0.106403 	0.719029 	3.43753 	0
18.9363 	0.106403 	0.719029 	3.43753 	0
19.0064 	0.106403 	0.719029 	3.43753 	0
19.0766 	0.106403 	0.719029 	3.43753 	0
19.1467 	0.106403 	0.719029 	3.43753 	0
19.2168 	0.057034 	0.765472 	3.41908 	3.07272e-20
19.287 	0.283844 	0.692364 	3.21778 	-5.42857e-20
19.3571 	0.283844 	0.692364 	3.21778 	-5.42857e-20
19.4272 	0.283844 	0.692364 	3.21778 	-5.42857e-20
19.4974 	0.283844 	0.692364 	3.21778 	-5.42857e-20
19.5675 	0.283844 	0.692364 	3.21778 	-5.42857e-20
19.6376 	0.283844 	0.692364 	3.21778 	-5.42857e-20
19.7078 	0.283844 	0.692364 	3.21778 	-5.42857e-20
19.7779 	0.283844 	0.692364 	3.21778 	-5.42857e-20
19.848 	0.283844 	0.692364 	3.21778 	-5.42857e-20
19.9182 	0.231139 	0.752534 	3.2897 	-2.10365e-19
19.9883 	0.231139 	0.752534 	3.2897 	-2.10365e-19
20.0584 	0.231139 	0.752534 	3.2897 	-2.10365e-19
20.1286 	0.231139 	0.752534 	3.2897 	-2.10365e-19
20.1987 	0.231139 	0.752534 	3.2897 	-2.10365e-19
20.2688 	0.231139 	0.752534 	3.2897 	-2.10365e-19
20.339 	0.231139 	0.752534 	3.2897 	-2.10365e-19
20.4091 	0.231139 	0.752534 	3.2897 	-2.10365e-19
20.4792 	0.231139 	0.752534 	3.2897 	-2.10365e-19
20.5494 	0.231139 	0.752534 	3.2897 	-2.10365e-19
20.6195 	0.17103 	0.805493 	3.3216 	1.49358e-20
20.6896 	0.17103 	0.805493 	3.3216 	1.49358e-20
20.7598 	0.17103 	0.805493 	3.3216 	1.49358e-20
20.8299 	0.17103 	0.805493 	3.3216 	1.49358e-20
20.9 	0.254051 	0.698828 	2.7656 	-2.92944e-19
20.9702 	0.254051 	0.698828 	2.7656 	-2.92944e-19
21.0403 	0.254051 	0.698828 	2.7656 	-2.92944e-19
21.1105 	0.254051 	0.698828 	2.7656 	-2.92944e-19
21.1806 	0.254051 	0.698828 	2.7656 	-2.92944e-19
21.2507 	0.254051 	0.698828 	2.7656 	-2.92944e-19
21.3209 	0.213218 	0.750279 	2.95047 	0
21.391 	0.213218 	0.750279 	2.95047 	0
21.4611 	0.213218 	0.750279 	2.95047 	0
21.5313 	0.213218 	0.750279 	2.95047 	0
21.6014 	0.213218 	0.750279 	2.95047 	0
21.6715 	0.213218 	0.750279 	2.95047 	0
21.7417 	0.213218 	0.750279 	2.95047 	0
21.8118 	0.213218 	0.750279 	2.95047 	0
21.8819 	0.213218 	0.750279 	2.95047 	0
21.9521 	0.213218 	0.750279 	2.95047 	0
22.0222 	0.213218 	0.750279 	2.95047 	0
22.0923 	0.170825 	0.800067 	3.07333 	-1.10574e-19
22.1625 	0.170825 	0.800067 	3.07333 	-1.10574e-19
22.2326 	0.170825 	0.800067 	3.07333 	-1.10574e-19
22.3027 	0.170825 	0.800067 	3.07333 	-1.10574e-19
22.3729 	0.170825 	0.800067 	3.07333 	-1.10574e-19
22.443 	0.170825 	0.800067 	3.07333 	-1.10574e-19
22.5131 	0.170825 	0.800067 	3.07333 	-1.10574e-19
22.5833 	0.170825 	0.800067 	3.07333 	-1.10574e-19
22.6534 	0.170825 	0.800067 	3.07333 	-1.10574e-19
22.7235 	0.170825 	0.800067 	3.07333 	-1.10574e-19
22.7937 	0.170825 	0.800067 	3.07333 	-1.10574e-19
22.8638 	0.119949 	0.841081 	3.14326 	1.73118e-19
22.9339 	0.119949 	0.841081 	3.14326 	1.73118e-19
23.0041 	0.119949 	0.841081 	3.14326 	1.73118e-19
23.0742 	0.131271 	0.683653 	2.26182 	7.14459e-20
23.1443 	0.131271 	0.683653 	2.26182 	7.14459e-20
23.2145 	0.131271 	0.683653 	2.26182 	7.14459e-20
23.2846 	0.131271 	0.683653 	2.26182 	7.14459e-20
23.3548 	0.131271 	0.683653 	2.26182 	7.14459e-20
23.4249 	0.131271 	0.683653 	2.26182 	7.14459e-20
23.495 	0.131271 	0.683653 	2.26182 	7.14459e-20
23.5652 	0.131271 	0.683653 	2.26182 	7.14459e-20
23.6353 	0.131271 	0.683653 	2.26182 	7.14459e-20
23.7054 	0.083566 	0.728093 	2.43958 	-3.29336e-21
23.7756 	0.083566 	0.728093 	2.43958 	-3.29336e-21
23.8457 	0.083566 	0.728093 	2.43958 	-3.29336e-21
23.9158 	0.083566 	0.728093 	2.43958 	-3.29336e-21
23.986 	0.083566 	0.728093 	2.43958 	-3.29336e-21
24.0561 	0.083566 	0.728093 	2.43958 	-3.29336e-21
24.1262 	0.083566 	0.728093 	2.43958 	-3.29336e-21
24.1964 	0.083566 	0.728093 	2.43958 	-3.29336e-21
24.2665 	0.083566 	0.728093 	2.43958 	-3.29336e-21
24.3366 	0.083566 	0.728093 	2.43958 	-3.29336e-21
24.4068 	0.083566 	0.728093 	2.43958 	-3.29336e-21
24.4769 	0.083566 	0.728093 	2.43958 	-3.29336e-21
24.547 	0.083566 	0.728093 	2.43958 	-3.29336e-21
24.6172 	0.0394849 	0.766642 	2.59558 	4.82024e-20
24.6873 	0.0394849 	0.766642 	2.59558 	4.82024e-20
24.7574 	0.0394849 	0.766642 	2.59558 	4.82024e-20
24.8276 	0.0394849 	0.766642 	2.59558 	4.82024e-20
24.8977 	0.0394849 	0.766642 	2.59558 	4.82024e-20
24.9678 	0.0394849 	0.766642 	2.59558 	4.82024e-20
25.038 	0.0394849 	0.766642 	2.59558 	4.82024e-20
25.1081 	0.0394849 	0.766642 	2.59558 	4.82024e-20
25.1782 	0.0394849 	0.766642 	2.59558 	4.82024e-20
25.2484 	0.0394849 	0.766642 	2.59558 	4.82024e-20
25.3185 	0.0394849 	0.766642 	2.59558 	4.82024e-20
25.3886 	0.0394849 	0.766642 	2.59558 	4.82024e-20
25.4588 	-0.00209358 	0.806932 	2.71473 	-4.62336e-21
25.5289 	-0.00209358 	0.806932 	2.71473 	-4.62336e-21
25.5991 	-0.00209358 	0.806932 	2.71473 	-4.62336e-21
25.6692 	-0.00209358 	0.806932 	2.71473 	-4.62336e-21
25.7393 	-0.00209358 	0.806932 	2.71473 	-4.62336e-21
25.8095 	-0.00209358 	0.806932 	2.71473 	-4.62336e-21
25.8796 	-0.00209358 	0.806932 	2.71473 	-4.62336e-21
25.9497 	-0.00209358 	0.806932 	2.71473 	-4.62336e-21
26.0199 	-0.00209358 	0.806932 	2.71473 	-4.62336e-21
26.09 	-0.00171605 	0.609483 	1.76158 	-1.23002e-20
26.1601 	-0.00171605 	0.609483 	1.76158 	-1.23002e-20
26.2303 	-0.00171605 	0.609483 	1.76158 	-1.23002e-20
26.3004 	-0.00171605 	0.609483 	1.76158 	-1.23002e-20
26.3705 	-0.00171605 	0.609483 	1.76158 	-1.23002e-20
26.4407 	-0.0463625 	0.623543 	1.84377 	-1.96879e-20
26.5108 	-0.0463625 	0.623543 	1.84377 	-1.96879e-20
26.5809 	-0.0463625 	0.623543 	1.84377 	-1.96879e-20
26.6511 	-0.0463625 	0.623543 	1.84377 	-1.96879e-20
26.7212 	-0.0463625 	0.623543 	1.84377 	-1.96879e-20
26.7913 	-0.0463625 	0.623543 	1.84377 	-1.96879e-20
26.8615 	-0.0463625 	0.623543 	1.84377 	-1.96879e-20
26.9316 	-0.0463625 	0.623543 	1.84377 	-1.96879e-20
27.0017 	-0.0463625 	0.623543 	1.84377 	-1.96879e-20
27.0719 	-0.0463625 	0.623543 	1.84377 	-1.96879e-20
27.142 	-0.0463625 	0.623543 	1.84377 	-1.96879e-20
27.2121 	-0.0463625 	0.623543 	1.84377 	-1.96879e-20
27.2823 	-0.0463625 	0.623543 	1.84377 	-1.96879e-20
27.3524 	-0.0894416 	0.63394 	1.91007 	0
27.4225 	-0.0894416 	0.63394 	1.91007 	0
27.4927 	-0.0894416 	0.63394 	1.91007 	0
27.5628 	-0.0894416 	0.63394 	1.91007 	0
27.6329 	-0.0894416 	0.63394 	1.91007 	0
27.7031 	-0.0894416 	0.63394 	1.91007 	0
27.7732 	-0.0894416 	0.63394 	1.91007 	0
27.8434 	-0.0894416 	0.63394 	1.91007 	0
27.9135 	-0.0894416 	0.63394 	1.91007 	0
27.9836 	-0.0894416 	0.63394 	1.91007 	0
28.0538 	-0.0894416 	0.63394 	1.91007 	0
28.1239 	-0.0894416 	0.63394 	1.91007 	0
28.194 	-0.0894416 	0.63394 	1.91007 	0
28.2642 	-0.0894416 	0.63394 	1.91007 	0
28.3343 	-0.0894416 	0.63394 	1.91007 	0
28.4044 	-0.129021 	0.640524 	1.96758 	0
28.4746 	-0.129021 	0.640524 	1.96758 	0
28.5447 	-0.129021 	0.640524 	1.96758 	0
28.6148 	-0.129021 	0.640524 	1.96758 	0
28.685 	-0.129021 	0.640524 	1.96758 	0
28.7551 	-0.129021 	0.640524 	1.96758 	0
28.8252 	-0.129021 	0.640524 	1.96758 	0
28.8954 	-0.129021 	0.640524 	1.96758 	0
28.9655 	-0.129021 	0.640524 	1.96758 	0
29.0356 	-0.129021 	0.640524 	1.96758 	0
29.1058 	-0.129021 	0.640524 	1.96758 	0
29.1759 	-0.129021 	0.640524 	1.96758 	0
29.246 	-0.129021 	0.640524 	1.96758 	0
29.3162 	-0.129021 	0.640524 	1.96758 	0
29.3863 	-0.129021 	0.640524 	1.96758 	0
29.4564 	-0.163589 	0.639328 	1.98988 	-7.50546e-20
29.5266 	-0.163589 	0.639328 	1.98988 	-7.50546e-20
29.5967 	-0.163589 	0.639328 	1.98988 	-7.50546e-20
29.6668 	-0.163589 	0.639328 	1.98988 	-7.50546e-20
29.737 	-0.163589 	0.639328 	1.98988 	-7.50546e-20
29.8071 	-0.163589 	0.639328 	1.98988 	-7.50546e-20
29.8773 	-0.163589 	0.639328 	1.98988 	-7.50546e-20
29.9474 	-0.163589 	0.639328 	1.98988 	-7.50546e-20
30.0175 	-0.163589 	0.639328 	1.98988 	-7.50546e-20
30.0877 	-0.163589 	0.639328 	1.98988 	-7.50546e-20
30.1578 	-0.163589 	0.639328 	1.98988 	-7.50546e-20
30.2279 	-0.163589 	0.639328 	1.98988 	-7.50546e-20
30.2981 	-0.163589 	0.639328 	1.98988 	-7.50546e-20
30.3682 	-0.163589 	0.639328 	1.98988 	-7.50546e-20
30.4383 	-0.163589 	0.639328 	1.98988 	-7.50546e-20
30.5085 	-0.163589 	0.639328 	1.98988 	-7.50546e-20
30.5786 	-0.192111 	0.629619 	1.98723 	-4.55652e-21
30.6487 	-0.192111 	0.629619 	1.98723 	-4.55652e-21
30.7189 	-0.192111 	0.629619 	1.98723 	-4.55652e-21
30.789 	-0.192111 	0.629619 	1.98723 	-4.55652e-21
30.8591 	-0.192111 	0.629619 	1.98723 	-4.55652e-21
30.9293 	-0.192111 	0.629619 	1.98723 	-4.55652e-21
30.9994 	-0.192111 	0.629619 	1.98723 	-4.55652e-21
31.0695 	-0.192111 	0.629619 	1.98723 	-4.55652e-21
31.1397 	-0.192111 	0.629619 	1.98723 	-4.55652e-21
31.2098 	-0.192111 	0.629619 	1.98723 	-4.55652e-21
31.2799 	-0.192111 	0.629619 	1.98723 	-4.55652e-21
31.3501 	-0.192111 	0.629619 	1.98723 	-4.55652e-21
31.4202 	-0.192111 	0.629619 	1.98723 	-4.55652e-21
31.4903 	-0.192111 	0.629619 	1.98723 	-4.55652e-21
31.5605 	-0.239226 	0.517306 	1.64358 	-1.48489e-19
31.6306 	-0.239226 	0.517306 	1.64358 	-1.48489e-19
31.7007 	-0.250904 	0.502792 	1.6492 	9.24461e-20
31.7709 	-0.250904 	0.502792 	1.6492 	9.24461e-20
31.841 	-0.250904 	0.502792 	1.6492 	9.24461e-20
31.9111 	-0.250904 	0.502792 	1.6492 	9.24461e-20
31.9813 	-0.250904 	0.502792 	1.6492 	9.24461e-20
32.0514 	-0.250904 	0.502792 	1.6492 	9.24461e-20
32.1216 	-0.250904 	0.502792 	1.6492 	9.24461e-20
32.1917 	-0.250904 	0.502792 	1.6492 	9.24461e-20
32.2618 	-0.250904 	0.502792 	1.6492 	9.24461e-20
32.332 	-0.250904 	0.502792 	1.6492 	9.24461e-20
32.4021 	-0.250904 	0.502792 	1.6492 	9.24461e-20
32.4722 	-0.250904 	0.502792 	1.6492 	9.24461e-20
32.5424 	-0.250904 	0.502792 	1.6492 	9.24461e-20
32.6125 	-0.250904 	0.502792 	1.6492 	9.24461e-20
32.6826 	-0.250904 	0.502792 	1.6492 	9.24461e-20
32.7528 	-0.250904 	0.502792 	1.6492 	9.24461e-20
32.8229 	-0.250904 	0.502792 	1.6492 	9.24461e-20
32.893 	-0.250904 	0.502792 	1.6492 	9.24461e-20
32.9632 	-0.245846 	0.481217 	1.64205 	2.48871e-20
33.0333 	-0.245846 	0.481217 	1.64205 	2.48871e-20
33.1034 	-0.245846 	0.481217 	1.64205 	2.48871e-20
33.1736 	-0.245846 	0.481217 	1.64205 	2.48871e-20
33.2437 	-0.245846 	0.481217 	1.64205 	2.48871e-20
33.3138 	-0.245846 	0.481217 	1.64205 	2.48871e-20
33.384 	-0.245846 	0.481217 	1.64205 	2.48871e-20
33.4541 	-0.245846 	0.481217 	1.64205 	2.48871e-20
33.5242 	-0.245846 	0.481217 	1.64205 	2.48871e-20
33.5944 	-0.245846 	0.481217 	1.64205 	2.48871e-20
33.6645 	-0.245846 	0.481217 	1.64205 	2.48871e-20
33.7346 	-0.245846 	0.481217 	1.64205 	2.48871e-20
33.8048 	-0.245846 	0.481217 	1.64205 	2.48871e-20
33.8749 	-0.245846 	0.481217 	1.64205 	2.48871e-20
33.945 	-0.245846 	0.481217 	1.64205 	2.48871e-20
34.0152 	-0.245846 	0.481217 	1.64205 	2.48871e-20
34.0853 	-0.245846 	0.481217 	1.64205 	2.48871e-20
34.1554 	-0.245846 	0.481217 	1.64205 	2.48871e-20
34.2256 	-0.219139 	0.455992 	1.62227 	-1.64033e-20
34.2957 	-0.219139 	0.455992 	1.62227 	-1.64033e-20
34.3659 	-0.219139 	0.455992 	1.62227 	-1.64033e-20
34.436 	-0.219139 	0.455992 	1.62227 	-1.64033e-20
34.5061 	-0.219139 	0.455992 	1.62227 	-1.64033e-20
34.5763 	-0.219139 	0.455992 	1.62227 	-1.64033e-20
34.6464 	-0.219139 	0.455992 	1.62227 	-1.64033e-20
34.7165 	-0.219139 	0.455992 	1.62227 	-1.64033e-20
34.7867 	-0.219139 	0.455992 	1.62227 	-1.64033e-20
34.8568 	-0.219139 	0.455992 	1.62227 	-1.64033e-20
34.9269 	-0.219139 	0.455992 	1.62227 	-1.64033e-20
34.9971 	-0.219139 	0.455992 	1.62227 	-1.64033e-20
35.0672 	-0.219139 	0.455992 	1.62227 	-1.64033e-20
35.1373 	-0.219139 	0.455992 	1.62227 	-1.64033e-20
35.2075 	-0.219139 	0.455992 	1.62227 	-1.64033e-20
35.2776 	-0.219139 	0.455992 	1.62227 	-1.64033e-20
35.3477 	-0.219139 	0.455992 	1.62227 	-1.64033e-20
35.4179 	-0.219139 	0.455992 	1.62227 	-1.64033e-20
35.488 	-0.219139 	0.455992 	1.62227 	-1.64033e-20
35.5581 	-0.219139 	0.455992 	1.62227 	-1.64033e-20
35.6283 	-0.172852 	0.412348 	1.59231 	-4.40041e-21
35.6984 	-0.172852 	0.412348 	1.59231 	-4.40041e-21
35.7685 	-0.172852 	0.412348 	1.59231 	-4.40041e-21
35.8387 	-0.172852 	0.412348 	1.59231 	-4.40041e-21
35.9088 	-0.172852 	0.412348 	1.59231 	-4.40041e-21
35.9789 	-0.172852 	0.412348 	1.59231 	-4.40041e-21
36.0491 	-0.172852 	0.412348 	1.59231 	-4.40041e-21
36.1192 	-0.172852 	0.412348 	1.59231 	-4.40041e-21
36.1893 	-0.172852 	0.412348 	1.59231 	-4.40041e-21
36.2595 	-0.172852 	0.412348 	1.59231 	-4.40041e-21
36.3296 	-0.172852 	0.412348 	1.59231 	-4.40041e-21
36.3997 	-0.172852 	0.412348 	1.59231 	-4.40041e-21
36.4699 	-0.172852 	0.412348 	1.59231 	-4.40041e-21
36.54 	-0.172852 	0.412348 	1.59231 	-4.40041e-21
36.6102 	-0.172852 	0.412348 	1.59231 	-4.40041e-21
36.6803 	-0.172852 	0.412348 	1.59231 	-4.40041e-21
36.7504 	-0.172852 	0.412348 	1.59231 	-4.40041e-21
36.8206 	-0.172852 	0.412348 	1.59231 	-4.40041e-21
36.8907 	-0.172852 	0.412348 	1.59231 	-4.40041e-21
36.9608 	-0.172852 	0.412348 	1.59231 	-4.40041e-21
37.031 	-0.172852 	0.412348 	1.59231 	-4.40041e-21
37.1011 	-0.132227 	0.353082 	1.56435 	0
37.1712 	-0.132227 	0.353082 	1.56435 	0
37.2414 	-0.132227 	0.353082 	1.56435 	0
37.3115 	-0.132227 	0.353082 	1.56435 	0
37.3816 	-0.132227 	0.353082 	1.56435 	0
37.4518 	-0.132227 	0.353082 	1.56435 	0
37.5219 	-0.132227 	0.353082 	1.56435 	0
37.592 	-0.132227 	0.353082 	1.56435 	0
37.6622 	-0.132227 	0.353082 	1.56435 	0
37.7323 	-0.132227 	0.353082 	1.56435 	0
37.8024 	-0.132227 	0.353082 	1.56435 	0
37.8726 	-0.132227 	0.353082 	1.56435 	0
37.9427 	-0.132227 	0.353082 	1.56435 	0
38.0128 	-0.132227 	0.353082 	1.56435 	0
38.083 	-0.132227 	0.353082 	1.56435 	0
38.1531 	-0.132227 	0.353082 	1.56435 	0
38.2232 	-0.132227 	0.353082 	1.56435 	0
38.2934 	-0.10725 	0.290817 	1.54788 	0
38.3635 	-0.10725 	0.290817 	1.54788 	0
38.4336 	-0.10725 	0.290817 	1.54788 	0
38.5038 	-0.10725 	0.290817 	1.54788 	0
38.5739 	-0.10725 	0.290817 	1.54788 	0
38.644 	-0.10725 	0.290817 	1.54788 	0
38.7142 	-0.10725 	0.290817 	1.54788 	0
38.7843 	-0.10725 	0.290817 	1.54788 	0
38.8545 	-0.10725 	0.290817 	1.54788 	0
38.9246 	-0.10725 	0.290817 	1.54788 	0
38.9947 	-0.10725 	0.290817 	1.54788 	0
39.0649 	-0.10725 	0.290817 	1.54788 	0
39.135 	-0.10725 	0.290817 	1.54788 	0
39.2051 	-0.10725 	0.290817 	1.54788 	0
39.2753 	-0.10725 	0.290817 	1.54788 	0
39.3454 	-0.10725 	0.290817 	1.54788 	0
39.4155 	-0.10725 	0.290817 	1.54788 	0
39.4857 	-0.10725 	0.290817 	1.54788 	0
39.5558 	-0.099402 	0.229493 	1.54319 	0
39.6259 	-0.099402 	0.229493 	1.54319 	0
39.6961 	-0.099402 	0.229493 	1.54319 	0
39.7662 	-0.099402 	0.229493 	1.54319 	0
39.8363 	-0.099402 	0.229493 	1.54319 	0
39.9065 	-0.099402 	0.229493 	1.54319 	0
39.9766 	-0.099402 	0.229493 	1.54319 	0
40.0467 	-0.099402 	0.229493 	1.54319 	0
40.1169 	-0.099402 	0.229493 	1.54319 	0
40.187 	-0.099402 	0.229493 	1.54319 	0
40.2571 	-0.099402 	0.229493 	1.54319 	0
40.3273 	-0.099402 	0.229493 	1.54319 	0
40.3974 	-0.099402 	0.229493 	1.54319 	0
40.4675 	-0.099402 	0.229493 	1.54319 	0
40.5377 	-0.099402 	0.229493 	1.54319 	0
40.6078 	-0.099402 	0.229493 	1.54319 	0
40.6779 	-0.099402 	0.229493 	1.54319 	0
40.7481 	-0.106042 	0.17298 	1.54774 	0
40.8182 	-0.106042 	0.17298 	1.54774 	0
40.8883 	-0.106042 	0.17298 	1.54774 	0
40.9585 	-0.106042 	0.17298 	1.54774 	0
41.0286 	-0.106042 	0.17298 	1.54774 	0
41.0988 	-0.106042 	0.17298 	1.54774 	0
41.1689 	-0.106042 	0.17298 	1.54774 	0
41.239 	-0.106042 	0.17298 	1.54774 	0
41.3092 	-0.106042 	0.17298 	1.54774 	0
41.3793 	-0.106042 	0.17298 	1.54774 	0
41.4494 	-0.106042 	0.17298 	1.54774 	0
41.5196 	-0.106042 	0.17298 	1.54774 	0
41.5897 	-0.106042 	0.17298 	1.54774 	0
41.6598 	-0.106042 	0.17298 	1.54774 	0
41.73 	-0.106042 	0.17298 	1.54774 	0
41.8001 	-0.106042 	0.17298 	1.54774 	0
41.8702 	-0.106042 	0.17298 	1.54774 	0
41.9404 	-0.106042 	0.17298 	1.54774 	0
42.0105 	-0.116932 	0.12072 	1.55391 	0
42.0806 	-0.116932 	0.12072 	1.55391 	0
42.1508 	-0.116932 	0.12072 	1.55391 	0
42.2209 	-0.116932 	0.12072 	1.55391 	0
42.291 	-0.116932 	0.12072 	1.55391 	0
42.3612 	-0.116932 	0.12072 	1.55391 	0
42.4313 	-0.116932 	0.12072 	1.55391 	0
42.5014 	-0.116932 	0.12072 	1.55391 	0
42.5716 	-0.116932 	0.12072 	1.55391 	0
42.6417 	-0.116932 	0.12072 	1.55391 	0
42.7118 	-0.116932 	0.12072 	1.55391 	0
42.782 	-0.116932 	0.12072 	1.55391 	0
42.8521 	-0.116932 	0.12072 	1.55391 	0
42.9222 	-0.116932 	0.12072 	1.55391 	0
42.9924 	-0.116932 	0.12072 	1.55391 	0
43.0625 	-0.116932 	0.12072 	1.55391 	0
43.1327 	-0.116932 	0.12072 	1.55391 	0
43.2028 	-0.124644 	0.0741875 	1.55654 	0
43.2729 	-0.124644 	0.0741875 	1.55654 	0
43.3431 	-0.124644 	0.0741875 	1.55654 	0
43.4132 	-0.124644 	0.0741875 	1.55654 	0
43.4833 	-0.124644 	0.0741875 	1.55654 	0
43.5535 	-0.124644 	0.0741875 	1.55654 	0
43.6236 	-0.124644 	0.0741875 	1.55654 	0
43.6937 	-0.124644 	0.0741875 	1.55654 	0
43.7639 	-0.124644 	0.0741875 	1.55654 	0
43.834 	-0.124644 	0.0741875 	1.55654 	0
43.9041 	-0.124644 	0.0741875 	1.55654 	0
43.9743 	-0.124644 	0.0741875 	1.55654 	0
44.0444 	-0.124644 	0.0741875 	1.55654 	0
44.1145 	-0.124644 	0.0741875 	1.55654 	0
44.1847 	-0.124644 	0.0741875 	1.55654 	0
44.2548 	-0.124644 	0.0741875 	1.55654 	0
44.3249 	-0.124644 	0.0741875 	1.55654 	0
44.3951 	-0.124644 	0.0741875 	1.55654 	0