/*--------------------------------*- C++ -*----------------------------------*\
| =========                 |                                                 |
| \\      /  F ield         | OpenFOAM: The Open Source CFD Toolbox           |
|  \\    /   O peration     | Version:  2306                                  |
|   \\  /    A nd           | Website:  www.openfoam.com                      |
|    \\/     M anipulation  |                                                 |
\*---------------------------------------------------------------------------*/
FoamFile
{
    version     2.0;
    format      ascii;
    arch        "LSB;label=32;scalar=64";
    class       volScalarField;
    location    "10";
    object      p;
}
// * * * * * * * * * * * * * * * * * * * * * * * * * * * * * * * * * * * * * //

dimensions      [0 2 -2 0 0 0 0];

internalField   nonuniform List<scalar> 
8800
(
0.430965
0.382985
0.344722
0.316237
0.295811
0.281266
0.270899
0.263625
0.258939
0.256881
0.257849
0.261624
0.26783
0.276728
0.289124
0.306411
0.330614
0.364048
0.406366
0.463448
0.263313
0.27058
0.279156
0.28274
0.281031
0.275785
0.269416
0.263549
0.258987
0.256165
0.255712
0.257884
0.261949
0.267457
0.273872
0.280047
0.283865
0.283113
0.276849
0.267726
0.23948
0.245821
0.250389
0.254136
0.257039
0.258235
0.257465
0.255556
0.253611
0.25256
0.253284
0.255302
0.257657
0.259358
0.259345
0.257287
0.253955
0.249865
0.244986
0.241166
0.234118
0.236949
0.24014
0.242951
0.244966
0.246513
0.247656
0.248163
0.248144
0.248162
0.248521
0.249053
0.249212
0.248623
0.24743
0.245804
0.243499
0.240397
0.237566
0.236045
0.228863
0.230347
0.233082
0.236145
0.238702
0.240566
0.241844
0.242732
0.243341
0.243756
0.244062
0.244122
0.243787
0.242999
0.241653
0.239585
0.236829
0.233802
0.231801
0.231125
0.226351
0.227037
0.228835
0.230983
0.233114
0.235187
0.236978
0.238316
0.239241
0.239866
0.240189
0.240093
0.239461
0.238257
0.236534
0.234594
0.232551
0.23053
0.229339
0.229094
0.225327
0.225664
0.22658
0.227756
0.229034
0.230316
0.231566
0.232811
0.233908
0.234732
0.235101
0.234936
0.23437
0.233553
0.232619
0.231465
0.230404
0.229381
0.228804
0.228684
0.22363
0.223807
0.224347
0.225154
0.226088
0.227142
0.228377
0.229564
0.230657
0.231575
0.232078
0.232078
0.231671
0.230971
0.230189
0.229464
0.228772
0.228176
0.227873
0.227812
0.221111
0.221195
0.221507
0.222023
0.222617
0.223413
0.224273
0.225284
0.226348
0.227349
0.228017
0.228233
0.228127
0.227829
0.227519
0.227166
0.226804
0.226485
0.226343
0.226313
0.218121
0.218171
0.218398
0.218818
0.219349
0.220011
0.2208
0.221738
0.222806
0.223929
0.224827
0.225329
0.225514
0.225503
0.225357
0.225141
0.224899
0.224704
0.224629
0.224615
0.214784
0.214816
0.214977
0.215289
0.215724
0.216303
0.217056
0.218012
0.219171
0.22048
0.221649
0.222426
0.222871
0.223088
0.223157
0.223136
0.223063
0.222994
0.222973
0.222963
0.211075
0.211101
0.211233
0.211497
0.211894
0.212456
0.213227
0.214254
0.215558
0.21713
0.21864
0.219751
0.220477
0.220927
0.221182
0.221312
0.221365
0.221384
0.221396
0.221388
0.206961
0.206988
0.207116
0.207372
0.207773
0.208369
0.20922
0.210392
0.21194
0.21387
0.215802
0.217292
0.218315
0.218999
0.219435
0.219701
0.219855
0.21994
0.219976
0.219968
0.202395
0.202419
0.202563
0.202842
0.20329
0.20397
0.204963
0.206361
0.208244
0.210641
0.213091
0.21502
0.216413
0.217354
0.217976
0.218373
0.218616
0.218754
0.21881
0.218803
0.197308
0.197335
0.197503
0.197831
0.198363
0.19918
0.200385
0.2021
0.204434
0.207437
0.210546
0.213039
0.214822
0.216056
0.216881
0.217415
0.217749
0.217939
0.218016
0.218007
0.191576
0.191609
0.191817
0.192221
0.192879
0.19389
0.19539
0.197531
0.200457
0.204237
0.208168
0.211325
0.213604
0.215186
0.216248
0.216939
0.217372
0.21762
0.217719
0.217708
0.185042
0.185084
0.185347
0.185858
0.186689
0.187968
0.189862
0.192566
0.19626
0.201032
0.205991
0.209973
0.212851
0.214851
0.216196
0.217073
0.217623
0.217938
0.218063
0.21805
0.177491
0.177546
0.177885
0.17854
0.179606
0.181243
0.18366
0.187101
0.191787
0.197816
0.20406
0.209063
0.212675
0.215184
0.216872
0.217973
0.218663
0.219058
0.219215
0.219199
0.16863
0.168702
0.169143
0.169996
0.171381
0.173498
0.176607
0.181011
0.186975
0.194598
0.202443
0.208703
0.213213
0.216345
0.218452
0.219825
0.220685
0.221176
0.22137
0.22135
0.158049
0.158146
0.158728
0.159854
0.161686
0.164467
0.168487
0.174151
0.18176
0.191395
0.201225
0.209025
0.214634
0.218527
0.221147
0.222854
0.22392
0.224526
0.224766
0.224741
0.14518
0.145312
0.146091
0.147605
0.150055
0.153703
0.158991
0.166342
0.176077
0.18824
0.20051
0.210185
0.217127
0.22195
0.225202
0.227324
0.228646
0.229392
0.229685
0.229654
0.129223
0.129408
0.130472
0.132554
0.135881
0.140797
0.147802
0.157389
0.169876
0.185193
0.200427
0.212354
0.220906
0.22686
0.230894
0.233542
0.235196
0.236123
0.236482
0.236437
0.108997
0.109266
0.11077
0.113736
0.118371
0.125099
0.13453
0.14715
0.163169
0.182364
0.20113
0.215717
0.226188
0.23352
0.23853
0.241851
0.24395
0.245127
0.245571
0.245507
0.0826122
0.0830238
0.0853071
0.0897635
0.0964819
0.106002
0.118927
0.135613
0.156091
0.17994
0.202807
0.220458
0.233171
0.242168
0.248404
0.252612
0.255322
0.256862
0.257441
0.257352
0.0467591
0.0475125
0.0514241
0.0586926
0.0690192
0.0829492
0.100884
0.122937
0.148905
0.178171
0.205643
0.226707
0.241973
0.252949
0.26074
0.266152
0.269758
0.271857
0.272654
0.272536
-0.00488124
-0.00267132
0.00542916
0.0184295
0.0351222
0.0558348
0.0806845
0.109538
0.141988
0.177308
0.209749
0.234469
0.252526
0.265777
0.275494
0.282566
0.287557
0.290694
0.291957
0.291792
-0.0825351
-0.0715514
-0.0530687
-0.0298408
-0.00362599
0.0260788
0.059356
0.0960163
0.135656
0.177595
0.215474
0.244298
0.265636
0.281721
0.294034
0.303605
0.31103
0.316317
0.318987
0.319358
-0.164784
-0.141379
-0.111958
-0.0783669
-0.0423864
-0.00362274
0.0380509
0.0826039
0.129772
0.179028
0.223348
0.257313
0.282895
0.302698
0.318424
0.331205
0.341714
0.350835
0.356206
0.356773
-0.228823
-0.202767
-0.1651
-0.123271
-0.0788201
-0.0317703
0.0178714
0.0700065
0.124373
0.180494
0.230666
0.269041
0.297972
0.320428
0.338278
0.352735
0.364501
0.374009
0.379052
0.379756
-0.279884
-0.251708
-0.209459
-0.161858
-0.111023
-0.0572931
-0.000866817
0.057983
0.118889
0.181265
0.236536
0.278414
0.309658
0.333585
0.352291
0.367194
0.379207
0.388683
0.393902
0.394682
-0.320889
-0.292165
-0.246548
-0.194724
-0.139113
-0.0801156
-0.0180667
0.0465878
0.113276
0.181224
0.241009
0.285862
0.318896
0.343843
0.363075
0.378163
0.390162
0.39938
0.404609
0.405414
-0.35541
-0.326434
-0.2786
-0.223439
-0.163928
-0.100576
-0.03381
0.0358695
0.10777
0.180894
0.244859
0.292361
0.326922
0.352674
0.372244
0.387383
0.399267
0.408287
0.413478
0.414313
-0.385605
-0.356578
-0.307078
-0.249277
-0.18656
-0.119506
-0.0485885
0.0256021
0.102246
0.180134
0.248025
0.298071
0.334109
0.360643
0.380568
0.395802
0.407624
0.416522
0.421607
0.422445
-0.412909
-0.383817
-0.33299
-0.273008
-0.207631
-0.137423
-0.0629062
0.0152915
0.0963088
0.178804
0.250644
0.303323
0.340927
0.368326
0.388671
0.404056
0.415863
0.424679
0.429658
0.43049
-0.438145
-0.408959
-0.357049
-0.29528
-0.227657
-0.154761
-0.0770659
0.00479841
0.0899479
0.176944
0.252799
0.308279
0.347624
0.37603
0.396903
0.412516
0.424372
0.433084
0.437945
0.438813
-0.462011
-0.432647
-0.37982
-0.316506
-0.246954
-0.171703
-0.0911891
-0.00599719
0.0830213
0.174421
0.254442
0.312986
0.354331
0.383952
0.405498
0.421431
0.433386
0.442056
0.446773
0.44769
-0.484779
-0.455191
-0.401541
-0.337017
-0.265792
-0.188483
-0.105478
-0.0172674
0.0754004
0.171142
0.255495
0.317416
0.361089
0.392189
0.414601
0.430982
0.443108
0.451781
0.456369
0.457258
-0.506806
-0.476885
-0.422533
-0.356978
-0.284314
-0.205229
-0.120017
-0.0290699
0.0670075
0.167001
0.25583
0.321469
0.367849
0.400764
0.424288
0.441284
0.453695
0.462417
0.466881
0.467707
-0.528129
-0.497908
-0.443026
-0.376464
-0.302558
-0.221949
-0.134817
-0.0414255
0.0577964
0.161899
0.255309
0.324982
0.374493
0.409612
0.434564
0.452396
0.465232
0.474069
0.478432
0.479115
-0.548811
-0.518309
-0.462938
-0.395497
-0.320551
-0.238651
-0.149869
-0.0543344
0.0477565
0.155763
0.25377
0.327744
0.380816
0.418616
0.445379
0.464319
0.477742
0.486797
0.491094
0.49158
-0.56891
-0.537939
-0.482292
-0.414083
-0.338272
-0.255295
-0.165127
-0.067743
0.0369049
0.148548
0.251056
0.329513
0.386559
0.42757
0.456613
0.477
0.491214
0.500555
0.504814
0.505085
-0.588448
-0.557205
-0.501004
-0.432182
-0.355665
-0.27181
-0.180513
-0.0815819
0.0252918
0.140245
0.247051
0.330048
0.391377
0.436115
0.468033
0.490315
0.505599
0.515338
0.519486
0.519543
-0.607257
-0.575736
-0.519067
-0.449748
-0.372672
-0.28812
-0.195943
-0.0957541
0.0130057
0.13089
0.241677
0.329105
0.394859
0.443788
0.479314
0.504128
0.520777
0.530896
0.534825
0.534633
-0.625324
-0.593512
-0.536458
-0.46673
-0.389221
-0.304156
-0.211315
-0.110159
0.00014937
0.120547
0.234891
0.326465
0.396611
0.450084
0.489985
0.518333
0.536905
0.547228
0.550563
0.550041
-0.642677
-0.610529
-0.553151
-0.483076
-0.40524
-0.319832
-0.226536
-0.124679
-0.013158
0.109319
0.226705
0.321999
0.396273
0.454306
0.499288
0.532587
0.554427
0.564768
0.566213
0.565101
-0.659178
-0.626761
-0.569076
-0.49873
-0.420672
-0.335068
-0.24151
-0.139199
-0.0267834
0.0973505
0.217212
0.315615
0.393549
0.45571
0.505971
0.545758
0.5737
0.585988
0.583112
0.579414
-0.67491
-0.642216
-0.584247
-0.513706
-0.435556
-0.349908
-0.256296
-0.153787
-0.0407978
0.084584
0.206325
0.307157
0.388159
0.453491
0.508283
0.555358
0.592901
0.614707
0.611423
0.592053
-0.689838
-0.656899
-0.598779
-0.528166
-0.450151
-0.364657
-0.271282
-0.168917
-0.0557503
0.070361
0.193362
0.295745
0.379263
0.446543
0.503177
0.555549
0.600599
0.625566
0.615229
0.592344
-0.703845
-0.670881
-0.612513
-0.541909
-0.464212
-0.379011
-0.286241
-0.184249
-0.0712872
0.0550367
0.17855
0.28134
0.36654
0.434745
0.486888
0.536845
0.574473
0.582537
0.517801
0.473983
-0.716523
-0.684713
-0.625006
-0.554349
-0.477152
-0.392544
-0.300918
-0.199585
-0.0872231
0.0387849
0.162033
0.264017
0.349409
0.419371
0.461031
0.490194
0.511004
0.471019
0.392857
0.342381
-0.762969
-0.695618
-0.636274
-0.566638
-0.490082
-0.406351
-0.315361
-0.215158
-0.103892
0.0212102
0.14344
0.243652
0.325966
0.400356
0.421756
0.419586
0.391353
0.322462
0.230739
0.181128
-0.722495
-0.707797
-0.65173
-0.584503
-0.50853
-0.425998
-0.336887
-0.238459
-0.128983
-0.00564957
0.113168
0.207794
0.281434
0.343397
0.353677
0.22181
0.0966816
0.00915723
-0.0808442
-0.0262424
-0.749295
-0.721354
-0.665419
-0.597978
-0.522801
-0.441217
-0.352844
-0.256067
-0.148226
-0.0264524
0.0895078
0.178066
0.243065
0.27538
0.217718
0.0347881
-0.131758
-0.250439
-0.382444
-0.289071
-0.768185
-0.73695
-0.680618
-0.612914
-0.538263
-0.457533
-0.370235
-0.275305
-0.169588
-0.0503559
0.0622416
0.143952
0.197412
0.199995
0.0653503
-0.179404
-0.38587
-0.54613
-0.731378
-0.642388
-0.785647
-0.752915
-0.695847
-0.627754
-0.553487
-0.473667
-0.38792
-0.294927
-0.191552
-0.0748298
0.0340606
0.107998
0.146044
0.105324
-0.114409
-0.404612
-0.672707
-0.911169
-1.18272
-1.13581
-0.801464
-0.768744
-0.711105
-0.642815
-0.568993
-0.490193
-0.406153
-0.315436
-0.214737
-0.100326
0.00523992
0.0704575
0.088019
-0.00707746
-0.292736
-0.622148
-0.952717
-1.25003
-1.63394
-1.94839
-0.816668
-0.784277
-0.726608
-0.65836
-0.585026
-0.5073
-0.425034
-0.336797
-0.238914
-0.127007
-0.0244469
0.0319836
0.0260721
-0.123931
-0.457885
-0.804582
-1.16023
-1.45399
-1.62055
-1.9183
-0.831817
-0.799734
-0.742392
-0.674444
-0.601746
-0.525298
-0.445133
-0.359928
-0.265476
-0.156363
-0.0562114
-0.0092342
-0.0404746
-0.260924
-0.612244
-0.947626
-1.2565
-1.46725
-1.51522
-1.54931
-0.847159
-0.815375
-0.758379
-0.690871
-0.61901
-0.544104
-0.466496
-0.385033
-0.294879
-0.188754
-0.0891703
-0.0510258
-0.119562
-0.399131
-0.760602
-1.07415
-1.29832
-1.42468
-1.45952
-1.46091
-0.862739
-0.831139
-0.77436
-0.707406
-0.636527
-0.563473
-0.488969
-0.41212
-0.327184
-0.224805
-0.124403
-0.0912459
-0.201553
-0.534067
-0.907077
-1.22736
-1.35434
-1.37395
-1.4231
-1.43797
-0.87829
-0.846721
-0.790122
-0.723709
-0.653988
-0.583094
-0.512321
-0.44106
-0.363071
-0.26591
-0.161764
-0.129677
-0.280738
-0.680758
-1.05673
-1.44403
-1.52422
-1.48855
-1.51612
-1.52516
-0.89335
-0.861704
-0.805216
-0.739345
-0.670897
-0.602465
-0.536042
-0.471697
-0.403256
-0.31303
-0.203434
-0.168615
-0.361226
-0.829034
-1.2279
-1.69373
-1.9606
-1.7571
-1.66444
-1.64487
-0.90712
-0.875473
-0.819038
-0.753696
-0.686603
-0.620934
-0.559508
-0.504046
-0.448875
-0.370251
-0.255468
-0.216462
-0.453697
-0.955456
-1.34806
-1.625
-1.69391
-1.66209
-1.66427
-1.65803
-0.919022
-0.887267
-0.830843
-0.766016
-0.700306
-0.637535
-0.581908
-0.537313
-0.501605
-0.447514
-0.337509
-0.304239
-0.575424
-1.06352
-1.35895
-1.3649
-1.41565
-1.55851
-1.67245
-1.70775
-0.928135
-0.896201
-0.839745
-0.775353
-0.710966
-0.651167
-0.602014
-0.571008
-0.564282
-0.560618
-0.492709
-0.469262
-0.753426
-1.24623
-1.68405
-1.87711
-1.99395
-2.02859
-2.02352
-2.03786
-0.933425
-0.901202
-0.844681
-0.780633
-0.717362
-0.660402
-0.618023
-0.60352
-0.637302
-0.732649
-0.777618
-0.749034
-1.00714
-1.52548
-2.17414
-2.76931
-2.98773
-2.90443
-2.69694
-2.58932
-0.93372
-0.901203
-0.844564
-0.780689
-0.718139
-0.663469
-0.627503
-0.630936
-0.718821
-0.976695
-1.23269
-1.14974
-1.22668
-1.63473
-2.3019
-3.04854
-3.25649
-3.05483
-2.71738
-2.58182
-0.928139
-0.895155
-0.838329
-0.774351
-0.711928
-0.658432
-0.626911
-0.64706
-0.79533
-1.25885
-1.80719
-1.5407
-1.24773
-1.24924
-1.41871
-1.69972
-1.73699
-1.49416
-1.21252
-1.08651
-0.915888
-0.8823
-0.825148
-0.7606
-0.697486
-0.643294
-0.61304
-0.643593
-0.831321
-1.45387
-2.24131
-1.69564
-0.955237
-0.302482
0.163904
0.418262
0.575761
0.757182
0.876724
0.910635
-0.896245
-0.862114
-0.804313
-0.738978
-0.674226
-0.617144
-0.582223
-0.604429
-0.78985
-1.41105
-2.14382
-1.38449
-0.426201
0.451709
1.06228
1.48918
1.73116
1.82588
1.85742
1.85832
-0.868704
-0.834234
-0.775975
-0.709632
-0.642399
-0.580292
-0.535098
-0.534333
-0.655259
-1.07611
-1.42697
-0.687943
0.138177
0.858652
1.32674
1.6332
1.80413
1.8882
1.92406
1.93125
-0.833193
-0.798927
-0.740454
-0.673172
-0.60333
-0.535299
-0.476664
-0.443358
-0.471361
-0.607577
-0.579487
-0.0349063
0.543435
0.997433
1.29303
1.48763
1.6067
1.67729
1.714
1.72192
-0.789511
-0.755616
-0.698276
-0.630652
-0.558983
-0.485853
-0.414903
-0.351827
-0.303411
-0.248305
-0.0580027
0.305699
0.682418
0.964571
1.15706
1.28915
1.37886
1.43924
1.47093
1.4759
-0.734362
-0.703201
-0.649101
-0.582507
-0.51069
-0.435067
-0.356225
-0.274006
-0.182722
-0.0524311
0.163119
0.421127
0.664416
0.853463
0.99125
1.09151
1.16481
1.21691
1.24426
1.25204
-0.668434
-0.640363
-0.590873
-0.52787
-0.458737
-0.38381
-0.302801
-0.212917
-0.106082
0.0395461
0.230075
0.423306
0.591099
0.72406
0.825764
0.903357
0.962129
1.00386
1.0284
1.03641
-0.586027
-0.56734
-0.521609
-0.464635
-0.400945
-0.331117
-0.253375
-0.164927
-0.0591357
0.0767174
0.23385
0.378881
0.498055
0.591522
0.663693
0.71956
0.763182
0.79579
0.815013
0.819811
-0.473922
-0.464703
-0.43244
-0.387
-0.334389
-0.274785
-0.206527
-0.127436
-0.0321579
0.0863579
0.216602
0.33176
0.423956
0.494947
0.548561
0.588332
0.617447
0.639016
0.652766
0.656004
-0.356248
-0.352328
-0.331724
-0.300036
-0.261335
-0.214962
-0.159483
-0.0932504
-0.0120245
0.0883377
0.195355
0.287426
0.359464
0.41368
0.453324
0.48146
0.500828
0.513436
0.519638
0.521013
-0.244228
-0.242241
-0.231421
-0.21226
-0.18679
-0.153935
-0.11233
-0.0597573
0.00631337
0.0886166
0.175352
0.248455
0.304444
0.345513
0.374512
0.394225
0.406959
0.414513
0.418107
0.418578
-0.146862
-0.146729
-0.142279
-0.132694
-0.118097
-0.097066
-0.0678404
-0.0284075
0.0233177
0.0890695
0.15852
0.216271
0.259574
0.2906
0.31192
0.325733
0.334083
0.338655
0.340513
0.340555
-0.0722304
-0.0729938
-0.0728387
-0.0700133
-0.062945
-0.0501571
-0.0302527
-0.00142632
0.038064
0.0894803
0.144116
0.189223
0.222629
0.245979
0.261414
0.271101
0.276711
0.279516
0.28049
0.28041
-0.0219191
-0.0228429
-0.0245296
-0.0249488
-0.0223097
-0.0150616
-0.00171721
0.019122
0.0489778
0.0886849
0.131175
0.166063
0.191518
0.209087
0.220598
0.227632
0.231437
0.233111
0.233609
0.233485
0.00932713
0.00859573
0.00691491
0.00584093
0.00679343
0.0109228
0.0196309
0.0344701
0.0567744
0.0871831
0.119928
0.146806
0.166329
0.179648
0.188099
0.193014
0.19553
0.196521
0.196744
0.196628
0.0281918
0.0277121
0.0265243
0.0256329
0.0261394
0.0289625
0.0351044
0.045774
0.0622339
0.0852593
0.11035
0.130922
0.145654
0.155495
0.161691
0.165259
0.167
0.167589
0.167675
0.167577
0.0398626
0.0395619
0.0388069
0.0382137
0.0385301
0.0404658
0.0449088
0.0528418
0.0652028
0.082588
0.101619
0.117201
0.128341
0.13579
0.140391
0.142955
0.144152
0.144507
0.144532
0.144453
0.0471091
0.0469193
0.0464377
0.0460797
0.0463759
0.047822
0.0510511
0.0568734
0.0661053
0.0792499
0.0937145
0.10555
0.11397
0.119515
0.122899
0.124764
0.125606
0.125828
0.125827
0.125762
0.0512435
0.0511192
0.0507919
0.0505581
0.0508075
0.0519161
0.054361
0.0587318
0.0656509
0.0755485
0.0864731
0.0953994
0.101719
0.105868
0.10838
0.109736
0.110324
0.110454
0.110437
0.110384
0.0530299
0.0529464
0.0527204
0.0525661
0.0527717
0.0536117
0.0554461
0.058728
0.0639438
0.0714081
0.0796577
0.0863928
0.0911463
0.0942459
0.0961015
0.0970887
0.0975002
0.0975752
0.0975518
0.0975088
0.0530567
0.0529999
0.0528478
0.0527535
0.0529309
0.0535827
0.0549769
0.0574527
0.061375
0.0670039
0.0732247
0.0782918
0.0818559
0.0841663
0.0855394
0.0862575
0.0865447
0.0865836
0.0865574
0.0865224
0.0517834
0.0517428
0.0516401
0.0515852
0.0517347
0.0522394
0.0533005
0.0551737
0.0581359
0.0623784
0.0670607
0.0708673
0.0735379
0.07526
0.076275
0.0767982
0.0769995
0.0770177
0.0769922
0.0769635
0.0495482
0.049518
0.0494472
0.0494166
0.0495409
0.0499328
0.0507415
0.0521587
0.0543926
0.0575878
0.0611106
0.0639689
0.0659677
0.0672499
0.0679993
0.0683794
0.0685188
0.068523
0.0684986
0.0684752
0.0465956
0.0465723
0.0465215
0.0465043
0.0466048
0.0469067
0.0475221
0.0485936
0.0502773
0.0526811
0.0553274
0.0574702
0.0589628
0.0599148
0.060466
0.060741
0.0608371
0.0608337
0.0608119
0.060793
0.0431015
0.0430831
0.0430449
0.0430336
0.0431113
0.0433408
0.0438062
0.0446146
0.0458816
0.0476885
0.0496756
0.0512769
0.0523869
0.053093
0.0534984
0.0536967
0.0537608
0.0537515
0.0537317
0.0537167
0.0391962
0.0391817
0.0391518
0.0391426
0.0392005
0.039373
0.0397228
0.040329
0.0412794
0.042633
0.0441172
0.0453124
0.0461379
0.0466587
0.046955
0.0470966
0.0471383
0.0471262
0.0471089
0.0470971
0.0349781
0.0349665
0.0349422
0.034933
0.0349743
0.0351017
0.0353617
0.0358144
0.0365241
0.0375336
0.0386396
0.0395274
0.0401383
0.040521
0.040735
0.0408342
0.0408599
0.0408466
0.0408312
0.0408217
0.0305212
0.0305118
0.0304918
0.0304824
0.0305108
0.0306031
0.0307942
0.0311284
0.0316539
0.0324023
0.0332195
0.033874
0.0343215
0.0345995
0.0347532
0.0348223
0.0348374
0.0348245
0.0348114
0.0348036
0.0258843
0.0258766
0.0258599
0.0258503
0.0258683
0.0259332
0.0260714
0.0263155
0.0266993
0.0272462
0.0278436
0.0283199
0.0286437
0.0288429
0.0289516
0.0289983
0.0290058
0.0289935
0.0289826
0.0289765
0.0211139
0.0211077
0.0210936
0.0210839
0.0210937
0.0211377
0.0212345
0.0214078
0.0216824
0.0220748
0.0225036
0.0228444
0.0230752
0.0232155
0.0232889
0.0233174
0.0233178
0.0233049
0.0232951
0.0232905
0.0162434
0.0162383
0.0162262
0.0162162
0.0162199
0.016248
0.0163128
0.0164307
0.0166193
0.0168904
0.0171862
0.0174214
0.0175794
0.0176736
0.0177213
0.0177378
0.0177346
0.0177224
0.0177137
0.0177101
0.0112991
0.011295
0.011285
0.0112757
0.0112755
0.0112913
0.0113316
0.011407
0.0115285
0.0117017
0.0118914
0.0120399
0.0121379
0.0121955
0.0122236
0.0122311
0.0122258
0.0122155
0.0122085
0.0122057
0.00630258
0.00629986
0.00629228
0.00628462
0.0062823
0.00628909
0.00630936
0.00634847
0.00641212
0.00650335
0.00660233
0.00668053
0.00673273
0.00676345
0.00677733
0.00677882
0.00677227
0.00676294
0.00675763
0.00675604
0.00126653
0.00126588
0.00126383
0.00126031
0.00125866
0.00125895
0.00126109
0.00126653
0.00127611
0.00129077
0.00131014
0.0013283
0.00134124
0.00134912
0.00135268
0.00135351
0.00135293
0.00135008
0.00134631
0.00134531
-0.869158
-0.58471
-0.290143
-0.0595216
0.127625
0.27953
0.409675
0.519402
0.568422
0.551991
-0.382599
-0.204128
-0.0245193
0.128676
0.258582
0.368189
0.457752
0.52192
0.556332
0.567459
-0.0693787
0.0461295
0.164065
0.269214
0.360105
0.436514
0.497238
0.541848
0.572782
0.589191
0.143285
0.221352
0.303534
0.37812
0.442895
0.497656
0.542231
0.577303
0.604066
0.621373
0.300879
0.356359
0.415038
0.469841
0.518259
0.560041
0.595269
0.624144
0.646609
0.663918
0.425009
0.465481
0.511862
0.554459
0.593223
0.627548
0.65714
0.681707
0.70047
0.717724
0.52979
0.56301
0.602415
0.639094
0.672885
0.703294
0.729651
0.751302
0.767084
0.784394
0.626064
0.658192
0.695422
0.730347
0.762344
0.790954
0.815486
0.835084
0.848531
0.86598
0.726115
0.761316
0.79966
0.835106
0.866627
0.894033
0.916949
0.934787
0.946777
0.964614
0.843821
0.883407
0.922737
0.958045
0.988214
1.01365
1.03456
1.05075
1.06244
1.08085
0.990324
1.03048
1.06665
1.09761
1.12375
1.14628
1.16569
1.18153
1.19442
1.21261
1.16616
1.19854
1.22472
1.24737
1.26772
1.28677
1.30465
1.3214
1.33731
1.35556
1.35437
1.37214
1.38791
1.40471
1.42104
1.43573
1.44888
1.46298
1.48016
1.49989
1.53635
1.54736
1.55966
1.57059
1.57992
1.58958
1.6006
1.61226
1.62225
1.63746
1.74755
1.74957
1.73442
1.71931
1.71314
1.71887
1.73752
1.76798
1.8001
1.83085
2.05354
1.91655
1.84037
1.79831
1.78078
1.78493
1.8123
1.86845
1.97198
2.18729
0.327172
0.323845
0.318036
0.308401
0.295668
0.283487
0.27344
0.265736
0.26027
0.257058
0.25655
0.258909
0.26359
0.270392
0.279413
0.29073
0.303556
0.315302
0.322579
0.327199
0.244839
0.250773
0.257846
0.26334
0.266464
0.266455
0.263898
0.26033
0.257007
0.254751
0.254402
0.256274
0.259474
0.26328
0.266694
0.268236
0.266734
0.262303
0.256146
0.248956
0.236731
0.239084
0.242803
0.246173
0.248833
0.251038
0.25238
0.252432
0.25159
0.250726
0.250698
0.251733
0.253065
0.253815
0.253301
0.25158
0.249233
0.246344
0.242682
0.239496
0.231362
0.232394
0.234727
0.237845
0.240433
0.242207
0.243477
0.244479
0.245148
0.245543
0.245858
0.24607
0.246
0.245474
0.244574
0.243245
0.241191
0.238306
0.235454
0.233818
0.227178
0.227586
0.229265
0.232007
0.234701
0.237162
0.239123
0.240437
0.241293
0.241851
0.242252
0.242478
0.2423
0.24161
0.240223
0.238157
0.235695
0.233014
0.230682
0.229788
0.225882
0.226049
0.226895
0.228384
0.229993
0.231539
0.233065
0.234553
0.235811
0.236746
0.237313
0.237362
0.236905
0.235992
0.234843
0.233517
0.232049
0.23058
0.229373
0.228964
0.224577
0.224659
0.225122
0.226005
0.22703
0.228176
0.22945
0.230679
0.231808
0.232788
0.233453
0.233641
0.233363
0.232735
0.231844
0.23094
0.230066
0.229206
0.228558
0.22835
0.222462
0.222501
0.222748
0.223287
0.223979
0.224746
0.225736
0.226837
0.227966
0.229017
0.229818
0.230136
0.230013
0.229608
0.229036
0.228573
0.228058
0.227564
0.227241
0.227144
0.219654
0.219669
0.219821
0.220201
0.220724
0.221363
0.222113
0.222986
0.223989
0.225049
0.225995
0.226575
0.226771
0.226734
0.226591
0.226227
0.22599
0.225695
0.225512
0.225468
0.216499
0.216506
0.216611
0.21689
0.217314
0.217856
0.218548
0.219408
0.220441
0.221618
0.222775
0.223614
0.224066
0.224253
0.224274
0.224187
0.224051
0.223896
0.223809
0.22379
0.212976
0.21298
0.213059
0.213272
0.213617
0.214098
0.21475
0.215613
0.216714
0.218046
0.219475
0.220634
0.221384
0.221829
0.222073
0.222179
0.222201
0.222181
0.22217
0.222168
0.20907
0.20907
0.209147
0.209337
0.20966
0.210137
0.210818
0.211759
0.213009
0.214593
0.216375
0.217908
0.218982
0.219686
0.220128
0.220392
0.220538
0.220613
0.220652
0.220661
0.204738
0.204734
0.204815
0.205014
0.20535
0.205867
0.20663
0.207714
0.209196
0.211125
0.213358
0.21535
0.216773
0.217773
0.21843
0.21885
0.219109
0.219261
0.219338
0.219356
0.199925
0.19992
0.20001
0.200235
0.200621
0.201223
0.202126
0.20343
0.205239
0.207628
0.210439
0.212983
0.214866
0.21617
0.217056
0.217636
0.218003
0.218224
0.218337
0.218362
0.194533
0.194526
0.194636
0.194908
0.195375
0.196109
0.197216
0.198826
0.201074
0.204065
0.207609
0.210844
0.21324
0.214929
0.216079
0.216839
0.217324
0.217618
0.217768
0.217801
0.188425
0.188415
0.188554
0.188895
0.189479
0.190399
0.191787
0.193807
0.196634
0.200402
0.204873
0.208963
0.211995
0.21414
0.215605
0.216575
0.217196
0.217574
0.217765
0.217808
0.181414
0.181402
0.18158
0.182016
0.182763
0.183933
0.185695
0.18826
0.191842
0.196606
0.202248
0.207398
0.211213
0.213912
0.215757
0.21698
0.217765
0.218242
0.218483
0.218537
0.173246
0.173231
0.173464
0.174031
0.174995
0.176498
0.178759
0.18204
0.186606
0.192645
0.199759
0.206226
0.211004
0.214382
0.216689
0.21822
0.219205
0.219805
0.220108
0.220174
0.163576
0.163556
0.163868
0.164613
0.165871
0.16782
0.170742
0.174975
0.18082
0.18849
0.197451
0.205545
0.211505
0.215712
0.218586
0.220495
0.221726
0.22248
0.222859
0.22294
0.151926
0.151905
0.152329
0.153323
0.154979
0.157533
0.161384
0.166875
0.174375
0.184121
0.195384
0.205476
0.212878
0.218098
0.221666
0.224038
0.225575
0.226523
0.227001
0.227099
0.137625
0.137604
0.138199
0.139552
0.141773
0.145199
0.15028
0.157468
0.167163
0.179549
0.193654
0.206168
0.215313
0.221762
0.226178
0.229122
0.231037
0.23223
0.232835
0.23296
0.11967
0.119655
0.120525
0.122427
0.125487
0.130174
0.137036
0.146554
0.159115
0.174827
0.192389
0.207794
0.219016
0.226951
0.232408
0.236063
0.238449
0.239944
0.240713
0.240874
0.096534
0.0965515
0.0978916
0.100663
0.10506
0.111692
0.121139
0.133872
0.150197
0.170053
0.191742
0.210525
0.224182
0.233891
0.240636
0.245199
0.248203
0.250096
0.25108
0.251293
0.0657519
0.0658813
0.068079
0.0723803
0.0790617
0.0888014
0.102105
0.11931
0.140508
0.165405
0.191889
0.214513
0.230952
0.24275
0.251085
0.256845
0.260716
0.263197
0.264492
0.264769
0.0228253
0.0232803
0.0274379
0.0349694
0.0459091
0.0608195
0.0798769
0.10313
0.130402
0.161199
0.193048
0.219875
0.239382
0.253565
0.263825
0.271159
0.276286
0.279738
0.281577
0.281935
-0.040599
-0.0384312
-0.028684
-0.0141279
0.00484633
0.0280163
0.0551312
0.0860508
0.120476
0.157842
0.195413
0.226631
0.249361
0.266128
0.278596
0.287888
0.294762
0.29966
0.302531
0.302926
-0.116821
-0.112787
-0.0945829
-0.068621
-0.0391079
-0.00645007
0.0294204
0.0685099
0.110603
0.155241
0.199514
0.236283
0.263424
0.283968
0.299833
0.312267
0.322177
0.329785
0.333248
0.334833
-0.194436
-0.183823
-0.156713
-0.120671
-0.0816298
-0.0398576
0.00459031
0.0517275
0.101423
0.153312
0.2043
0.246592
0.277994
0.302064
0.321011
0.336231
0.348593
0.358403
0.364434
0.366981
-0.252387
-0.240738
-0.20866
-0.166137
-0.119765
-0.070476
-0.0185434
0.0359041
0.0926346
0.151253
0.208376
0.255431
0.290154
0.316593
0.337201
0.353516
0.366542
0.376754
0.383205
0.385893
-0.298748
-0.286742
-0.251282
-0.204212
-0.152607
-0.0976294
-0.0396302
0.0210576
0.0840269
0.148704
0.211228
0.262254
0.299501
0.327482
0.348983
0.365783
0.379033
0.389333
0.395879
0.398502
-0.336587
-0.324718
-0.287371
-0.236828
-0.181113
-0.121581
-0.0586254
0.0073212
0.0757176
0.145835
0.213333
0.267966
0.307372
0.336585
0.358719
0.375769
0.389029
0.399236
0.405736
0.40824
-0.369145
-0.357439
-0.318685
-0.265527
-0.206549
-0.143245
-0.0760715
-0.00551773
0.0677758
0.142904
0.214994
0.272926
0.314292
0.344585
0.367244
0.384488
0.397764
0.407908
0.414424
0.416858
-0.398054
-0.386504
-0.34676
-0.291511
-0.229845
-0.163367
-0.092536
-0.0179119
0.0597842
0.139526
0.21602
0.277242
0.3206
0.35202
0.375256
0.392746
0.406084
0.416184
0.422718
0.425074
-0.424469
-0.413001
-0.372464
-0.315475
-0.25161
-0.182458
-0.108496
-0.0302746
0.0514735
0.135652
0.216531
0.281143
0.326624
0.359291
0.3832
0.401006
0.41446
0.424553
0.431099
0.433376
-0.449134
-0.437708
-0.39649
-0.338053
-0.272317
-0.200878
-0.124166
-0.0426998
0.0428019
0.131221
0.216486
0.284661
0.332497
0.366612
0.391342
0.409569
0.423198
0.433324
0.439859
0.442034
-0.472523
-0.461092
-0.419284
-0.359631
-0.292298
-0.21886
-0.139725
-0.0553609
0.0335855
0.126077
0.215786
0.287777
0.338266
0.374098
0.399851
0.418631
0.432515
0.442721
0.449243
0.451357
-0.495016
-0.483506
-0.441138
-0.380471
-0.311783
-0.23662
-0.155367
-0.0684003
0.0237395
0.120133
0.214326
0.290403
0.343898
0.381782
0.408818
0.428329
0.442583
0.452924
0.459439
0.461506
-0.516801
-0.505141
-0.462207
-0.400754
-0.330858
-0.254216
-0.17112
-0.0818437
0.0132087
0.113309
0.211975
0.292388
0.349283
0.38961
0.41826
0.438737
0.453506
0.464073
0.470583
0.472618
-0.537898
-0.52608
-0.482664
-0.420512
-0.349567
-0.271665
-0.18699
-0.0956973
0.00197371
0.105547
0.208612
0.293563
0.354237
0.397448
0.428103
0.449846
0.465331
0.476224
0.482766
0.484785
-0.558425
-0.546399
-0.502602
-0.439739
-0.367925
-0.288969
-0.202956
-0.109933
-0.00993852
0.0968317
0.204142
0.293737
0.358527
0.405077
0.438204
0.461586
0.478059
0.489452
0.496088
0.497986
-0.578293
-0.566078
-0.521983
-0.458438
-0.385895
-0.306076
-0.218951
-0.124481
-0.0224791
0.0871685
0.198493
0.292703
0.361854
0.412217
0.448369
0.473858
0.491595
0.503636
0.510424
0.512182
-0.597543
-0.585106
-0.540656
-0.476554
-0.403429
-0.322917
-0.234909
-0.139256
-0.0355697
0.076603
0.191616
0.290268
0.363893
0.418527
0.458325
0.486507
0.505898
0.518717
0.525618
0.527173
-0.615994
-0.603455
-0.558612
-0.494061
-0.420466
-0.339404
-0.250745
-0.154168
-0.0491109
0.0652185
0.183514
0.286305
0.364348
0.423513
0.467552
0.499231
0.520911
0.534637
0.541434
0.542648
-0.633764
-0.621077
-0.575839
-0.510918
-0.436958
-0.355487
-0.266354
-0.169118
-0.0629927
0.0531292
0.17424
0.280752
0.36293
0.426544
0.475317
0.511579
0.536712
0.551659
0.557701
0.558103
-0.650722
-0.637858
-0.592335
-0.527069
-0.452823
-0.371087
-0.281654
-0.183979
-0.0770809
0.0404388
0.163888
0.273574
0.359448
0.427086
0.480701
0.52264
0.553184
0.570934
0.575148
0.572775
-0.666905
-0.653878
-0.608005
-0.542465
-0.468019
-0.386144
-0.296565
-0.198667
-0.0912559
0.0273197
0.152609
0.264778
0.353771
0.424848
0.482709
0.530716
0.568974
0.593774
0.598767
0.586971
-0.682249
-0.669107
-0.622966
-0.557231
-0.482735
-0.400918
-0.311412