0.490941 	0.831165 	0.00613102 	3.00284 	0
0.561075 	0.831165 	0.00613102 	3.00284 	0
0.63121 	0.831165 	0.00613102 	3.00284 	0
0.701344 	0.831165 	0.00613102 	3.00284 	0
0.771478 	0.831165 	0.00613102 	3.00284 	0
0.841613 	0.831165 	0.00613102 	3.00284 	0
0.911747 	0.831165 	0.00613102 	3.00284 	0
0.981881 	0.831165 	0.00613102 	3.00284 	0
1.05202 	0.831165 	0.00613102 	3.00284 	0
1.12215 	0.831165 	0.00613102 	3.00284 	0
1.19228 	0.831165 	0.00613102 	3.00284 	0
1.26242 	0.805028 	0.0115219 	3.00792 	0
1.33255 	0.805028 	0.0115219 	3.00792 	0
1.40269 	0.805028 	0.0115219 	3.00792 	0
1.47282 	0.805028 	0.0115219 	3.00792 	0
1.54296 	0.805028 	0.0115219 	3.00792 	0
1.61309 	0.805028 	0.0115219 	3.00792 	0
1.68323 	0.805028 	0.0115219 	3.00792 	0
1.75336 	0.805028 	0.0115219 	3.00792 	0
1.82349 	0.755365 	0.0148027 	3.02402 	2.88027e-19
1.89363 	0.755365 	0.0148027 	3.02402 	2.88027e-19
1.96376 	0.755365 	0.0148027 	3.02402 	2.88027e-19
2.0339 	0.755365 	0.0148027 	3.02402 	2.88027e-19
2.10403 	0.755365 	0.0148027 	3.02402 	2.88027e-19
2.17417 	0.755365 	0.0148027 	3.02402 	2.88027e-19
2.2443 	0.755365 	0.0148027 	3.02402 	2.88027e-19
2.31443 	0.755365 	0.0148027 	3.02402 	2.88027e-19
2.38457 	0.755365 	0.0148027 	3.02402 	2.88027e-19
2.4547 	0.755365 	0.0148027 	3.02402 	2.88027e-19
2.52484 	0.755365 	0.0148027 	3.02402 	2.88027e-19
2.59497 	0.720612 	0.00729298 	3.03672 	-4.49395e-19
2.66511 	0.720612 	0.00729298 	3.03672 	-4.49395e-19
2.73524 	0.720612 	0.00729298 	3.03672 	-4.49395e-19
2.80538 	0.720612 	0.00729298 	3.03672 	-4.49395e-19
2.87551 	0.720612 	0.00729298 	3.03672 	-4.49395e-19
2.94564 	0.720612 	0.00729298 	3.03672 	-4.49395e-19
3.01578 	0.720612 	0.00729298 	3.03672 	-4.49395e-19
3.08591 	0.720612 	0.00729298 	3.03672 	-4.49395e-19
3.15605 	0.720612 	0.00729298 	3.03672 	-4.49395e-19
3.22618 	0.720612 	0.00729298 	3.03672 	-4.49395e-19
3.29632 	0.688049 	0.0199955 	3.04355 	4.55049e-19
3.36645 	0.688049 	0.0199955 	3.04355 	4.55049e-19
3.43659 	0.688049 	0.0199955 	3.04355 	4.55049e-19
3.50672 	0.688049 	0.0199955 	3.04355 	4.55049e-19
3.57685 	0.688049 	0.0199955 	3.04355 	4.55049e-19
3.64699 	0.688049 	0.0199955 	3.04355 	4.55049e-19
3.71712 	0.688049 	0.0199955 	3.04355 	4.55049e-19
3.78726 	0.688049 	0.0199955 	3.04355 	4.55049e-19
3.85739 	0.688049 	0.0199955 	3.04355 	4.55049e-19
3.92753 	0.688049 	0.0199955 	3.04355 	4.55049e-19
3.99766 	0.688049 	0.0199955 	3.04355 	4.55049e-19
4.06779 	0.669712 	0.00381798 	3.05016 	-1.26278e-20
4.13793 	0.669712 	0.00381798 	3.05016 	-1.26278e-20
4.20806 	0.669712 	0.00381798 	3.05016 	-1.26278e-20
4.2782 	0.669712 	0.00381798 	3.05016 	-1.26278e-20
4.34833 	0.669712 	0.00381798 	3.05016 	-1.26278e-20
4.41847 	0.669712 	0.00381798 	3.05016 	-1.26278e-20
4.4886 	0.644644 	0.016449 	3.05809 	0
4.55874 	0.644644 	0.016449 	3.05809 	0
4.62887 	0.644644 	0.016449 	3.05809 	0
4.699 	0.644644 	0.016449 	3.05809 	0
4.76914 	0.644644 	0.016449 	3.05809 	0
4.83927 	0.644644 	0.016449 	3.05809 	0
4.90941 	0.644644 	0.016449 	3.05809 	0
4.97954 	0.644644 	0.016449 	3.05809 	0
5.04968 	0.644644 	0.016449 	3.05809 	0
5.11981 	0.644644 	0.016449 	3.05809 	0
5.18994 	0.62232 	0.00575033 	3.06471 	-5.8311e-21
5.26008 	0.62232 	0.00575033 	3.06471 	-5.8311e-21
5.33021 	0.62232 	0.00575033 	3.06471 	-5.8311e-21
5.40035 	0.62232 	0.00575033 	3.06471 	-5.8311e-21
5.47048 	0.62232 	0.00575033 	3.06471 	-5.8311e-21
5.54062 	0.62232 	0.00575033 	3.06471 	-5.8311e-21
5.61075 	0.62232 	0.00575033 	3.06471 	-5.8311e-21
5.68089 	0.593343 	0.0110463 	3.07469 	0
5.75102 	0.593343 	0.0110463 	3.07469 	0
5.82115 	0.593343 	0.0110463 	3.07469 	0
5.89129 	0.593343 	0.0110463 	3.07469 	0
5.96142 	0.593343 	0.0110463 	3.07469 	0
6.03156 	0.593343 	0.0110463 	3.07469 	0
6.10169 	0.593343 	0.0110463 	3.07469 	0
6.17183 	0.593343 	0.0110463 	3.07469 	0
6.24196 	0.593343 	0.0110463 	3.07469 	0
6.3121 	0.564543 	0.00739587 	3.08254 	0
6.38223 	0.564543 	0.00739587 	3.08254 	0
6.45236 	0.564543 	0.00739587 	3.08254 	0
6.5225 	0.564543 	0.00739587 	3.08254 	0
6.59263 	0.564543 	0.00739587 	3.08254 	0
6.66277 	0.564543 	0.00739587 	3.08254 	0
6.7329 	0.564543 	0.00739587 	3.08254 	0
6.80304 	0.564543 	0.00739587 	3.08254 	0
6.87317 	0.538935 	0.00602417 	3.09108 	1.82963e-19
6.9433 	0.538935 	0.00602417 	3.09108 	1.82963e-19
7.01344 	0.538935 	0.00602417 	3.09108 	1.82963e-19
7.08357 	0.538935 	0.00602417 	3.09108 	1.82963e-19
7.15371 	0.538935 	0.00602417 	3.09108 	1.82963e-19
7.22384 	0.538935 	0.00602417 	3.09108 	1.82963e-19
7.29398 	0.538935 	0.00602417 	3.09108 	1.82963e-19
7.36411 	0.538935 	0.00602417 	3.09108 	1.82963e-19
7.43425 	0.538935 	0.00602417 	3.09108 	1.82963e-19
7.50438 	0.5067 	0.00884427 	3.09993 	-1.33871e-18
7.57451 	0.5067 	0.00884427 	3.09993 	-1.33871e-18
7.64465 	0.5067 	0.00884427 	3.09993 	-1.33871e-18
7.71478 	0.5067 	0.00884427 	3.09993 	-1.33871e-18
7.78492 	0.5067 	0.00884427 	3.09993 	-1.33871e-18
7.85505 	0.5067 	0.00884427 	3.09993 	-1.33871e-18
7.92519 	0.5067 	0.00884427 	3.09993 	-1.33871e-18
7.99532 	0.5067 	0.00884427 	3.09993 	-1.33871e-18
8.06545 	0.489479 	0.00260106 	3.10577 	1.30356e-18
8.13559 	0.489479 	0.00260106 	3.10577 	1.30356e-18
8.20572 	0.489479 	0.00260106 	3.10577 	1.30356e-18
8.27586 	0.489479 	0.00260106 	3.10577 	1.30356e-18
8.34599 	0.489479 	0.00260106 	3.10577 	1.30356e-18
8.41613 	0.489479 	0.00260106 	3.10577 	1.30356e-18
8.48626 	0.489479 	0.00260106 	3.10577 	1.30356e-18
8.5564 	0.489479 	0.00260106 	3.10577 	1.30356e-18
8.62653 	0.489479 	0.00260106 	3.10577 	1.30356e-18
8.69666 	0.458169 	0.0161626 	3.11805 	1.14799e-18
8.7668 	0.458169 	0.0161626 	3.11805 	1.14799e-18
8.83693 	0.458169 	0.0161626 	3.11805 	1.14799e-18
8.90707 	0.458169 	0.0161626 	3.11805 	1.14799e-18
8.9772 	0.458169 	0.0161626 	3.11805 	1.14799e-18
9.04734 	0.458169 	0.0161626 	3.11805 	1.14799e-18
9.11747 	0.458169 	0.0161626 	3.11805 	1.14799e-18
9.18761 	0.458169 	0.0161626 	3.11805 	1.14799e-18
9.25774 	0.426262 	0.00186541 	3.11886 	-1.07127e-18
9.32787 	0.426262 	0.00186541 	3.11886 	-1.07127e-18
9.39801 	0.426262 	0.00186541 	3.11886 	-1.07127e-18
9.46814 	0.426262 	0.00186541 	3.11886 	-1.07127e-18
9.53828 	0.426262 	0.00186541 	3.11886 	-1.07127e-18
9.60841 	0.426262 	0.00186541 	3.11886 	-1.07127e-18
9.67855 	0.426262 	0.00186541 	3.11886 	-1.07127e-18
9.74868 	0.426262 	0.00186541 	3.11886 	-1.07127e-18
9.81881 	0.410426 	0.0173341 	3.12979 	-3.23535e-19
9.88895 	0.410426 	0.0173341 	3.12979 	-3.23535e-19
9.95908 	0.410426 	0.0173341 	3.12979 	-3.23535e-19
10.0292 	0.410426 	0.0173341 	3.12979 	-3.23535e-19
10.0994 	0.410426 	0.0173341 	3.12979 	-3.23535e-19
10.1695 	0.410426 	0.0173341 	3.12979 	-3.23535e-19
10.2396 	0.410426 	0.0173341 	3.12979 	-3.23535e-19
10.3098 	0.410426 	0.0173341 	3.12979 	-3.23535e-19
10.3799 	0.410426 	0.0173341 	3.12979 	-3.23535e-19
10.45 	0.410426 	0.0173341 	3.12979 	-3.23535e-19
10.5202 	0.410426 	0.0173341 	3.12979 	-3.23535e-19
10.5903 	0.410426 	0.0173341 	3.12979 	-3.23535e-19
10.6604 	0.435083 	0.015775 	3.12567 	4.76199e-19
10.7306 	0.379878 	0.0383102 	3.14014 	0
10.8007 	0.379878 	0.0383102 	3.14014 	0
10.8708 	0.379878 	0.0383102 	3.14014 	0
10.941 	0.379878 	0.0383102 	3.14014 	0
11.0111 	0.379878 	0.0383102 	3.14014 	0
11.0812 	0.379878 	0.0383102 	3.14014 	0
11.1514 	0.379878 	0.0383102 	3.14014 	0
11.2215 	0.379878 	0.0383102 	3.14014 	0
11.2916 	0.379878 	0.0383102 	3.14014 	0
11.3618 	0.379878 	0.0383102 	3.14014 	0
11.4319 	0.379878 	0.0383102 	3.14014 	0
11.502 	0.379878 	0.0383102 	3.14014 	0
11.5722 	0.379878 	0.0383102 	3.14014 	0
11.6423 	0.379878 	0.0383102 	3.14014 	0
11.7124 	0.388473 	0.0258735 	3.12863 	0
11.7826 	0.324254 	0.0811426 	3.16237 	4.78143e-19
11.8527 	0.324254 	0.0811426 	3.16237 	4.78143e-19
11.9228 	0.324254 	0.0811426 	3.16237 	4.78143e-19
11.993 	0.324254 	0.0811426 	3.16237 	4.78143e-19
12.0631 	0.324254 	0.0811426 	3.16237 	4.78143e-19
12.1332 	0.324254 	0.0811426 	3.16237 	4.78143e-19
12.2034 	0.220854 	0.073751 	3.1899 	-2.01777e-19
12.2735 	0.220854 	0.073751 	3.1899 	-2.01777e-19
12.3437 	0.220854 	0.073751 	3.1899 	-2.01777e-19
12.4138 	0.220854 	0.073751 	3.1899 	-2.01777e-19
12.4839 	0.220854 	0.073751 	3.1899 	-2.01777e-19
12.5541 	0.220854 	0.073751 	3.1899 	-2.01777e-19
12.6242 	0.220854 	0.073751 	3.1899 	-2.01777e-19
12.6943 	0.220854 	0.073751 	3.1899 	-2.01777e-19
12.7645 	0.220854 	0.073751 	3.1899 	-2.01777e-19
12.8346 	0.101958 	0.0396778 	3.1839 	9.32029e-20
12.9047 	0.0840413 	0.141753 	3.22689 	1.16219e-20
12.9749 	0.0840413 	0.141753 	3.22689 	1.16219e-20
13.045 	0.0840413 	0.141753 	3.22689 	1.16219e-20
13.1151 	0.0840413 	0.141753 	3.22689 	1.16219e-20
13.1853 	0.0840413 	0.141753 	3.22689 	1.16219e-20
13.2554 	0.0840413 	0.141753 	3.22689 	1.16219e-20
13.3255 	0.0840413 	0.141753 	3.22689 	1.16219e-20
13.3957 	0.312826 	0.147691 	3.19768 	7.72148e-19
13.4658 	0.312826 	0.147691 	3.19768 	7.72148e-19
13.5359 	0.312826 	0.147691 	3.19768 	7.72148e-19
13.6061 	0.312826 	0.147691 	3.19768 	7.72148e-19
13.6762 	0.312826 	0.147691 	3.19768 	7.72148e-19
13.7463 	0.312826 	0.147691 	3.19768 	7.72148e-19
13.8165 	0.387334 	0.126011 	2.87345 	-6.32916e-19
13.8866 	0.577861 	0.148515 	2.96756 	1.03829e-19
13.9567 	0.577861 	0.148515 	2.96756 	1.03829e-19
14.0269 	-0.00289647 	0.256057 	3.04096 	-6.80483e-19
14.097 	-0.00289647 	0.256057 	3.04096 	-6.80483e-19
14.1671 	-0.00289647 	0.256057 	3.04096 	-6.80483e-19
14.2373 	-0.00289647 	0.256057 	3.04096 	-6.80483e-19
14.3074 	-0.00289647 	0.256057 	3.04096 	-6.80483e-19
14.3776 	-0.00289647 	0.256057 	3.04096 	-6.80483e-19
14.4477 	-0.00289647 	0.256057 	3.04096 	-6.80483e-19
14.5178 	-0.00289647 	0.256057 	3.04096 	-6.80483e-19
14.588 	-0.00289647 	0.256057 	3.04096 	-6.80483e-19
14.6581 	-0.00289647 	0.256057 	3.04096 	-6.80483e-19
14.7282 	-0.00289647 	0.256057 	3.04096 	-6.80483e-19
14.7984 	-0.00289647 	0.256057 	3.04096 	-6.80483e-19
14.8685 	-0.00289647 	0.256057 	3.04096 	-6.80483e-19
14.9386 	-0.183935 	0.350398 	3.20054 	0
15.0088 	-0.183935 	0.350398 	3.20054 	0
15.0789 	-0.183935 	0.350398 	3.20054 	0
15.149 	-0.183935 	0.350398 	3.20054 	0
15.2192 	-0.183935 	0.350398 	3.20054 	0
15.2893 	-0.691371 	0.345015 	3.43147 	-4.56768e-19
15.3594 	-0.691371 	0.345015 	3.43147 	-4.56768e-19
15.4296 	-0.691371 	0.345015 	3.43147 	-4.56768e-19
15.4997 	-0.691371 	0.345015 	3.43147 	-4.56768e-19
15.5698 	-0.691371 	0.345015 	3.43147 	-4.56768e-19
15.64 	-0.691371 	0.345015 	3.43147 	-4.56768e-19
15.7101 	-1.1926 	0.400661 	3.50346 	0
15.7802 	-1.1926 	0.400661 	3.50346 	0
15.8504 	-1.0957 	0.653246 	3.56389 	1.68741e-18
15.9205 	-1.0957 	0.653246 	3.56389 	1.68741e-18
15.9906 	-1.0957 	0.653246 	3.56389 	1.68741e-18
16.0608 	-1.0957 	0.653246 	3.56389 	1.68741e-18
16.1309 	-1.0957 	0.653246 	3.56389 	1.68741e-18
16.201 	-1.0957 	0.653246 	3.56389 	1.68741e-18
16.2712 	-1.0957 	0.653246 	3.56389 	1.68741e-18
16.3413 	-1.0957 	0.653246 	3.56389 	1.68741e-18
16.4114 	-1.0957 	0.653246 	3.56389 	1.68741e-18
16.4816 	-1.0957 	0.653246 	3.56389 	1.68741e-18
16.5517 	-1.0957 	0.653246 	3.56389 	1.68741e-18
16.6219 	-1.0957 	0.653246 	3.56389 	1.68741e-18
16.692 	-1.0957 	0.653246 	3.56389 	1.68741e-18
16.7621 	-1.0957 	0.653246 	3.56389 	1.68741e-18
16.8323 	-0.653468 	0.880104 	3.12902 	4.03162e-19
16.9024 	-0.653468 	0.880104 	3.12902 	4.03162e-19
16.9725 	-0.653468 	0.880104 	3.12902 	4.03162e-19
17.0427 	-0.653468 	0.880104 	3.12902 	4.03162e-19
17.1128 	-0.653468 	0.880104 	3.12902 	4.03162e-19
17.1829 	-0.653468 	0.880104 	3.12902 	4.03162e-19
17.2531 	-0.653468 	0.880104 	3.12902 	4.03162e-19
17.3232 	-0.653468 	0.880104 	3.12902 	4.03162e-19
17.3933 	-0.653468 	0.880104 	3.12902 	4.03162e-19
17.4635 	-0.653468 	0.880104 	3.12902 	4.03162e-19
17.5336 	-0.569997 	0.915987 	3.04834 	-4.59688e-19
17.6037 	-0.569997 	0.915987 	3.04834 	-4.59688e-19
17.6739 	-0.569997 	0.915987 	3.04834 	-4.59688e-19
17.744 	-0.660144 	1.04385 	3.17892 	5.06463e-19
17.8141 	-0.660144 	1.04385 	3.17892 	5.06463e-19
17.8843 	-0.660144 	1.04385 	3.17892 	5.06463e-19
17.9544 	-0.660144 	1.04385 	3.17892 	5.06463e-19
18.0245 	-0.660144 	1.04385 	3.17892 	5.06463e-19
18.0947 	-0.660144 	1.04385 	3.17892 	5.06463e-19
18.1648 	-0.660144 	1.04385 	3.17892 	5.06463e-19
18.2349 	-0.660144 	1.04385 	3.17892 	5.06463e-19
18.3051 	-0.660144 	1.04385 	3.17892 	5.06463e-19
18.3752 	-0.368895 	1.00363 	2.78673 	-3.84999e-19
18.4453 	-0.368895 	1.00363 	2.78673 	-3.84999e-19
18.5155 	-0.368895 	1.00363 	2.78673 	-3.84999e-19
18.5856 	-0.368895 	1.00363 	2.78673 	-3.84999e-19
18.6557 	-0.368895 	1.00363 	2.78673 	-3.84999e-19
18.7259 	-0.368895 	1.00363 	2.78673 	-3.84999e-19
18.796 	-0.368895 	1.00363 	2.78673 	-3.84999e-19
18.8662 	-0.289695 	1.03517 	2.84333 	3.14407e-19
18.9363 	-0.289695 	1.03517 	2.84333 	3.14407e-19
19.0064 	-0.289695 	1.03517 	2.84333 	3.14407e-19
19.0766 	-0.289695 	1.03517 	2.84333 	3.14407e-19
19.1467 	-0.289695 	1.03517 	2.84333 	3.14407e-19
19.2168 	-0.289695 	1.03517 	2.84333 	3.14407e-19
19.287 	-0.289695 	1.03517 	2.84333 	3.14407e-19
19.3571 	-0.289695 	1.03517 	2.84333 	3.14407e-19
19.4272 	-0.289695 	1.03517 	2.84333 	3.14407e-19
19.4974 	-0.289695 	1.03517 	2.84333 	3.14407e-19
19.5675 	-0.289695 	1.03517 	2.84333 	3.14407e-19
19.6376 	-0.289695 	1.03517 	2.84333 	3.14407e-19
19.7078 	-0.289695 	1.03517 	2.84333 	3.14407e-19
19.7779 	-0.141971 	0.986793 	2.46969 	-6.51975e-20
19.848 	-0.141971 	0.986793 	2.46969 	-6.51975e-20
19.9182 	-0.141971 	0.986793 	2.46969 	-6.51975e-20
19.9883 	-0.141971 	0.986793 	2.46969 	-6.51975e-20
20.0584 	-0.141971 	0.986793 	2.46969 	-6.51975e-20
20.1286 	-0.141971 	0.986793 	2.46969 	-6.51975e-20
20.1987 	-0.141971 	0.986793 	2.46969 	-6.51975e-20
20.2688 	-0.145867 	0.988239 	2.4727 	-1.90514e-19
20.339 	-0.145867 	0.988239 	2.4727 	-1.90514e-19
20.4091 	-0.145867 	0.988239 	2.4727 	-1.90514e-19
20.4792 	-0.145867 	0.988239 	2.4727 	-1.90514e-19
20.5494 	-0.145867 	0.988239 	2.4727 	-1.90514e-19
20.6195 	-0.145867 	0.988239 	2.4727 	-1.90514e-19
20.6896 	-0.145867 	0.988239 	2.4727 	-1.90514e-19
20.7598 	-0.145867 	0.988239 	2.4727 	-1.90514e-19
20.8299 	-0.145867 	0.988239 	2.4727 	-1.90514e-19
20.9 	-0.145867 	0.988239 	2.4727 	-1.90514e-19
20.9702 	-0.145867 	0.988239 	2.4727 	-1.90514e-19
21.0403 	-0.145867 	0.988239 	2.4727 	-1.90514e-19
21.1105 	-0.145867 	0.988239 	2.4727 	-1.90514e-19
21.1806 	-0.145867 	0.988239 	2.4727 	-1.90514e-19
21.2507 	-0.145867 	0.988239 	2.4727 	-1.90514e-19
21.3209 	-0.145867 	0.988239 	2.4727 	-1.90514e-19
21.391 	-0.145867 	0.988239 	2.4727 	-1.90514e-19
21.4611 	-0.137489 	0.698985 	1.93333 	1.44963e-19
21.5313 	-0.137489 	0.698985 	1.93333 	1.44963e-19
21.6014 	-0.137489 	0.698985 	1.93333 	1.44963e-19
21.6715 	-0.238695 	0.609402 	1.45052 	2.07141e-19
21.7417 	-0.238695 	0.609402 	1.45052 	2.07141e-19
21.8118 	-0.238695 	0.609402 	1.45052 	2.07141e-19
21.8819 	-0.238695 	0.609402 	1.45052 	2.07141e-19
21.9521 	-0.238695 	0.609402 	1.45052 	2.07141e-19
22.0222 	-0.362598 	0.925885 	2.37305 	-3.00545e-19
22.0923 	-0.362598 	0.925885 	2.37305 	-3.00545e-19
22.1625 	-0.362598 	0.925885 	2.37305 	-3.00545e-19
22.2326 	-0.362598 	0.925885 	2.37305 	-3.00545e-19
22.3027 	-0.362598 	0.925885 	2.37305 	-3.00545e-19
22.3729 	-0.362598 	0.925885 	2.37305 	-3.00545e-19
22.443 	-0.362598 	0.925885 	2.37305 	-3.00545e-19
22.5131 	-0.362598 	0.925885 	2.37305 	-3.00545e-19
22.5833 	-0.362598 	0.925885 	2.37305 	-3.00545e-19
22.6534 	-0.362598 	0.925885 	2.37305 	-3.00545e-19
22.7235 	-0.362598 	0.925885 	2.37305 	-3.00545e-19
22.7937 	-0.362598 	0.925885 	2.37305 	-3.00545e-19
22.8638 	-0.362598 	0.925885 	2.37305 	-3.00545e-19
22.9339 	-0.362598 	0.925885 	2.37305 	-3.00545e-19
23.0041 	-0.362598 	0.925885 	2.37305 	-3.00545e-19
23.0742 	-0.362598 	0.925885 	2.37305 	-3.00545e-19
23.1443 	-0.362598 	0.925885 	2.37305 	-3.00545e-19
23.2145 	-0.362598 	0.925885 	2.37305 	-3.00545e-19
23.2846 	-0.362598 	0.925885 	2.37305 	-3.00545e-19
23.3548 	-0.362598 	0.925885 	2.37305 	-3.00545e-19
23.4249 	-0.362598 	0.925885 	2.37305 	-3.00545e-19
23.495 	-0.17626 	0.892796 	2.34574 	3.9813e-20
23.5652 	-0.17626 	0.892796 	2.34574 	3.9813e-20
23.6353 	-0.17626 	0.892796 	2.34574 	3.9813e-20
23.7054 	-0.17626 	0.892796 	2.34574 	3.9813e-20
23.7756 	-0.17626 	0.892796 	2.34574 	3.9813e-20
23.8457 	-0.17626 	0.892796 	2.34574 	3.9813e-20
23.9158 	-0.17626 	0.892796 	2.34574 	3.9813e-20
23.986 	-0.0412776 	0.835897 	2.22886 	-1.87639e-21
24.0561 	-0.0412776 	0.835897 	2.22886 	-1.87639e-21
24.1262 	-0.0412776 	0.835897 	2.22886 	-1.87639e-21
24.1964 	-0.0412776 	0.835897 	2.22886 	-1.87639e-21
24.2665 	-0.0412776 	0.835897 	2.22886 	-1.87639e-21
24.3366 	-0.0412776 	0.835897 	2.22886 	-1.87639e-21
24.4068 	-0.0412776 	0.835897 	2.22886 	-1.87639e-21
24.4769 	-0.0412776 	0.835897 	2.22886 	-1.87639e-21
24.547 	-0.0412776 	0.835897 	2.22886 	-1.87639e-21
24.6172 	-0.0412776 	0.835897 	2.22886 	-1.87639e-21
24.6873 	-0.0412776 	0.835897 	2.22886 	-1.87639e-21
24.7574 	-0.0412776 	0.835897 	2.22886 	-1.87639e-21
24.8276 	-0.0412776 	0.835897 	2.22886 	-1.87639e-21
24.8977 	-0.0412776 	0.835897 	2.22886 	-1.87639e-21
24.9678 	-0.0412776 	0.835897 	2.22886 	-1.87639e-21
25.038 	-0.0412776 	0.835897 	2.22886 	-1.87639e-21
25.1081 	-0.0412776 	0.835897 	2.22886 	-1.87639e-21
25.1782 	-0.100623 	0.489265 	1.36837 	0
25.2484 	-0.100623 	0.489265 	1.36837 	0
25.3185 	-0.100623 	0.489265 	1.36837 	0
25.3886 	-0.100623 	0.489265 	1.36837 	0
25.4588 	-0.100623 	0.489265 	1.36837 	0
25.5289 	-0.100623 	0.489265 	1.36837 	0
25.5991 	-0.100623 	0.489265 	1.36837 	0
25.6692 	-0.100623 	0.489265 	1.36837 	0
25.7393 	-0.100623 	0.489265 	1.36837 	0
25.8095 	-0.100623 	0.489265 	1.36837 	0
25.8796 	-0.100623 	0.489265 	1.36837 	0
25.9497 	-0.100623 	0.489265 	1.36837 	0
26.0199 	-0.100623 	0.489265 	1.36837 	0
26.09 	-0.100623 	0.489265 	1.36837 	0
26.1601 	-0.100623 	0.489265 	1.36837 	0
26.2303 	-0.201247 	0.497909 	1.37769 	4.63233e-19
26.3004 	-0.201247 	0.497909 	1.37769 	4.63233e-19
26.3705 	-0.201247 	0.497909 	1.37769 	4.63233e-19
26.4407 	-0.201247 	0.497909 	1.37769 	4.63233e-19
26.5108 	-0.201247 	0.497909 	1.37769 	4.63233e-19
26.5809 	-0.201247 	0.497909 	1.37769 	4.63233e-19
26.6511 	-0.201247 	0.497909 	1.37769 	4.63233e-19
26.7212 	-0.201247 	0.497909 	1.37769 	4.63233e-19
26.7913 	-0.201247 	0.497909 	1.37769 	4.63233e-19
26.8615 	-0.201247 	0.497909 	1.37769 	4.63233e-19
26.9316 	-0.201247 	0.497909 	1.37769 	4.63233e-19
27.0017 	-0.201247 	0.497909 	1.37769 	4.63233e-19
27.0719 	-0.201247 	0.497909 	1.37769 	4.63233e-19
27.142 	-0.201247 	0.497909 	1.37769 	4.63233e-19
27.2121 	-0.201247 	0.497909 	1.37769 	4.63233e-19
27.2823 	-0.201247 	0.497909 	1.37769 	4.63233e-19
27.3524 	-0.262625 	0.501967 	1.38495 	-4.97547e-19
27.4225 	-0.262625 	0.501967 	1.38495 	-4.97547e-19
27.4927 	-0.262625 	0.501967 	1.38495 	-4.97547e-19
27.5628 	-0.262625 	0.501967 	1.38495 	-4.97547e-19
27.6329 	-0.262625 	0.501967 	1.38495 	-4.97547e-19
27.7031 	-0.262625 	0.501967 	1.38495 	-4.97547e-19
27.7732 	-0.262625 	0.501967 	1.38495 	-4.97547e-19
27.8434 	-0.262625 	0.501967 	1.38495 	-4.97547e-19
27.9135 	-0.262625 	0.501967 	1.38495 	-4.97547e-19
27.9836 	-0.262625 	0.501967 	1.38495 	-4.97547e-19
28.0538 	-0.262625 	0.501967 	1.38495 	-4.97547e-19
28.1239 	-0.262625 	0.501967 	1.38495 	-4.97547e-19
28.194 	-0.262625 	0.501967 	1.38495 	-4.97547e-19
28.2642 	-0.262625 	0.501967 	1.38495 	-4.97547e-19
28.3343 	-0.262625 	0.501967 	1.38495 	-4.97547e-19
28.4044 	-0.262625 	0.501967 	1.38495 	-4.97547e-19
28.4746 	-0.262625 	0.501967 	1.38495 	-4.97547e-19
28.5447 	-0.262625 	0.501967 	1.38495 	-4.97547e-19
28.6148 	-0.262625 	0.501967 	1.38495 	-4.97547e-19
28.685 	-0.262625 	0.501967 	1.38495 	-4.97547e-19
28.7551 	-0.262625 	0.501967 	1.38495 	-4.97547e-19
28.8252 	-0.262625 	0.501967 	1.38495 	-4.97547e-19
28.8954 	-0.262625 	0.501967 	1.38495 	-4.97547e-19
28.9655 	-0.308924 	0.431696 	1.29065 	-2.86043e-20
29.0356 	-0.308924 	0.431696 	1.29065 	-2.86043e-20
29.1058 	-0.308924 	0.431696 	1.29065 	-2.86043e-20
29.1759 	-0.308924 	0.431696 	1.29065 	-2.86043e-20
29.246 	-0.308924 	0.431696 	1.29065 	-2.86043e-20
29.3162 	-0.308924 	0.431696 	1.29065 	-2.86043e-20
29.3863 	-0.308924 	0.431696 	1.29065 	-2.86043e-20
29.4564 	-0.308924 	0.431696 	1.29065 	-2.86043e-20
29.5266 	-0.308924 	0.431696 	1.29065 	-2.86043e-20
29.5967 	-0.308924 	0.431696 	1.29065 	-2.86043e-20
29.6668 	-0.308924 	0.431696 	1.29065 	-2.86043e-20
29.737 	-0.308924 	0.431696 	1.29065 	-2.86043e-20
29.8071 	-0.308924 	0.431696 	1.29065 	-2.86043e-20
29.8773 	-0.308924 	0.431696 	1.29065 	-2.86043e-20
29.9474 	-0.308924 	0.431696 	1.29065 	-2.86043e-20
30.0175 	-0.308924 	0.431696 	1.29065 	-2.86043e-20
30.0877 	-0.308924 	0.431696 	1.29065 	-2.86043e-20
30.1578 	-0.308924 	0.431696 	1.29065 	-2.86043e-20
30.2279 	-0.308924 	0.431696 	1.29065 	-2.86043e-20
30.2981 	-0.308924 	0.431696 	1.29065 	-2.86043e-20
30.3682 	-0.308924 	0.431696 	1.29065 	-2.86043e-20
30.4383 	-0.308924 	0.431696 	1.29065 	-2.86043e-20
30.5085 	-0.308924 	0.431696 	1.29065 	-2.86043e-20
30.5786 	-0.308924 	0.431696 	1.29065 	-2.86043e-20
30.6487 	-0.308924 	0.431696 	1.29065 	-2.86043e-20
30.7189 	-0.308924 	0.431696 	1.29065 	-2.86043e-20
30.789 	-0.293312 	0.348182 	1.31429 	6.8895e-19
30.8591 	-0.293312 	0.348182 	1.31429 	6.8895e-19
30.9293 	-0.293312 	0.348182 	1.31429 	6.8895e-19
30.9994 	-0.293312 	0.348182 	1.31429 	6.8895e-19
31.0695 	-0.293312 	0.348182 	1.31429 	6.8895e-19
31.1397 	-0.293312 	0.348182 	1.31429 	6.8895e-19
31.2098 	-0.293312 	0.348182 	1.31429 	6.8895e-19
31.2799 	-0.293312 	0.348182 	1.31429 	6.8895e-19
31.3501 	-0.293312 	0.348182 	1.31429 	6.8895e-19
31.4202 	-0.293312 	0.348182 	1.31429 	6.8895e-19
31.4903 	-0.293312 	0.348182 	1.31429 	6.8895e-19
31.5605 	-0.293312 	0.348182 	1.31429 	6.8895e-19
31.6306 	-0.293312 	0.348182 	1.31429 	6.8895e-19
31.7007 	-0.293312 	0.348182 	1.31429 	6.8895e-19
31.7709 	-0.293312 	0.348182 	1.31429 	6.8895e-19
31.841 	-0.293312 	0.348182 	1.31429 	6.8895e-19
31.9111 	-0.293312 	0.348182 	1.31429 	6.8895e-19
31.9813 	-0.293312 	0.348182 	1.31429 	6.8895e-19
32.0514 	-0.293312 	0.348182 	1.31429 	6.8895e-19
32.1216 	-0.293312 	0.348182 	1.31429 	6.8895e-19
32.1917 	-0.293312 	0.348182 	1.31429 	6.8895e-19
32.2618 	-0.293312 	0.348182 	1.31429 	6.8895e-19
32.332 	-0.293312 	0.348182 	1.31429 	6.8895e-19
32.4021 	-0.293312 	0.348182 	1.31429 	6.8895e-19
32.4722 	-0.293312 	0.348182 	1.31429 	6.8895e-19
32.5424 	-0.293312 	0.348182 	1.31429 	6.8895e-19
32.6125 	-0.293312 	0.348182 	1.31429 	6.8895e-19
32.6826 	-0.293312 	0.348182 	1.31429 	6.8895e-19
32.7528 	-0.293312 	0.348182 	1.31429 	6.8895e-19
32.8229 	-0.293312 	0.348182 	1.31429 	6.8895e-19
32.893 	-0.293312 	0.348182 	1.31429 	6.8895e-19
32.9632 	-0.293312 	0.348182 	1.31429 	6.8895e-19
33.0333 	-0.293312 	0.348182 	1.31429 	6.8895e-19
33.1034 	-0.293312 	0.348182 	1.31429 	6.8895e-19
33.1736 	-0.293312 	0.348182 	1.31429 	6.8895e-19
33.2437 	-0.293312 	0.348182 	1.31429 	6.8895e-19
33.3138 	-0.293312 	0.348182 	1.31429 	6.8895e-19
33.384 	-0.293312 	0.348182 	1.31429 	6.8895e-19
33.4541 	-0.293312 	0.348182 	1.31429 	6.8895e-19
33.5242 	-0.293312 	0.348182 	1.31429 	6.8895e-19
33.5944 	-0.293312 	0.348182 	1.31429 	6.8895e-19
33.6645 	-0.293312 	0.348182 	1.31429 	6.8895e-19
33.7346 	-0.355457 	0.350203 	1.3906 	-4.33741e-19
33.8048 	-0.355457 	0.350203 	1.3906 	-4.33741e-19
33.8749 	-0.355457 	0.350203 	1.3906 	-4.33741e-19
33.945 	-0.355457 	0.350203 	1.3906 	-4.33741e-19
34.0152 	-0.355457 	0.350203 	1.3906 	-4.33741e-19
34.0853 	-0.355457 	0.350203 	1.3906 	-4.33741e-19
34.1554 	-0.360264 	0.272962 	1.35108 	3.40097e-19
34.2256 	-0.360264 	0.272962 	1.35108 	3.40097e-19
34.2957 	-0.360264 	0.272962 	1.35108 	3.40097e-19
34.3659 	-0.360264 	0.272962 	1.35108 	3.40097e-19
34.436 	-0.360264 	0.272962 	1.35108 	3.40097e-19
34.5061 	-0.360264 	0.272962 	1.35108 	3.40097e-19
34.5763 	-0.360264 	0.272962 	1.35108 	3.40097e-19
34.6464 	-0.360264 	0.272962 	1.35108 	3.40097e-19
34.7165 	-0.0984582 	0.30101 	1.61586 	-2.13963e-19
34.7867 	-0.0984582 	0.30101 	1.61586 	-2.13963e-19
34.8568 	-0.0984582 	0.30101 	1.61586 	-2.13963e-19
34.9269 	-0.0984582 	0.30101 	1.61586 	-2.13963e-19
34.9971 	-0.0984582 	0.30101 	1.61586 	-2.13963e-19
35.0672 	-0.0984582 	0.30101 	1.61586 	-2.13963e-19
35.1373 	-0.0984582 	0.30101 	1.61586 	-2.13963e-19
35.2075 	-0.0984582 	0.30101 	1.61586 	-2.13963e-19
35.2776 	-0.0984582 	0.30101 	1.61586 	-2.13963e-19
35.3477 	-0.0984582 	0.30101 	1.61586 	-2.13963e-19
35.4179 	-0.0984582 	0.30101 	1.61586 	-2.13963e-19
35.488 	-0.0984582 	0.30101 	1.61586 	-2.13963e-19
35.5581 	-0.0984582 	0.30101 	1.61586 	-2.13963e-19
35.6283 	-0.0984582 	0.30101 	1.61586 	-2.13963e-19
35.6984 	-0.0984582 	0.30101 	1.61586 	-2.13963e-19
35.7685 	-0.0984582 	0.30101 	1.61586 	-2.13963e-19
35.8387 	-0.0984582 	0.30101 	1.61586 	-2.13963e-19
35.9088 	-0.0984582 	0.30101 	1.61586 	-2.13963e-19
35.9789 	-0.0984582 	0.30101 	1.61586 	-2.13963e-19
36.0491 	-0.135114 	0.211489 	1.6039 	0
36.1192 	-0.135114 	0.211489 	1.6039 	0
36.1893 	-0.135114 	0.211489 	1.6039 	0
36.2595 	-0.135114 	0.211489 	1.6039 	0
36.3296 	-0.135114 	0.211489 	1.6039 	0
36.3997 	-0.135114 	0.211489 	1.6039 	0
36.4699 	-0.135114 	0.211489 	1.6039 	0
36.54 	-0.135114 	0.211489 	1.6039 	0
36.6102 	-0.135114 	0.211489 	1.6039 	0
36.6803 	-0.135114 	0.211489 	1.6039 	0
36.7504 	-0.135114 	0.211489 	1.6039 	0
36.8206 	-0.135114 	0.211489 	1.6039 	0
36.8907 	-0.284386 	0.306694 	1.47062 	-2.73979e-19
36.9608 	-0.284386 	0.306694 	1.47062 	-2.73979e-19
37.031 	-0.284386 	0.306694 	1.47062 	-2.73979e-19
37.1011 	-0.284386 	0.306694 	1.47062 	-2.73979e-19
37.1712 	-0.284386 	0.306694 	1.47062 	-2.73979e-19
37.2414 	-0.284386 	0.306694 	1.47062 	-2.73979e-19
37.3115 	-0.284386 	0.306694 	1.47062 	-2.73979e-19
37.3816 	-0.284386 	0.306694 	1.47062 	-2.73979e-19
37.4518 	-0.284386 	0.306694 	1.47062 	-2.73979e-19
37.5219 	-0.284386 	0.306694 	1.47062 	-2.73979e-19
37.592 	-0.284386 	0.306694 	1.47062 	-2.73979e-19
37.6622 	-0.284386 	0.306694 	1.47062 	-2.73979e-19
37.7323 	-0.284386 	0.306694 	1.47062 	-2.73979e-19
37.8024 	-0.284386 	0.306694 	1.47062 	-2.73979e-19
37.8726 	-0.284386 	0.306694 	1.47062 	-2.73979e-19
37.9427 	-0.284386 	0.306694 	1.47062 	-2.73979e-19
38.0128 	-0.284386 	0.306694 	1.47062 	-2.73979e-19
38.083 	-0.284386 	0.306694 	1.47062 	-2.73979e-19
38.1531 	-0.284386 	0.306694 	1.47062 	-2.73979e-19
38.2232 	-0.289071 	0.294485 	1.63823 	3.01699e-19
38.2934 	-0.289071 	0.294485 	1.63823 	3.01699e-19
38.3635 	-0.289071 	0.294485 	1.63823 	3.01699e-19
38.4336 	-0.289071 	0.294485 	1.63823 	3.01699e-19
38.5038 	-0.289071 	0.294485 	1.63823 	3.01699e-19
38.5739 	-0.289071 	0.294485 	1.63823 	3.01699e-19
38.644 	-0.289071 	0.294485 	1.63823 	3.01699e-19
38.7142 	-0.289071 	0.294485 	1.63823 	3.01699e-19
38.7843 	-0.289071 	0.294485 	1.63823 	3.01699e-19
38.8545 	-0.289071 	0.294485 	1.63823 	3.01699e-19
38.9246 	-0.289071 	0.294485 	1.63823 	3.01699e-19
38.9947 	-0.289071 	0.294485 	1.63823 	3.01699e-19
39.0649 	-0.289071 	0.294485 	1.63823 	3.01699e-19
39.135 	-0.289071 	0.294485 	1.63823 	3.01699e-19
39.2051 	-0.38036 	0.320273 	1.65465 	0
39.2753 	-0.38036 	0.320273 	1.65465 	0
39.3454 	-0.38036 	0.320273 	1.65465 	0
39.4155 	-0.38036 	0.320273 	1.65465 	0
39.4857 	-0.38036 	0.320273 	1.65465 	0
39.5558 	-0.38036 	0.320273 	1.65465 	0
39.6259 	-0.38036 	0.320273 	1.65465 	0
39.6961 	-0.38036 	0.320273 	1.65465 	0
39.7662 	-0.38036 	0.320273 	1.65465 	0
39.8363 	-0.38036 	0.320273 	1.65465 	0
39.9065 	-0.38036 	0.320273 	1.65465 	0
39.9766 	-0.38036 	0.320273 	1.65465 	0
40.0467 	-0.38036 	0.320273 	1.65465 	0
40.1169 	-0.38036 	0.320273 	1.65465 	0
40.187 	-0.38036 	0.320273 	1.65465 	0
40.2571 	-0.38036 	0.320273 	1.65465 	0
40.3273 	-0.38036 	0.320273 	1.65465 	0
40.3974 	-0.38036 	0.320273 	1.65465 	0
40.4675 	-0.38036 	0.320273 	1.65465 	0
40.5377 	-0.38036 	0.320273 	1.65465 	0
40.6078 	-0.38036 	0.320273 	1.65465 	0
40.6779 	-0.427432 	0.299074 	1.63302 	2.54727e-19
40.7481 	-0.427432 	0.299074 	1.63302 	2.54727e-19
40.8182 	-0.427432 	0.299074 	1.63302 	2.54727e-19
40.8883 	-0.427432 	0.299074 	1.63302 	2.54727e-19
40.9585 	-0.427432 	0.299074 	1.63302 	2.54727e-19
41.0286 	-0.427432 	0.299074 	1.63302 	2.54727e-19
41.0988 	-0.427432 	0.299074 	1.63302 	2.54727e-19
41.1689 	-0.427432 	0.299074 	1.63302 	2.54727e-19
41.239 	-0.45699 	0.268906 	1.6657 	-4.79961e-19
41.3092 	-0.45699 	0.268906 	1.6657 	-4.79961e-19
41.3793 	-0.45699 	0.268906 	1.6657 	-4.79961e-19
41.4494 	-0.45699 	0.268906 	1.6657 	-4.79961e-19
41.5196 	-0.45699 	0.268906 	1.6657 	-4.79961e-19
41.5897 	-0.45699 	0.268906 	1.6657 	-4.79961e-19
41.6598 	-0.45699 	0.268906 	1.6657 	-4.79961e-19
41.73 	-0.45699 	0.268906 	1.6657 	-4.79961e-19
41.8001 	-0.45699 	0.268906 	1.6657 	-4.79961e-19
41.8702 	-0.45699 	0.268906 	1.6657 	-4.79961e-19
41.9404 	-0.45699 	0.268906 	1.6657 	-4.79961e-19
42.0105 	-0.45699 	0.268906 	1.6657 	-4.79961e-19
42.0806 	-0.45699 	0.268906 	1.6657 	-4.79961e-19
42.1508 	-0.45699 	0.268906 	1.6657 	-4.79961e-19
42.2209 	-0.45699 	0.268906 	1.6657 	-4.79961e-19
42.291 	-0.45699 	0.268906 	1.6657 	-4.79961e-19
42.3612 	-0.45699 	0.268906 	1.6657 	-4.79961e-19
42.4313 	-0.45699 	0.268906 	1.6657 	-4.79961e-19
42.5014 	-0.45699 	0.268906 	1.6657 	-4.79961e-19
42.5716 	-0.45699 	0.268906 	1.6657 	-4.79961e-19
42.6417 	-0.45699 	0.268906 	1.6657 	-4.79961e-19
42.7118 	-0.502663 	0.190098 	1.67193 	0
42.782 	-0.502663 	0.190098 	1.67193 	0
42.8521 	-0.502663 	0.190098 	1.67193 	0
42.9222 	-0.502663 	0.190098 	1.67193 	0
42.9924 	-0.545477 	-0.0251752 	1.80087 	0
43.0625 	-0.545477 	-0.0251752 	1.80087 	0
43.1327 	-0.545477 	-0.0251752 	1.80087 	0
43.2028 	-0.545477 	-0.0251752 	1.80087 	0
43.2729 	-0.545477 	-0.0251752 	1.80087 	0