0.490941 	1.76228 	0.00557421 	3.00062 	-5.44295e-20
0.561075 	1.76228 	0.00557421 	3.00062 	-5.44295e-20
0.63121 	1.76228 	0.00557421 	3.00062 	-5.44295e-20
0.701344 	1.76228 	0.00557421 	3.00062 	-5.44295e-20
0.771478 	1.76228 	0.00557421 	3.00062 	-5.44295e-20
0.841613 	1.76228 	0.00557421 	3.00062 	-5.44295e-20
0.911747 	1.76228 	0.00557421 	3.00062 	-5.44295e-20
0.981881 	1.76228 	0.00557421 	3.00062 	-5.44295e-20
1.05202 	1.76228 	0.00557421 	3.00062 	-5.44295e-20
1.12215 	1.76228 	0.00557421 	3.00062 	-5.44295e-20
1.19228 	1.76228 	0.00557421 	3.00062 	-5.44295e-20
1.26242 	1.76228 	0.00557421 	3.00062 	-5.44295e-20
1.33255 	1.72292 	0.0142925 	3.01437 	-5.57914e-20
1.40269 	1.72292 	0.0142925 	3.01437 	-5.57914e-20
1.47282 	1.72292 	0.0142925 	3.01437 	-5.57914e-20
1.54296 	1.72292 	0.0142925 	3.01437 	-5.57914e-20
1.61309 	1.72292 	0.0142925 	3.01437 	-5.57914e-20
1.68323 	1.72292 	0.0142925 	3.01437 	-5.57914e-20
1.75336 	1.72292 	0.0142925 	3.01437 	-5.57914e-20
1.82349 	1.72292 	0.0142925 	3.01437 	-5.57914e-20
1.89363 	1.72292 	0.0142925 	3.01437 	-5.57914e-20
1.96376 	1.72292 	0.0142925 	3.01437 	-5.57914e-20
2.0339 	1.72292 	0.0142925 	3.01437 	-5.57914e-20
2.10403 	1.72292 	0.0142925 	3.01437 	-5.57914e-20
2.17417 	1.66218 	0.0139901 	3.0319 	1.16244e-19
2.2443 	1.66218 	0.0139901 	3.0319 	1.16244e-19
2.31443 	1.66218 	0.0139901 	3.0319 	1.16244e-19
2.38457 	1.66218 	0.0139901 	3.0319 	1.16244e-19
2.4547 	1.66218 	0.0139901 	3.0319 	1.16244e-19
2.52484 	1.66218 	0.0139901 	3.0319 	1.16244e-19
2.59497 	1.66218 	0.0139901 	3.0319 	1.16244e-19
2.66511 	1.66218 	0.0139901 	3.0319 	1.16244e-19
2.73524 	1.66218 	0.0139901 	3.0319 	1.16244e-19
2.80538 	1.66218 	0.0139901 	3.0319 	1.16244e-19
2.87551 	1.66218 	0.0139901 	3.0319 	1.16244e-19
2.94564 	1.66218 	0.0139901 	3.0319 	1.16244e-19
3.01578 	1.58824 	0.0166744 	3.05883 	-1.35273e-20
3.08591 	1.58824 	0.0166744 	3.05883 	-1.35273e-20
3.15605 	1.58824 	0.0166744 	3.05883 	-1.35273e-20
3.22618 	1.58824 	0.0166744 	3.05883 	-1.35273e-20
3.29632 	1.58824 	0.0166744 	3.05883 	-1.35273e-20
3.36645 	1.58824 	0.0166744 	3.05883 	-1.35273e-20
3.43659 	1.58824 	0.0166744 	3.05883 	-1.35273e-20
3.50672 	1.58824 	0.0166744 	3.05883 	-1.35273e-20
3.57685 	1.58824 	0.0166744 	3.05883 	-1.35273e-20
3.64699 	1.58824 	0.0166744 	3.05883 	-1.35273e-20
3.71712 	1.58824 	0.0166744 	3.05883 	-1.35273e-20
3.78726 	1.58108 	0.00715861 	3.05546 	2.64975e-20
3.85739 	1.50216 	-0.000819151 	3.08419 	-1.95625e-19
3.92753 	1.50216 	-0.000819151 	3.08419 	-1.95625e-19
3.99766 	1.50216 	-0.000819151 	3.08419 	-1.95625e-19
4.06779 	1.50216 	-0.000819151 	3.08419 	-1.95625e-19
4.13793 	1.50216 	-0.000819151 	3.08419 	-1.95625e-19
4.20806 	1.50216 	-0.000819151 	3.08419 	-1.95625e-19
4.2782 	1.50216 	-0.000819151 	3.08419 	-1.95625e-19
4.34833 	1.50216 	-0.000819151 	3.08419 	-1.95625e-19
4.41847 	1.50216 	-0.000819151 	3.08419 	-1.95625e-19
4.4886 	1.50216 	-0.000819151 	3.08419 	-1.95625e-19
4.55874 	1.50216 	-0.000819151 	3.08419 	-1.95625e-19
4.62887 	1.50216 	-0.000819151 	3.08419 	-1.95625e-19
4.699 	1.50216 	-0.000819151 	3.08419 	-1.95625e-19
4.76914 	1.42345 	0.0055504 	3.10656 	3.80889e-19
4.83927 	1.42345 	0.0055504 	3.10656 	3.80889e-19
4.90941 	1.42345 	0.0055504 	3.10656 	3.80889e-19
4.97954 	1.42345 	0.0055504 	3.10656 	3.80889e-19
5.04968 	1.42345 	0.0055504 	3.10656 	3.80889e-19
5.11981 	1.42345 	0.0055504 	3.10656 	3.80889e-19
5.18994 	1.42345 	0.0055504 	3.10656 	3.80889e-19
5.26008 	1.42345 	0.0055504 	3.10656 	3.80889e-19
5.33021 	1.42345 	0.0055504 	3.10656 	3.80889e-19
5.40035 	1.42345 	0.0055504 	3.10656 	3.80889e-19
5.47048 	1.42345 	0.0055504 	3.10656 	3.80889e-19
5.54062 	1.42345 	0.0055504 	3.10656 	3.80889e-19
5.61075 	1.34881 	-0.00217488 	3.13363 	-1.85036e-19
5.68089 	1.34881 	-0.00217488 	3.13363 	-1.85036e-19
5.75102 	1.34881 	-0.00217488 	3.13363 	-1.85036e-19
5.82115 	1.34881 	-0.00217488 	3.13363 	-1.85036e-19
5.89129 	1.34881 	-0.00217488 	3.13363 	-1.85036e-19
5.96142 	1.34881 	-0.00217488 	3.13363 	-1.85036e-19
6.03156 	1.34881 	-0.00217488 	3.13363 	-1.85036e-19
6.10169 	1.34881 	-0.00217488 	3.13363 	-1.85036e-19
6.17183 	1.34881 	-0.00217488 	3.13363 	-1.85036e-19
6.24196 	1.34881 	-0.00217488 	3.13363 	-1.85036e-19
6.3121 	1.34881 	-0.00217488 	3.13363 	-1.85036e-19
6.38223 	1.34881 	-0.00217488 	3.13363 	-1.85036e-19
6.45236 	1.27752 	0.00532195 	3.15322 	0
6.5225 	1.27752 	0.00532195 	3.15322 	0
6.59263 	1.27752 	0.00532195 	3.15322 	0
6.66277 	1.27752 	0.00532195 	3.15322 	0
6.7329 	1.27752 	0.00532195 	3.15322 	0
6.80304 	1.27752 	0.00532195 	3.15322 	0
6.87317 	1.27752 	0.00532195 	3.15322 	0
6.9433 	1.27752 	0.00532195 	3.15322 	0
7.01344 	1.27752 	0.00532195 	3.15322 	0
7.08357 	1.27752 	0.00532195 	3.15322 	0
7.15371 	1.27752 	0.00532195 	3.15322 	0
7.22384 	1.27752 	0.00532195 	3.15322 	0
7.29398 	1.20951 	-0.00131036 	3.17795 	0
7.36411 	1.20951 	-0.00131036 	3.17795 	0
7.43425 	1.20951 	-0.00131036 	3.17795 	0
7.50438 	1.20951 	-0.00131036 	3.17795 	0
7.57451 	1.20951 	-0.00131036 	3.17795 	0
7.64465 	1.20951 	-0.00131036 	3.17795 	0
7.71478 	1.20951 	-0.00131036 	3.17795 	0
7.78492 	1.20951 	-0.00131036 	3.17795 	0
7.85505 	1.20951 	-0.00131036 	3.17795 	0
7.92519 	1.20951 	-0.00131036 	3.17795 	0
7.99532 	1.20951 	-0.00131036 	3.17795 	0
8.06545 	1.20951 	-0.00131036 	3.17795 	0
8.13559 	1.20951 	-0.00131036 	3.17795 	0
8.20572 	1.14232 	0.00772897 	3.1959 	3.68826e-22
8.27586 	1.14232 	0.00772897 	3.1959 	3.68826e-22
8.34599 	1.14232 	0.00772897 	3.1959 	3.68826e-22
8.41613 	1.14232 	0.00772897 	3.1959 	3.68826e-22
8.48626 	1.14232 	0.00772897 	3.1959 	3.68826e-22
8.5564 	1.14232 	0.00772897 	3.1959 	3.68826e-22
8.62653 	1.14232 	0.00772897 	3.1959 	3.68826e-22
8.69666 	1.14232 	0.00772897 	3.1959 	3.68826e-22
8.7668 	1.14232 	0.00772897 	3.1959 	3.68826e-22
8.83693 	1.14232 	0.00772897 	3.1959 	3.68826e-22
8.90707 	1.14232 	0.00772897 	3.1959 	3.68826e-22
8.9772 	1.14232 	0.00772897 	3.1959 	3.68826e-22
9.04734 	1.07584 	0.00347841 	3.21992 	2.78245e-19
9.11747 	1.07584 	0.00347841 	3.21992 	2.78245e-19
9.18761 	1.07584 	0.00347841 	3.21992 	2.78245e-19
9.25774 	1.07584 	0.00347841 	3.21992 	2.78245e-19
9.32787 	1.07584 	0.00347841 	3.21992 	2.78245e-19
9.39801 	1.07584 	0.00347841 	3.21992 	2.78245e-19
9.46814 	1.07584 	0.00347841 	3.21992 	2.78245e-19
9.53828 	1.07584 	0.00347841 	3.21992 	2.78245e-19
9.60841 	1.07584 	0.00347841 	3.21992 	2.78245e-19
9.67855 	1.07584 	0.00347841 	3.21992 	2.78245e-19
9.74868 	1.07584 	0.00347841 	3.21992 	2.78245e-19
9.81881 	1.07584 	0.00347841 	3.21992 	2.78245e-19
9.88895 	1.07584 	0.00347841 	3.21992 	2.78245e-19
9.95908 	1.00861 	0.0174802 	3.23762 	-1.56401e-21
10.0292 	1.00861 	0.0174802 	3.23762 	-1.56401e-21
10.0994 	1.00861 	0.0174802 	3.23762 	-1.56401e-21
10.1695 	1.00861 	0.0174802 	3.23762 	-1.56401e-21
10.2396 	1.00861 	0.0174802 	3.23762 	-1.56401e-21
10.3098 	1.00861 	0.0174802 	3.23762 	-1.56401e-21
10.3799 	1.00861 	0.0174802 	3.23762 	-1.56401e-21
10.45 	1.00861 	0.0174802 	3.23762 	-1.56401e-21
10.5202 	1.00861 	0.0174802 	3.23762 	-1.56401e-21
10.5903 	1.00861 	0.0174802 	3.23762 	-1.56401e-21
10.6604 	1.00861 	0.0174802 	3.23762 	-1.56401e-21
10.7306 	1.00861 	0.0174802 	3.23762 	-1.56401e-21
10.8007 	0.940693 	0.0232352 	3.26175 	-2.74432e-19
10.8708 	0.940693 	0.0232352 	3.26175 	-2.74432e-19
10.941 	0.940693 	0.0232352 	3.26175 	-2.74432e-19
11.0111 	0.940693 	0.0232352 	3.26175 	-2.74432e-19
11.0812 	0.940693 	0.0232352 	3.26175 	-2.74432e-19
11.1514 	0.940693 	0.0232352 	3.26175 	-2.74432e-19
11.2215 	0.940693 	0.0232352 	3.26175 	-2.74432e-19
11.2916 	0.940693 	0.0232352 	3.26175 	-2.74432e-19
11.3618 	0.940693 	0.0232352 	3.26175 	-2.74432e-19
11.4319 	0.940693 	0.0232352 	3.26175 	-2.74432e-19
11.502 	0.940693 	0.0232352 	3.26175 	-2.74432e-19
11.5722 	0.940693 	0.0232352 	3.26175 	-2.74432e-19
11.6423 	0.940693 	0.0232352 	3.26175 	-2.74432e-19
11.7124 	0.867103 	0.0542712 	3.28164 	-4.25373e-19
11.7826 	0.867103 	0.0542712 	3.28164 	-4.25373e-19
11.8527 	0.867103 	0.0542712 	3.28164 	-4.25373e-19
11.9228 	0.867103 	0.0542712 	3.28164 	-4.25373e-19
11.993 	0.867103 	0.0542712 	3.28164 	-4.25373e-19
12.0631 	0.867103 	0.0542712 	3.28164 	-4.25373e-19
12.1332 	0.867103 	0.0542712 	3.28164 	-4.25373e-19
12.2034 	0.867103 	0.0542712 	3.28164 	-4.25373e-19
12.2735 	0.867103 	0.0542712 	3.28164 	-4.25373e-19
12.3437 	0.867103 	0.0542712 	3.28164 	-4.25373e-19
12.4138 	0.867103 	0.0542712 	3.28164 	-4.25373e-19
12.4839 	0.867103 	0.0542712 	3.28164 	-4.25373e-19
12.5541 	0.867103 	0.0542712 	3.28164 	-4.25373e-19
12.6242 	0.784037 	0.0799594 	3.30838 	8.18601e-19
12.6943 	0.784037 	0.0799594 	3.30838 	8.18601e-19
12.7645 	0.784037 	0.0799594 	3.30838 	8.18601e-19
12.8346 	0.784037 	0.0799594 	3.30838 	8.18601e-19
12.9047 	0.784037 	0.0799594 	3.30838 	8.18601e-19
12.9749 	0.784037 	0.0799594 	3.30838 	8.18601e-19
13.045 	0.784037 	0.0799594 	3.30838 	8.18601e-19
13.1151 	0.784037 	0.0799594 	3.30838 	8.18601e-19
13.1853 	0.784037 	0.0799594 	3.30838 	8.18601e-19
13.2554 	0.784037 	0.0799594 	3.30838 	8.18601e-19
13.3255 	0.784037 	0.0799594 	3.30838 	8.18601e-19
13.3957 	0.784037 	0.0799594 	3.30838 	8.18601e-19
13.4658 	0.784037 	0.0799594 	3.30838 	8.18601e-19
13.5359 	0.676624 	0.155262 	3.34333 	-3.94894e-19
13.6061 	0.676624 	0.155262 	3.34333 	-3.94894e-19
13.6762 	0.676624 	0.155262 	3.34333 	-3.94894e-19
13.7463 	0.676624 	0.155262 	3.34333 	-3.94894e-19
13.8165 	0.676624 	0.155262 	3.34333 	-3.94894e-19
13.8866 	0.676624 	0.155262 	3.34333 	-3.94894e-19
13.9567 	0.676624 	0.155262 	3.34333 	-3.94894e-19
14.0269 	0.676624 	0.155262 	3.34333 	-3.94894e-19
14.097 	0.676624 	0.155262 	3.34333 	-3.94894e-19
14.1671 	0.676624 	0.155262 	3.34333 	-3.94894e-19
14.2373 	0.676624 	0.155262 	3.34333 	-3.94894e-19
14.3074 	0.676624 	0.155262 	3.34333 	-3.94894e-19
14.3776 	0.574835 	0.179762 	3.36428 	0
14.4477 	0.370729 	0.177778 	3.4231 	3.70617e-19
14.5178 	0.370729 	0.177778 	3.4231 	3.70617e-19
14.588 	0.370729 	0.177778 	3.4231 	3.70617e-19
14.6581 	0.370729 	0.177778 	3.4231 	3.70617e-19
14.7282 	0.370729 	0.177778 	3.4231 	3.70617e-19
14.7984 	0.370729 	0.177778 	3.4231 	3.70617e-19
14.8685 	0.396206 	0.202876 	3.41389 	-7.44981e-19
14.9386 	0.396206 	0.202876 	3.41389 	-7.44981e-19
15.0088 	0.396206 	0.202876 	3.41389 	-7.44981e-19
15.0789 	0.396206 	0.202876 	3.41389 	-7.44981e-19
15.149 	0.396206 	0.202876 	3.41389 	-7.44981e-19
15.2192 	0.156138 	0.267456 	3.48096 	3.69978e-19
15.2893 	0.156138 	0.267456 	3.48096 	3.69978e-19
15.3594 	0.156138 	0.267456 	3.48096 	3.69978e-19
15.4296 	0.283968 	0.338193 	3.43655 	4.46277e-20
15.4997 	0.283968 	0.338193 	3.43655 	4.46277e-20
15.5698 	0.283968 	0.338193 	3.43655 	4.46277e-20
15.64 	0.283968 	0.338193 	3.43655 	4.46277e-20
15.7101 	0.283968 	0.338193 	3.43655 	4.46277e-20
15.7802 	0.283968 	0.338193 	3.43655 	4.46277e-20
15.8504 	0.283968 	0.338193 	3.43655 	4.46277e-20
15.9205 	0.0262318 	0.340848 	3.5363 	9.32963e-20
15.9906 	0.0262318 	0.340848 	3.5363 	9.32963e-20
16.0608 	0.0262318 	0.340848 	3.5363 	9.32963e-20
16.1309 	0.238612 	0.426982 	3.44839 	2.11897e-19
16.201 	0.238612 	0.426982 	3.44839 	2.11897e-19
16.2712 	0.238612 	0.426982 	3.44839 	2.11897e-19
16.3413 	0.238612 	0.426982 	3.44839 	2.11897e-19
16.4114 	0.238612 	0.426982 	3.44839 	2.11897e-19
16.4816 	0.238612 	0.426982 	3.44839 	2.11897e-19
16.5517 	0.238612 	0.426982 	3.44839 	2.11897e-19
16.6219 	0.0516921 	0.526813 	3.52536 	0
16.692 	0.0516921 	0.526813 	3.52536 	0
16.7621 	0.0516921 	0.526813 	3.52536 	0
16.8323 	0.0516921 	0.526813 	3.52536 	0
16.9024 	0.0516921 	0.526813 	3.52536 	0
16.9725 	0.284422 	0.533967 	3.428 	1.96957e-19
17.0427 	0.284422 	0.533967 	3.428 	1.96957e-19
17.1128 	0.284422 	0.533967 	3.428 	1.96957e-19
17.1829 	0.284422 	0.533967 	3.428 	1.96957e-19
17.2531 	0.131921 	0.618953 	3.48041 	1.45514e-19
17.3232 	0.131921 	0.618953 	3.48041 	1.45514e-19
17.3933 	0.131921 	0.618953 	3.48041 	1.45514e-19
17.4635 	0.131921 	0.618953 	3.48041 	1.45514e-19
17.5336 	0.131921 	0.618953 	3.48041 	1.45514e-19
17.6037 	0.131921 	0.618953 	3.48041 	1.45514e-19
17.6739 	0.131921 	0.618953 	3.48041 	1.45514e-19
17.744 	0.131921 	0.618953 	3.48041 	1.45514e-19
17.8141 	0.131921 	0.618953 	3.48041 	1.45514e-19
17.8843 	0.131921 	0.618953 	3.48041 	1.45514e-19
17.9544 	0.210192 	0.635668 	3.40018 	0
18.0245 	0.210192 	0.635668 	3.40018 	0
18.0947 	0.210192 	0.635668 	3.40018 	0
18.1648 	0.210192 	0.635668 	3.40018 	0
18.2349 	0.210192 	0.635668 	3.40018 	0
18.3051 	0.210192 	0.635668 	3.40018 	0
18.3752 	0.210192 	0.635668 	3.40018 	0
18.4453 	0.210192 	0.635668 	3.40018 	0
18.5155 	0.210192 	0.635668 	3.40018 	0
18.5856 	0.115132 	0.725903 	3.44227 	0
18.6557 	0.115132 	0.725903 	3.44227 	0
18.7259 	0.115132 	0.725903 	3.44227 	0
18.796 	0.115132 	0.725903 	3.44227 	0
18.8662 	0.115132 	0.725903 	3.44227 	0
18.9363 	0.115132 	0.725903 	3.44227 	0
19.0064 	0.115132 	0.725903 	3.44227 	0
19.0766 	0.115132 	0.725903 	3.44227 	0
19.1467 	0.115132 	0.725903 	3.44227 	0
19.2168 	0.063591 	0.774571 	3.42361 	2.92458e-20
19.287 	0.293636 	0.699622 	3.21365 	-5.70388e-20
19.3571 	0.293636 	0.699622 	3.21365 	-5.70388e-20
19.4272 	0.293636 	0.699622 	3.21365 	-5.70388e-20
19.4974 	0.293636 	0.699622 	3.21365 	-5.70388e-20
19.5675 	0.293636 	0.699622 	3.21365 	-5.70388e-20
19.6376 	0.293636 	0.699622 	3.21365 	-5.70388e-20
19.7078 	0.293636 	0.699622 	3.21365 	-5.70388e-20
19.7779 	0.293636 	0.699622 	3.21365 	-5.70388e-20
19.848 	0.293636 	0.699622 	3.21365 	-5.70388e-20
19.9182 	0.241642 	0.764225 	3.29302 	-2.20859e-19
19.9883 	0.241642 	0.764225 	3.29302 	-2.20859e-19
20.0584 	0.241642 	0.764225 	3.29302 	-2.20859e-19
20.1286 	0.241642 	0.764225 	3.29302 	-2.20859e-19
20.1987 	0.241642 	0.764225 	3.29302 	-2.20859e-19
20.2688 	0.241642 	0.764225 	3.29302 	-2.20859e-19
20.339 	0.241642 	0.764225 	3.29302 	-2.20859e-19
20.4091 	0.241642 	0.764225 	3.29302 	-2.20859e-19
20.4792 	0.241642 	0.764225 	3.29302 	-2.20859e-19
20.5494 	0.241642 	0.764225 	3.29302 	-2.20859e-19
20.6195 	0.1813 	0.813294 	3.31909 	1.27899e-20
20.6896 	0.1813 	0.813294 	3.31909 	1.27899e-20
20.7598 	0.1813 	0.813294 	3.31909 	1.27899e-20
20.8299 	0.1813 	0.813294 	3.31909 	1.27899e-20
20.9 	0.267678 	0.703222 	2.74487 	-3.07776e-19
20.9702 	0.267678 	0.703222 	2.74487 	-3.07776e-19
21.0403 	0.267678 	0.703222 	2.74487 	-3.07776e-19
21.1105 	0.267678 	0.703222 	2.74487 	-3.07776e-19
21.1806 	0.267678 	0.703222 	2.74487 	-3.07776e-19
21.2507 	0.267678 	0.703222 	2.74487 	-3.07776e-19
21.3209 	0.225666 	0.763482 	2.94376 	0
21.391 	0.225666 	0.763482 	2.94376 	0
21.4611 	0.225666 	0.763482 	2.94376 	0
21.5313 	0.225666 	0.763482 	2.94376 	0
21.6014 	0.225666 	0.763482 	2.94376 	0
21.6715 	0.225666 	0.763482 	2.94376 	0
21.7417 	0.225666 	0.763482 	2.94376 	0
21.8118 	0.225666 	0.763482 	2.94376 	0
21.8819 	0.225666 	0.763482 	2.94376 	0
21.9521 	0.225666 	0.763482 	2.94376 	0
22.0222 	0.225666 	0.763482 	2.94376 	0
22.0923 	0.183253 	0.808809 	3.06065 	-1.19582e-19
22.1625 	0.183253 	0.808809 	3.06065 	-1.19582e-19
22.2326 	0.183253 	0.808809 	3.06065 	-1.19582e-19
22.3027 	0.183253 	0.808809 	3.06065 	-1.19582e-19
22.3729 	0.183253 	0.808809 	3.06065 	-1.19582e-19
22.443 	0.183253 	0.808809 	3.06065 	-1.19582e-19
22.5131 	0.183253 	0.808809 	3.06065 	-1.19582e-19
22.5833 	0.183253 	0.808809 	3.06065 	-1.19582e-19
22.6534 	0.183253 	0.808809 	3.06065 	-1.19582e-19
22.7235 	0.183253 	0.808809 	3.06065 	-1.19582e-19
22.7937 	0.183253 	0.808809 	3.06065 	-1.19582e-19
22.8638 	0.132319 	0.856474 	3.14028 	1.91255e-19
22.9339 	0.132319 	0.856474 	3.14028 	1.91255e-19
23.0041 	0.132319 	0.856474 	3.14028 	1.91255e-19
23.0742 	0.149483 	0.694099 	2.24027 	7.89189e-20
23.1443 	0.149483 	0.694099 	2.24027 	7.89189e-20
23.2145 	0.149483 	0.694099 	2.24027 	7.89189e-20
23.2846 	0.149483 	0.694099 	2.24027 	7.89189e-20
23.3548 	0.149483 	0.694099 	2.24027 	7.89189e-20
23.4249 	0.149483 	0.694099 	2.24027 	7.89189e-20
23.495 	0.149483 	0.694099 	2.24027 	7.89189e-20
23.5652 	0.149483 	0.694099 	2.24027 	7.89189e-20
23.6353 	0.149483 	0.694099 	2.24027 	7.89189e-20
23.7054 	0.101252 	0.734075 	2.41101 	-6.84385e-21
23.7756 	0.101252 	0.734075 	2.41101 	-6.84385e-21
23.8457 	0.101252 	0.734075 	2.41101 	-6.84385e-21
23.9158 	0.101252 	0.734075 	2.41101 	-6.84385e-21
23.986 	0.101252 	0.734075 	2.41101 	-6.84385e-21
24.0561 	0.101252 	0.734075 	2.41101 	-6.84385e-21
24.1262 	0.101252 	0.734075 	2.41101 	-6.84385e-21
24.1964 	0.101252 	0.734075 	2.41101 	-6.84385e-21
24.2665 	0.101252 	0.734075 	2.41101 	-6.84385e-21
24.3366 	0.101252 	0.734075 	2.41101 	-6.84385e-21
24.4068 	0.101252 	0.734075 	2.41101 	-6.84385e-21
24.4769 	0.101252 	0.734075 	2.41101 	-6.84385e-21
24.547 	0.101252 	0.734075 	2.41101 	-6.84385e-21
24.6172 	0.0560056 	0.780139 	2.56986 	6.8346e-20
24.6873 	0.0560056 	0.780139 	2.56986 	6.8346e-20
24.7574 	0.0560056 	0.780139 	2.56986 	6.8346e-20
24.8276 	0.0560056 	0.780139 	2.56986 	6.8346e-20
24.8977 	0.0560056 	0.780139 	2.56986 	6.8346e-20
24.9678 	0.0560056 	0.780139 	2.56986 	6.8346e-20
25.038 	0.0560056 	0.780139 	2.56986 	6.8346e-20
25.1081 	0.0560056 	0.780139 	2.56986 	6.8346e-20
25.1782 	0.0560056 	0.780139 	2.56986 	6.8346e-20
25.2484 	0.0560056 	0.780139 	2.56986 	6.8346e-20
25.3185 	0.0560056 	0.780139 	2.56986 	6.8346e-20
25.3886 	0.0560056 	0.780139 	2.56986 	6.8346e-20
25.4588 	0.0120617 	0.81614 	2.68036 	-2.31319e-20
25.5289 	0.0120617 	0.81614 	2.68036 	-2.31319e-20
25.5991 	0.0120617 	0.81614 	2.68036 	-2.31319e-20
25.6692 	0.0120617 	0.81614 	2.68036 	-2.31319e-20
25.7393 	0.0120617 	0.81614 	2.68036 	-2.31319e-20
25.8095 	0.0120617 	0.81614 	2.68036 	-2.31319e-20
25.8796 	0.0120617 	0.81614 	2.68036 	-2.31319e-20
25.9497 	0.0120617 	0.81614 	2.68036 	-2.31319e-20
26.0199 	0.0120617 	0.81614 	2.68036 	-2.31319e-20
26.09 	0.0196776 	0.615107 	1.74115 	-1.90536e-20
26.1601 	0.0196776 	0.615107 	1.74115 	-1.90536e-20
26.2303 	0.0196776 	0.615107 	1.74115 	-1.90536e-20
26.3004 	0.0196776 	0.615107 	1.74115 	-1.90536e-20
26.3705 	0.0196776 	0.615107 	1.74115 	-1.90536e-20
26.4407 	-0.0231119 	0.630461 	1.81519 	-1.3485e-20
26.5108 	-0.0231119 	0.630461 	1.81519 	-1.3485e-20
26.5809 	-0.0231119 	0.630461 	1.81519 	-1.3485e-20
26.6511 	-0.0231119 	0.630461 	1.81519 	-1.3485e-20
26.7212 	-0.0231119 	0.630461 	1.81519 	-1.3485e-20
26.7913 	-0.0231119 	0.630461 	1.81519 	-1.3485e-20
26.8615 	-0.0231119 	0.630461 	1.81519 	-1.3485e-20
26.9316 	-0.0231119 	0.630461 	1.81519 	-1.3485e-20
27.0017 	-0.0231119 	0.630461 	1.81519 	-1.3485e-20
27.0719 	-0.0231119 	0.630461 	1.81519 	-1.3485e-20
27.142 	-0.0231119 	0.630461 	1.81519 	-1.3485e-20
27.2121 	-0.0231119 	0.630461 	1.81519 	-1.3485e-20
27.2823 	-0.0231119 	0.630461 	1.81519 	-1.3485e-20
27.3524 	-0.0640985 	0.641136 	1.87345 	0
27.4225 	-0.0640985 	0.641136 	1.87345 	0
27.4927 	-0.0640985 	0.641136 	1.87345 	0
27.5628 	-0.0640985 	0.641136 	1.87345 	0
27.6329 	-0.0640985 	0.641136 	1.87345 	0
27.7031 	-0.0640985 	0.641136 	1.87345 	0
27.7732 	-0.0640985 	0.641136 	1.87345 	0
27.8434 	-0.0640985 	0.641136 	1.87345 	0
27.9135 	-0.0640985 	0.641136 	1.87345 	0
27.9836 	-0.0640985 	0.641136 	1.87345 	0
28.0538 	-0.0640985 	0.641136 	1.87345 	0
28.1239 	-0.0640985 	0.641136 	1.87345 	0
28.194 	-0.0640985 	0.641136 	1.87345 	0
28.2642 	-0.0640985 	0.641136 	1.87345 	0
28.3343 	-0.0640985 	0.641136 	1.87345 	0
28.4044 	-0.100092 	0.651028 	1.91618 	0
28.4746 	-0.100092 	0.651028 	1.91618 	0
28.5447 	-0.100092 	0.651028 	1.91618 	0
28.6148 	-0.100092 	0.651028 	1.91618 	0
28.685 	-0.100092 	0.651028 	1.91618 	0
28.7551 	-0.100092 	0.651028 	1.91618 	0
28.8252 	-0.100092 	0.651028 	1.91618 	0
28.8954 	-0.100092 	0.651028 	1.91618 	0
28.9655 	-0.100092 	0.651028 	1.91618 	0
29.0356 	-0.100092 	0.651028 	1.91618 	0
29.1058 	-0.100092 	0.651028 	1.91618 	0
29.1759 	-0.100092 	0.651028 	1.91618 	0
29.246 	-0.100092 	0.651028 	1.91618 	0
29.3162 	-0.100092 	0.651028 	1.91618 	0
29.3863 	-0.100092 	0.651028 	1.91618 	0
29.4564 	-0.131656 	0.648351 	1.92879 	-6.02805e-20
29.5266 	-0.131656 	0.648351 	1.92879 	-6.02805e-20
29.5967 	-0.131656 	0.648351 	1.92879 	-6.02805e-20
29.6668 	-0.131656 	0.648351 	1.92879 	-6.02805e-20
29.737 	-0.131656 	0.648351 	1.92879 	-6.02805e-20
29.8071 	-0.131656 	0.648351 	1.92879 	-6.02805e-20
29.8773 	-0.131656 	0.648351 	1.92879 	-6.02805e-20
29.9474 	-0.131656 	0.648351 	1.92879 	-6.02805e-20
30.0175 	-0.131656 	0.648351 	1.92879 	-6.02805e-20
30.0877 	-0.131656 	0.648351 	1.92879 	-6.02805e-20
30.1578 	-0.131656 	0.648351 	1.92879 	-6.02805e-20
30.2279 	-0.131656 	0.648351 	1.92879 	-6.02805e-20
30.2981 	-0.131656 	0.648351 	1.92879 	-6.02805e-20
30.3682 	-0.131656 	0.648351 	1.92879 	-6.02805e-20
30.4383 	-0.131656 	0.648351 	1.92879 	-6.02805e-20
30.5085 	-0.131656 	0.648351 	1.92879 	-6.02805e-20
30.5786 	-0.154097 	0.644102 	1.91525 	-2.842e-21
30.6487 	-0.154097 	0.644102 	1.91525 	-2.842e-21
30.7189 	-0.154097 	0.644102 	1.91525 	-2.842e-21
30.789 	-0.154097 	0.644102 	1.91525 	-2.842e-21
30.8591 	-0.154097 	0.644102 	1.91525 	-2.842e-21
30.9293 	-0.154097 	0.644102 	1.91525 	-2.842e-21
30.9994 	-0.154097 	0.644102 	1.91525 	-2.842e-21
31.0695 	-0.154097 	0.644102 	1.91525 	-2.842e-21
31.1397 	-0.154097 	0.644102 	1.91525 	-2.842e-21
31.2098 	-0.154097 	0.644102 	1.91525 	-2.842e-21
31.2799 	-0.154097 	0.644102 	1.91525 	-2.842e-21
31.3501 	-0.154097 	0.644102 	1.91525 	-2.842e-21
31.4202 	-0.154097 	0.644102 	1.91525 	-2.842e-21
31.4903 	-0.154097 	0.644102 	1.91525 	-2.842e-21
31.5605 	-0.196437 	0.520542 	1.61522 	-1.19514e-19
31.6306 	-0.196437 	0.520542 	1.61522 	-1.19514e-19
31.7007 	-0.196246 	0.50544 	1.6124 	7.53884e-20
31.7709 	-0.196246 	0.50544 	1.6124 	7.53884e-20
31.841 	-0.196246 	0.50544 	1.6124 	7.53884e-20
31.9111 	-0.196246 	0.50544 	1.6124 	7.53884e-20
31.9813 	-0.196246 	0.50544 	1.6124 	7.53884e-20
32.0514 	-0.196246 	0.50544 	1.6124 	7.53884e-20
32.1216 	-0.196246 	0.50544 	1.6124 	7.53884e-20
32.1917 	-0.196246 	0.50544 	1.6124 	7.53884e-20
32.2618 	-0.196246 	0.50544 	1.6124 	7.53884e-20
32.332 	-0.196246 	0.50544 	1.6124 	7.53884e-20
32.4021 	-0.196246 	0.50544 	1.6124 	7.53884e-20
32.4722 	-0.196246 	0.50544 	1.6124 	7.53884e-20
32.5424 	-0.196246 	0.50544 	1.6124 	7.53884e-20
32.6125 	-0.196246 	0.50544 	1.6124 	7.53884e-20
32.6826 	-0.196246 	0.50544 	1.6124 	7.53884e-20
32.7528 	-0.196246 	0.50544 	1.6124 	7.53884e-20
32.8229 	-0.196246 	0.50544 	1.6124 	7.53884e-20
32.893 	-0.196246 	0.50544 	1.6124 	7.53884e-20
32.9632 	-0.176517 	0.48209 	1.59605 	2.00769e-20
33.0333 	-0.176517 	0.48209 	1.59605 	2.00769e-20
33.1034 	-0.176517 	0.48209 	1.59605 	2.00769e-20
33.1736 	-0.176517 	0.48209 	1.59605 	2.00769e-20
33.2437 	-0.176517 	0.48209 	1.59605 	2.00769e-20
33.3138 	-0.176517 	0.48209 	1.59605 	2.00769e-20
33.384 	-0.176517 	0.48209 	1.59605 	2.00769e-20
33.4541 	-0.176517 	0.48209 	1.59605 	2.00769e-20
33.5242 	-0.176517 	0.48209 	1.59605 	2.00769e-20
33.5944 	-0.176517 	0.48209 	1.59605 	2.00769e-20
33.6645 	-0.176517 	0.48209 	1.59605 	2.00769e-20
33.7346 	-0.176517 	0.48209 	1.59605 	2.00769e-20
33.8048 	-0.176517 	0.48209 	1.59605 	2.00769e-20
33.8749 	-0.176517 	0.48209 	1.59605 	2.00769e-20
33.945 	-0.176517 	0.48209 	1.59605 	2.00769e-20
34.0152 	-0.176517 	0.48209 	1.59605 	2.00769e-20
34.0853 	-0.176517 	0.48209 	1.59605 	2.00769e-20
34.1554 	-0.176517 	0.48209 	1.59605 	2.00769e-20
34.2256 	-0.133688 	0.448061 	1.56752 	-8.31247e-21
34.2957 	-0.133688 	0.448061 	1.56752 	-8.31247e-21
34.3659 	-0.133688 	0.448061 	1.56752 	-8.31247e-21
34.436 	-0.133688 	0.448061 	1.56752 	-8.31247e-21
34.5061 	-0.133688 	0.448061 	1.56752 	-8.31247e-21
34.5763 	-0.133688 	0.448061 	1.56752 	-8.31247e-21
34.6464 	-0.133688 	0.448061 	1.56752 	-8.31247e-21
34.7165 	-0.133688 	0.448061 	1.56752 	-8.31247e-21
34.7867 	-0.133688 	0.448061 	1.56752 	-8.31247e-21
34.8568 	-0.133688 	0.448061 	1.56752 	-8.31247e-21
34.9269 	-0.133688 	0.448061 	1.56752 	-8.31247e-21
34.9971 	-0.133688 	0.448061 	1.56752 	-8.31247e-21
35.0672 	-0.133688 	0.448061 	1.56752 	-8.31247e-21
35.1373 	-0.133688 	0.448061 	1.56752 	-8.31247e-21
35.2075 	-0.133688 	0.448061 	1.56752 	-8.31247e-21
35.2776 	-0.133688 	0.448061 	1.56752 	-8.31247e-21
35.3477 	-0.133688 	0.448061 	1.56752 	-8.31247e-21
35.4179 	-0.133688 	0.448061 	1.56752 	-8.31247e-21
35.488 	-0.133688 	0.448061 	1.56752 	-8.31247e-21
35.5581 	-0.133688 	0.448061 	1.56752 	-8.31247e-21
35.6283 	-0.0811408 	0.386262 	1.53227 	-2.74652e-21
35.6984 	-0.0811408 	0.386262 	1.53227 	-2.74652e-21
35.7685 	-0.0811408 	0.386262 	1.53227 	-2.74652e-21
35.8387 	-0.0811408 	0.386262 	1.53227 	-2.74652e-21
35.9088 	-0.0811408 	0.386262 	1.53227 	-2.74652e-21
35.9789 	-0.0811408 	0.386262 	1.53227 	-2.74652e-21
36.0491 	-0.0811408 	0.386262 	1.53227 	-2.74652e-21
36.1192 	-0.0811408 	0.386262 	1.53227 	-2.74652e-21
36.1893 	-0.0811408 	0.386262 	1.53227 	-2.74652e-21
36.2595 	-0.0811408 	0.386262 	1.53227 	-2.74652e-21
36.3296 	-0.0811408 	0.386262 	1.53227 	-2.74652e-21
36.3997 	-0.0811408 	0.386262 	1.53227 	-2.74652e-21
36.4699 	-0.0811408 	0.386262 	1.53227 	-2.74652e-21
36.54 	-0.0811408 	0.386262 	1.53227 	-2.74652e-21
36.6102 	-0.0811408 	0.386262 	1.53227 	-2.74652e-21
36.6803 	-0.0811408 	0.386262 	1.53227 	-2.74652e-21
36.7504 	-0.0811408 	0.386262 	1.53227 	-2.74652e-21
36.8206 	-0.0811408 	0.386262 	1.53227 	-2.74652e-21
36.8907 	-0.0811408 	0.386262 	1.53227 	-2.74652e-21
36.9608 	-0.0811408 	0.386262 	1.53227 	-2.74652e-21
37.031 	-0.0811408 	0.386262 	1.53227 	-2.74652e-21
37.1011 	-0.047018 	0.315764 	1.50725 	0
37.1712 	-0.047018 	0.315764 	1.50725 	0
37.2414 	-0.047018 	0.315764 	1.50725 	0
37.3115 	-0.047018 	0.315764 	1.50725 	0
37.3816 	-0.047018 	0.315764 	1.50725 	0
37.4518 	-0.047018 	0.315764 	1.50725 	0
37.5219 	-0.047018 	0.315764 	1.50725 	0
37.592 	-0.047018 	0.315764 	1.50725 	0
37.6622 	-0.047018 	0.315764 	1.50725 	0
37.7323 	-0.047018 	0.315764 	1.50725 	0
37.8024 	-0.047018 	0.315764 	1.50725 	0
37.8726 	-0.047018 	0.315764 	1.50725 	0
37.9427 	-0.047018 	0.315764 	1.50725 	0
38.0128 	-0.047018 	0.315764 	1.50725 	0
38.083 	-0.047018 	0.315764 	1.50725 	0
38.1531 	-0.047018 	0.315764 	1.50725 	0
38.2232 	-0.047018 	0.315764 	1.50725 	0
38.2934 	-0.0333938 	0.249255 	1.49669 	0
38.3635 	-0.0333938 	0.249255 	1.49669 	0
38.4336 	-0.0333938 	0.249255 	1.49669 	0
38.5038 	-0.0333938 	0.249255 	1.49669 	0
38.5739 	-0.0333938 	0.249255 	1.49669 	0
38.644 	-0.0333938 	0.249255 	1.49669 	0
38.7142 	-0.0333938 	0.249255 	1.49669 	0
38.7843 	-0.0333938 	0.249255 	1.49669 	0
38.8545 	-0.0333938 	0.249255 	1.49669 	0
38.9246 	-0.0333938 	0.249255 	1.49669 	0
38.9947 	-0.0333938 	0.249255 	1.49669 	0
39.0649 	-0.0333938 	0.249255 	1.49669 	0
39.135 	-0.0333938 	0.249255 	1.49669 	0
39.2051 	-0.0333938 	0.249255 	1.49669 	0
39.2753 	-0.0333938 	0.249255 	1.49669 	0
39.3454 	-0.0333938 	0.249255 	1.49669 	0
39.4155 	-0.0333938 	0.249255 	1.49669 	0
39.4857 	-0.0333938 	0.249255 	1.49669 	0
39.5558 	-0.0387177 	0.187314 	1.50106 	0
39.6259 	-0.0387177 	0.187314 	1.50106 	0
39.6961 	-0.0387177 	0.187314 	1.50106 	0
39.7662 	-0.0387177 	0.187314 	1.50106 	0
39.8363 	-0.0387177 	0.187314 	1.50106 	0
39.9065 	-0.0387177 	0.187314 	1.50106 	0
39.9766 	-0.0387177 	0.187314 	1.50106 	0
40.0467 	-0.0387177 	0.187314 	1.50106 	0
40.1169 	-0.0387177 	0.187314 	1.50106 	0
40.187 	-0.0387177 	0.187314 	1.50106 	0
40.2571 	-0.0387177 	0.187314 	1.50106 	0
40.3273 	-0.0387177 	0.187314 	1.50106 	0
40.3974 	-0.0387177 	0.187314 	1.50106 	0
40.4675 	-0.0387177 	0.187314 	1.50106 	0
40.5377 	-0.0387177 	0.187314 	1.50106 	0
40.6078 	-0.0387177 	0.187314 	1.50106 	0
40.6779 	-0.0387177 	0.187314 	1.50106 	0
40.7481 	-0.0503076 	0.132681 	1.50765 	0
40.8182 	-0.0503076 	0.132681 	1.50765 	0
40.8883 	-0.0503076 	0.132681 	1.50765 	0
40.9585 	-0.0503076 	0.132681 	1.50765 	0
41.0286 	-0.0503076 	0.132681 	1.50765 	0
41.0988 	-0.0503076 	0.132681 	1.50765 	0
41.1689 	-0.0503076 	0.132681 	1.50765 	0
41.239 	-0.0503076 	0.132681 	1.50765 	0
41.3092 	-0.0503076 	0.132681 	1.50765 	0
41.3793 	-0.0503076 	0.132681 	1.50765 	0
41.4494 	-0.0503076 	0.132681 	1.50765 	0
41.5196 	-0.0503076 	0.132681 	1.50765 	0
41.5897 	-0.0503076 	0.132681 	1.50765 	0
41.6598 	-0.0503076 	0.132681 	1.50765 	0
41.73 	-0.0503076 	0.132681 	1.50765 	0
41.8001 	-0.0503076 	0.132681 	1.50765 	0
41.8702 	-0.0503076 	0.132681 	1.50765 	0
41.9404 	-0.0503076 	0.132681 	1.50765 	0
42.0105 	-0.0581769 	0.0866974 	1.50982 	0
42.0806 	-0.0581769 	0.0866974 	1.50982 	0
42.1508 	-0.0581769 	0.0866974 	1.50982 	0
42.2209 	-0.0581769 	0.0866974 	1.50982 	0
42.291 	-0.0581769 	0.0866974 	1.50982 	0
42.3612 	-0.0581769 	0.0866974 	1.50982 	0
42.4313 	-0.0581769 	0.0866974 	1.50982 	0
42.5014 	-0.0581769 	0.0866974 	1.50982 	0
42.5716 	-0.0581769 	0.0866974 	1.50982 	0
42.6417 	-0.0581769 	0.0866974 	1.50982 	0
42.7118 	-0.0581769 	0.0866974 	1.50982 	0
42.782 	-0.0581769 	0.0866974 	1.50982 	0
42.8521 	-0.0581769 	0.0866974 	1.50982 	0
42.9222 	-0.0581769 	0.0866974 	1.50982 	0
42.9924 	-0.0581769 	0.0866974 	1.50982 	0
43.0625 	-0.0581769 	0.0866974 	1.50982 	0
43.1327 	-0.0581769 	0.0866974 	1.50982 	0
43.2028 	-0.0584112 	0.0460436 	1.50682 	0
43.2729 	-0.0584112 	0.0460436 	1.50682 	0
43.3431 	-0.0584112 	0.0460436 	1.50682 	0
43.4132 	-0.0584112 	0.0460436 	1.50682 	0
43.4833 	-0.0584112 	0.0460436 	1.50682 	0
43.5535 	-0.0584112 	0.0460436 	1.50682 	0
43.6236 	-0.0584112 	0.0460436 	1.50682 	0
43.6937 	-0.0584112 	0.0460436 	1.50682 	0
43.7639 	-0.0584112 	0.0460436 	1.50682 	0
43.834 	-0.0584112 	0.0460436 	1.50682 	0
43.9041 	-0.0584112 	0.0460436 	1.50682 	0
43.9743 	-0.0584112 	0.0460436 	1.50682 	0
44.0444 	-0.0584112 	0.0460436 	1.50682 	0
44.1145 	-0.0584112 	0.0460436 	1.50682 	0
44.1847 	-0.0584112 	0.0460436 	1.50682 	0
44.2548 	-0.0584112 	0.0460436 	1.50682 	0