/*--------------------------------*- C++ -*----------------------------------*\
| =========                 |                                                 |
| \\      /  F ield         | OpenFOAM: The Open Source CFD Toolbox           |
|  \\    /   O peration     | Version:  2306                                  |
|   \\  /    A nd           | Website:  www.openfoam.com                      |
|    \\/     M anipulation  |                                                 |
\*---------------------------------------------------------------------------*/
FoamFile
{
    version     2.0;
    format      ascii;
    arch        "LSB;label=32;scalar=64";
    class       surfaceScalarField;
    location    "71";
    object      phi;
}
// * * * * * * * * * * * * * * * * * * * * * * * * * * * * * * * * * * * * * //

dimensions      [0 3 -1 0 0 0 0];

oriented        oriented;

internalField   nonuniform List<scalar> 
17370
(
-0.091098
0.093544
0.286565
-0.0749524
0.0569518
0.364776
-0.0409345
0.0299501
0.427152
-0.021195
0.0155948
0.504852
-0.0113451
0.0086459
0.602101
-0.00651363
0.00506075
0.72051
-0.00384151
0.00296988
0.863778
-0.00220204
0.00162646
1.03603
-0.00109644
0.000676176
1.24292
-0.000265255
-0.000129806
1.49159
0.000516594
-0.000930547
1.4916
0.00133551
-0.00183876
1.24319
0.00238471
-0.00311897
1.03637
0.0039646
-0.00516416
0.864106
0.00660625
-0.00873062
0.721182
0.0114224
-0.0156619
0.603454
0.0212513
-0.0299938
0.508182
0.040966
-0.0569733
0.432175
0.0749692
-0.0935537
0.36536
0.0911122
0.197899
-0.127349
0.088149
0.0392003
-0.364739
0.353795
-0.0726231
0.0835674
-0.446567
0.454372
-0.0816989
0.0738934
-0.520973
0.529529
-0.0657825
0.0572266
-0.612852
0.621021
-0.0494731
0.0413044
-0.727003
0.733795
-0.0343746
0.0275832
-0.867516
0.872456
-0.022238
0.0172981
-1.03855
1.04191
-0.0135757
0.0102202
-1.24472
1.24713
-0.00766207
0.00524701
-1.49284
1.49486
-0.0032768
0.00125736
-1.49269
1.49451
0.000565132
-0.00238796
-1.2441
1.24602
0.00436648
-0.00628341
-1.0376
1.04008
0.00862516
-0.0111061
-0.866158
0.869802
0.0143716
-0.0180158
-0.724477
0.729767
0.0228825
-0.0281727
-0.608885
0.615769
0.0349116
-0.0417957
-0.514987
0.522692
0.0499135
-0.0576179
-0.439772
0.447825
0.066113
-0.0741653
-0.375152
0.376999
0.0818985
-0.0837461
-0.256912
0.223413
0.0727476
-0.039248
-0.0686602
0.0589331
0.00972714
-0.0520595
0.0587504
-0.37455
0.367859
-0.0578594
0.0540287
-0.453835
0.457666
-0.0486666
0.0443233
-0.527751
0.532094
-0.0400954
0.0363083
-0.621112
0.624899
-0.0320788
0.028001
-0.734887
0.738965
-0.0235206
0.0195208
-0.874059
0.878059
-0.0153762
0.0118531
-1.04341
1.04693
-0.00827841
0.00520797
-1.24867
1.25174
-0.00196703
-0.00103819
-1.49695
1.49996
0.00402126
-0.00719993
-1.49743
1.5006
0.0101791
-0.0136274
-1.25009
1.25354
0.0170189
-0.0210097
-1.04572
1.04971
0.0248743
-0.0292221
-0.877307
0.881655
0.0331938
-0.0373188
-0.739301
0.743426
0.041018
-0.0451573
-0.626332
0.630471
0.0494252
-0.054714
-0.534927
0.540216
0.0584638
-0.0592533
-0.457911
0.458701
0.0524333
-0.0320489
-0.336381
0.315997
0.00978975
-0.0684924
0.0587027
-0.0531773
0.0491313
0.00404591
-0.0331435
0.0436257
-0.358396
0.347914
-0.0473335
0.0467397
-0.459528
0.460122
-0.0437561
0.0404799
-0.536042
0.539318
-0.0367614
0.0334181
-0.628466
0.631809
-0.0298431
0.0266823
-0.742282
0.745443
-0.0233207
0.020142
-0.881604
0.884783
-0.0165319
0.0131417
-1.05043
1.05382
-0.00939416
0.00594526
-1.25505
1.2585
-0.00210955
-0.0015462
-1.50334
1.507
0.00516961
-0.00891114
-1.50413
1.50787
0.0122312
-0.0157998
-1.25714
1.26071
0.0190027
-0.0223936
-1.05348
1.05687
0.0253792
-0.0285509
-0.885259
0.88843
0.0315585
-0.0349821
-0.74691
0.750333
0.0381974
-0.0417835
-0.634479
0.638065
0.0449451
-0.0477998
-0.544439
0.547293
0.0482587
-0.0443617
-0.45686
0.452963
0.0336529
-0.0162764
-0.296613
0.279236
0.00412219
-0.0528785
0.0487563
-0.0460135
0.0434928
0.00252074
-0.0228957
0.0332466
-0.337287
0.326937
-0.0390131
0.0399877
-0.459841
0.458867
-0.03876
0.0364515
-0.541998
0.544306
-0.0337995
0.0312259
-0.634814
0.637387
-0.0282062
0.0253353
-0.748518
0.751389
-0.0220875
0.0190792
-0.887796
0.890804
-0.0157477
0.0126251
-1.057
1.06012
-0.00906429
0.00564513
-1.26193
1.26534
-0.00170553
-0.00212191
-1.51077
1.51459
0.00590725
-0.00971847
-1.51168
1.51549
0.0129654
-0.0162907
-1.26417
1.2675
0.0191687
-0.022215
-1.06003
1.06308
0.0249692
-0.0279621
-0.891565
0.894558
0.0306237
-0.0334346
-0.75351
0.756321
0.0358321
-0.0383058
-0.641058
0.643532
0.040462
-0.0414897
-0.5491
0.550128
0.0403061
-0.0342344
-0.447751
0.441679
0.0235497
-0.0103087
-0.264034
0.250793
0.00261469
-0.0455532
0.0429385
-0.0413993
0.0396183
0.00178104
-0.016823
0.0260786
-0.317087
0.307832
-0.0326677
0.0347878
-0.457295
0.455175
-0.0343507
0.032656
-0.546319
0.548013
-0.0304401
0.0283207
-0.639698
0.641817
-0.0258804
0.0234852
-0.754017
0.756412
-0.0206396
0.0178672
-0.893678
0.89645
-0.0146589
0.0116095
-1.06317
1.06621
-0.0081339
0.00481091
-1.26867
1.272
-0.00096296
-0.002794
-1.51838
1.52214
0.00649579
-0.010182
-1.51923
1.52292
0.013287
-0.0164643
-1.27075
1.27392
0.0192032
-0.0220473
-1.06609
1.06894
0.0244914
-0.0270058
-0.897344
0.899858
0.0291297
-0.0313014
-0.758757
0.760929
0.0331965
-0.035183
-0.645714
0.647701
0.0366562
-0.0368207
-0.550672
0.550836
0.0343798
-0.0273441
-0.435036
0.428
0.0176393
-0.00745603
-0.239227
0.229043
0.00189583
-0.0407409
0.0388451
-0.0380848
0.0367474
0.0013374
-0.0128422
0.0207991
-0.299229
0.291272
-0.0275415
0.0304505
-0.452629
0.44972
-0.0306443
0.0295107
-0.549456
0.550589
-0.0275028
0.0255692
-0.643872
0.645806
-0.0233499
0.0212002
-0.75866
0.760809
-0.0186794
0.0161931
-0.899024
0.90151
-0.0132476
0.0103686
-1.06914
1.07202
-0.00701505
0.00378177
-1.27525
1.27848
-3.70241e-05
-0.0035961
-1.52581
1.52944
0.00716151
-0.0107026
-1.52652
1.53006
0.013663
-0.0166439
-1.27703
1.28001
0.0191332
-0.0216204
-1.07166
1.07415
0.0236959
-0.0258019
-0.90215
0.904256
0.0276093
-0.0294871
-0.762932
0.76481
0.0311367
-0.0328681
-0.649539
0.651271
0.0336789
-0.033104
-0.550634
0.550059
0.0297361
-0.022382
-0.420748
0.413394
0.0138478
-0.00577914
-0.220018
0.211949
0.00147716
-0.0371846
0.0357075
-0.0355797
0.034551
0.00102873
-0.0100257
0.0167508
-0.283955
0.27723
-0.0232296
0.026591
-0.446563
0.443201
-0.0273573
0.0266488
-0.551501
0.55221
-0.0248718
0.0230751
-0.647709
0.649506
-0.0209947
0.0189705
-0.762894
0.764918
-0.0165902
0.0142554
-0.903855
0.906189
-0.0115088
0.00881406
-1.07474
1.07743
-0.00564274
0.00254947
-1.2816
1.2847
0.00105786
-0.00456043
-1.53298
1.53649
0.00797856
-0.0113351
-1.5335
1.53685
0.0140896
-0.0167995
-1.28286
1.28557
0.0190142
-0.0211963
-1.07653
1.07871
0.023024
-0.0248904
-0.906247
0.908114
0.0264899
-0.0281463
-0.766568
0.768224
0.0295908
-0.0309864
-0.652856
0.654251
0.0312935
-0.029986
-0.549132
0.547825
0.0259925
-0.0187086
-0.406049
0.398765
0.0112579
-0.00466811
-0.204689
0.1981
0.00119868
-0.0343855
0.0331868
-0.0336481
0.0328484
0.000799671
-0.00793527
0.0135828
-0.271072
0.265425
-0.0195748
0.0231319
-0.439731
0.436173
-0.0243735
0.0239097
-0.552825
0.553289
-0.0224003
0.0207113
-0.651296
0.652985
-0.0187249
0.0167871
-0.766894
0.768832
-0.0145021
0.0122571
-0.908417
0.910662
-0.00961411
0.00703188
-1.08
1.08258
-0.00400784
0.00105628
-1.28767
1.29062
0.00238734
-0.00572668
-1.53988
1.54322
0.00896342
-0.0120993
-1.54008
1.54322
0.0146344
-0.017097
-1.28816
1.29062
0.0190923
-0.0210423
-1.08085
1.0828
0.0226645
-0.0243185
-0.909885
0.911539
0.0257348
-0.0271992
-0.769776
0.77124
0.0284484
-0.0294633
-0.655441
0.656456
0.0293965
-0.027417
-0.546185
0.544205
0.0230154
-0.0159904
-0.391606
0.384581
0.00944159
-0.00390096
-0.192084
0.186544
0.00100623
-0.0320964
0.0310901
-0.0321464
0.0315242
0.000622223
-0.00632179
0.0110476
-0.260265
0.255539
-0.0164462
0.0200015
-0.432615
0.42906
-0.0215641
0.0213239
-0.553674
0.553914
-0.0200447
0.0184151
-0.654689
0.656318
-0.0164832
0.0145935
-0.770739
0.772629
-0.0123663
0.0101794
-0.912805
0.914992
-0.007606
0.00509466
-1.08505
1.08756
-0.00216171
-0.000677394
-1.29346
1.2963
0.00397475
-0.00714645
-1.54644
1.54962
0.010191
-0.0131096
-1.54622
1.54913
0.0154477
-0.0176973
-1.29298
1.29523
0.0194945
-0.0212231
-1.08473
1.08646
0.0226497
-0.024106
-0.913103
0.914559
0.025357
-0.0266464
-0.772609
0.773899
0.027749
-0.0283417
-0.657257
0.65785
0.0279019
-0.0253539
-0.541955
0.539407
0.0206988
-0.0139976
-0.377727
0.371026
0.00815961
-0.00336709
-0.181415
0.176622
0.000873058
-0.0301604
0.0292873
-0.0309817
0.0305033
0.000478358
-0.00502205
0.00895236
-0.251237
0.247306
-0.0137122
0.0171162
-0.425586
0.422182
-0.0188593
0.018807
-0.554099
0.554151
-0.017721
0.0161249
-0.657994
0.65959
-0.0142143
0.0123382
-0.774501
0.776377
-0.0101278
0.00796303
-0.917084
0.919248
-0.00542496
0.00295919
-1.08997
1.09243
-9.60995e-05
-0.0026726
-1.29904
1.30181
0.00585188
-0.00887569
-1.55268
1.5557
0.0117452
-0.0144636
-1.55192
1.55464
0.016615
-0.0186565
-1.29737
1.29941
0.0202579
-0.0217696
-1.0882
1.08971
0.0230108
-0.0242865
-0.91593
0.917205
0.025389
-0.0265189
-0.775099
0.776229
0.0274262
-0.0276435
-0.658252
0.658469
0.0267946
-0.0237642
-0.53663
0.5336
0.018952
-0.0125646
-0.364499
0.358112
0.00726543
-0.00300149
-0.172126
0.167862
0.000783441
-0.0284682
0.0276847
-0.0300927
0.0297362
0.000356528
-0.00393204
0.00716275
-0.243749
0.240518
-0.0112716
0.0144141
-0.418921
0.415779
-0.0162109
0.0163091
-0.554174
0.554076
-0.0153032
0.0137774
-0.661223
0.662749
-0.0118602
0.00996517
-0.778248
0.780143
-0.00773314
0.00555491
-0.921324
0.923502
-0.00301459
0.000561147
-1.0948
1.09726
0.00227653
-0.00498934
-1.30448
1.3072
0.00807862
-0.0109813
-1.55862
1.56152
0.0136975
-0.0162294
-1.55723
1.55976
0.0181999
-0.0200371
-1.30135
1.30318
0.0214456
-0.0227437
-1.09125
1.09255
0.0238045
-0.0249066
-0.918395
0.919497
0.0258652
-0.0268274
-0.777264
0.778226
0.0274734
-0.027401
-0.658556
0.658484
0.0261057
-0.0226394
-0.530362
0.526896
0.0177113
-0.0115804
-0.351878
0.345747
0.00666843
-0.00276407
-0.163807
0.159903
0.000727312
-0.0269383
0.026211
-0.0294403
0.0291926
0.000247711
-0.00297547
0.00557408
-0.237624
0.235026
-0.009032
0.0118297
-0.412826
0.410029
-0.0135656
0.0137417
-0.55399
0.553814
-0.0127752
0.0112903
-0.664336
0.66582
-0.00934355
0.0074002
-0.78204
0.783983
-0.00511058
0.00288462
-0.925594
0.92782
-0.000305234
-0.00217751
-1.09962
1.1021
0.00502081
-0.0077141
-1.30983
1.31252
0.010745
-0.0135511
-1.56433
1.56714
0.0161318
-0.018489
-1.56217
1.56453
0.0202862
-0.0219247
-1.30491
1.30655
0.0231406
-0.0242201
-1.09391
1.09499
0.0250953
-0.026021
-0.920507
0.921433
0.0268354
-0.02763
-0.779076
0.77987
0.0279857
-0.027617
-0.658265
0.657897
0.0258646
-0.0219739
-0.52324
0.519349
0.0169285
-0.0109692
-0.339736
0.333776
0.00630946
-0.00262851
-0.156138
0.152457
0.0006979
-0.0255076
0.0248097
-0.0290024
0.0288581
0.000144295
-0.00208873
0.00409342
-0.232743
0.230738
-0.00689541
0.00927811
-0.407461
0.405078
-0.0108449
0.0110195
-0.553701
0.553526
-0.0100582
0.00857528
-0.667402
0.668885
-0.00657122
0.00454923
-0.785934
0.787956
-0.00216639
-0.000138571
-0.929961
0.932266
0.00280711
-0.00534989
-1.1045
1.10704
0.00823825
-0.0109443
-1.31514
1.31785
0.0139481
-0.0166799
-1.56986
1.57259
0.0191396
-0.0213308
-1.56675
1.56895
0.0229585
-0.0243989
-1.30807
1.30951
0.0254163
-0.0262634
-1.09617
1.09702
0.0269396
-0.0276717
-0.922252
0.922984
0.0283323
-0.0289842
-0.78053
0.781182
0.0290223
-0.0282651
-0.657323
0.656566
0.0260524
-0.021741
-0.515295
0.510983
0.016552
-0.010669
-0.327896
0.322013
0.00614335
-0.00257463
-0.148861
0.145292
0.0006898
-0.0241254
0.0234356
-0.0287713
0.0287314
3.98924e-05
-0.00122394
0.00264918
-0.22904
0.227615
-0.00478158
0.00668574
-0.40296
0.401056
-0.00797934
0.00806951
-0.553469
0.553379
-0.00706594
0.00554747
-0.670504
0.672022
-0.003447
0.00131235
-0.789988
0.792123
0.00120601
-0.00363641
-0.934494
0.936925
0.00642594
-0.00906747
-1.10951
1.11215
0.012042
-0.0147966
-1.32049
1.32324
0.0178067
-0.0204879
-1.57524
1.57792
0.0228411
-0.0248717
-1.57101
1.57304
0.0263295
-0.0275664
-1.31081
1.31205
0.0283776
-0.0289896
-1.098
1.09862
0.0294609
-0.0299871
-0.923606
0.924132
0.0304774
-0.0309128
-0.781615
0.78205
0.030663
-0.029431
-0.655605
0.654373
0.0267261
-0.0219613
-0.506513
0.501749
0.0165691
-0.0106513
-0.31616
0.310242
0.00614757
-0.00259242
-0.14176
0.138204
0.000700532
-0.0227506
0.02205
-0.0287502
0.0288183
-6.81001e-05
-0.000341735
0.00118001
-0.226496
0.225657
-0.00261359
0.00397301
-0.39945
0.39809
-0.00488936
0.00480878
-0.553467
0.553547
-0.00370383
0.00209595
-0.673729
0.675336
0.000135843
-0.00242318
-0.794273
0.79656
0.00512346
-0.00771957
-0.939273
0.941869
0.0106824
-0.0134672
-1.11472
1.1175
0.0165729
-0.0194122
-1.32594
1.32878
0.0224617
-0.0251143
-1.58053
1.58318
0.0273731
-0.0292451
-1.57493
1.5768
0.0305286
-0.0315546
-1.31313
1.31415
0.0321547
-0.0325231
-1.09939
1.09976
0.0327801
-0.0330873
-0.92454
0.924847
0.0333838
-0.0335224
-0.782167
0.782306
0.032962
-0.0311797
-0.65295
0.651168
0.0279269
-0.0226494
-0.49682
0.491542
0.0169721
-0.0108984
-0.304303
0.298229
0.00630776
-0.00267491
-0.134642
0.131009
0.000728018
-0.0213466
0.0206186
-0.0289544
0.0291404
-0.00018606
0.000582311
-0.000364974
-0.225133
0.224915
-0.000317908
0.0010544
-0.397055
0.396318
-0.00148591
0.0011546
-0.553874
0.554205
0.000100895
-0.00187809
-0.677189
0.678966
0.00430942
-0.00680302
-0.798873
0.801367
0.00973863
-0.012549
-0.944385
0.947196
0.0157389
-0.0187148
-1.12023
1.1232
0.0220004
-0.0249632
-1.33157
1.33453
0.0280855
-0.030729
-1.58576
1.5884
0.0328995
-0.0346078
-1.57853
1.58024
0.0357114
-0.0365129
-1.31499
1.31579
0.0368908
-0.037001
-1.10029
1.1004
0.0370266
-0.0370992
-0.925017
0.92509
0.037199
-0.0369528
-0.782079
0.781832
0.0360009
-0.033594
-0.649219
0.646812
0.0297169
-0.0238337
-0.486076
0.480193
0.0177632
-0.0114
-0.292073
0.28571
0.00661365
-0.00281655
-0.127327
0.12353
0.000770542
-0.0198805
0.01911
-0.0294112
0.0297466
-0.000335401
0.00162619
-0.0020494
-0.225041
0.225464
0.00221656
-0.00221063
-0.395912
0.395906
0.00239929
-0.00309829
-0.554912
0.555611
0.00459715
-0.00657445
-0.681036
0.683013
0.00924854
-0.0119975
-0.803878
0.806627
0.0152301
-0.0183128
-0.949931
0.953013
0.0217918
-0.0250122
-1.12613
1.12935
0.0285297
-0.0316556
-1.33746
1.34058
0.0348826
-0.0375328
-1.59098
1.59363
0.0396157
-0.0411448
-1.58178
1.58331
0.0420466
-0.0426126
-1.31636
1.31692
0.0427563
-0.0425847
-1.10066
1.10049
0.0423546
-0.0421756
-0.924982
0.924803
0.0420648
-0.0413343
-0.781183
0.780452
0.0399024
-0.0367627
-0.644255
0.641115
0.0321521
-0.0255348
-0.474083
0.467466
0.0189403
-0.0121438
-0.279201
0.272404
0.00705323
-0.00301035
-0.119645
0.115602
0.000825642
-0.0183237
0.0174981
-0.0301528
0.0306675
-0.000514697
0.00292355
-0.00411689
-0.226292
0.227486
0.00515652
-0.00595553
-0.396238
0.397037
0.00686938
-0.00803896
-0.556808
0.557978
0.00987014
-0.0121309
-0.685367
0.687628
0.0151392
-0.0182206
-0.8094
0.812482
0.0218285
-0.0252509
-0.956027
0.959449
0.0290883
-0.0326102
-1.13253
1.13605
0.036413
-0.0397388
-1.34367
1.347
0.0430949
-0.0457568
-1.5962
1.59886
0.0477405
-0.0490729
-1.58466
1.58599
0.0497389
-0.0500532
-1.3172
1.31751
0.0499418
-0.0494654
-1.10044
1.09996
0.0489608
-0.0485134
-0.924381
0.923933
0.0480684
-0.0468743
-0.779352
0.778158
0.0448045
-0.0407878
-0.637827
0.63381
0.0352984
-0.0277797
-0.46057
0.453051
0.0205052
-0.0131187
-0.265393
0.258006
0.00761445
-0.00324884
-0.111435
0.107069
0.00089064
-0.0166522
0.0157615
-0.0312527
0.0319913
-0.00073856
0.00443865
-0.00652236
-0.229091
0.231175
0.00863744
-0.0103507
-0.398244
0.399958
0.012097
-0.0138559
-0.559819
0.561578
0.0161548
-0.0188019
-0.690351
0.692998
0.0222553
-0.0257538
-0.815593
0.819092
0.0298273
-0.0336681
-0.962813
0.966654
0.0379426
-0.0418275
-1.13954
1.14343
0.0459671
-0.0495222
-1.35029
1.35384
0.053017
-0.0556784
-1.60144
1.6041
0.0575341
-0.058628
-1.58713
1.58822
0.0590207
-0.0590402
-1.31744
1.31746
0.0586489
-0.057845
-1.09957
1.09877
0.0570405
-0.0562925
-0.923164
0.922415
0.0554361
-0.0537054
-0.776632
0.774902
0.050856
-0.0457674
-0.629637
0.624548
0.0392051
-0.0305731
-0.445185
0.436553
0.0224378
-0.0142965
-0.250332
0.242191
0.00827339
-0.00351857
-0.102547
0.0977926
0.000960959
-0.014848
0.0138871
-0.0327941
0.0338244
-0.00103024
0.00633926
-0.00948689
-0.23368
0.236828
0.0128746
-0.0156529
-0.402198
0.404976
0.0183734
-0.0208499
-0.564223
0.566699
0.0237634
-0.0269204
-0.696206
0.699363
0.0309511
-0.0349787
-0.822629
0.826656
0.0396266
-0.0439735
-0.97045
0.974797
0.0487664
-0.0530705
-1.14729
1.15159
0.057584
-0.0613771
-1.35735
1.36115
0.0649918
-0.0676099
-1.60664
1.60926
0.0692814
-0.0700735
-1.58908
1.58987
0.0701316
-0.0697982
-1.31695
1.31662
0.0691038
-0.0679316
-1.09798
1.09681
0.0667897
-0.0657476
-0.921282
0.92024
0.0643566
-0.0619943
-0.772854
0.770492
0.058182
-0.051766
-0.619287
0.612871
0.0438832
-0.0338812
-0.427493
0.417491
0.0246843
-0.0156229
-0.23369
0.224629
0.00898884
-0.00379803
-0.0928584
0.0876676
0.00102964
-0.012904
0.0118743
-0.0349038
0.0363373
-0.00143351
0.00882438
-0.0133307
-0.240387
0.244894
0.0182162
-0.022234
-0.408467
0.412485
0.0260925
-0.0294382
-0.570351
0.573696
0.0331447
-0.0369736
-0.703199
0.707028
0.0417482
-0.0464369
-0.830724
0.835413
0.05178
-0.0567224
-0.979113
0.984056
0.0621049
-0.0668624
-1.15587
1.16062
0.0717505
-0.0757483
-1.36486
1.36886
0.0794115
-0.0818954
-1.61171
1.61419
0.0832833
-0.0836738
-1.59037
1.59076
0.0833371
-0.0825619
-1.31564
1.31487
0.0815055
-0.0799465
-1.09557
1.09401
0.0784819
-0.0770133
-0.918702
0.917233
0.075107
-0.0718755
-0.767772
0.764541
0.0668586
-0.0587875
-0.606245
0.598174
0.0492739
-0.0376004
-0.406973
0.3953
0.0271313
-0.017002
-0.215147
0.205018
0.0096946
-0.00405516
-0.0822907
0.0766512
0.00108696
-0.0108277
0.00974075
-0.037783
0.0397889
-0.0020059
0.0122759
-0.0185141
-0.249728
0.255967
0.0251993
-0.0306628
-0.417548
0.423011
0.0358695
-0.0402805
-0.578595
0.583006
0.0449889
-0.0496936
-0.711674
0.716378
0.0554226
-0.0609218
-0.840138
0.845637
0.0670793
-0.0726854
-0.988977
0.994584
0.0786841
-0.0838726
-1.16533
1.17051
0.089061
-0.093156
-1.37271
1.37681
0.0967146
-0.0989013
-1.61641
1.6186
0.0998466
-0.0996877
-1.59077
1.59061
0.0988624
-0.0975345
-1.31336
1.31204
0.0960617
-0.0940974
-1.09228
1.09032
0.0922676
-0.0902532
-0.915117
0.913102
0.0878015
-0.0834468
-0.760868
0.756513
0.0768984
-0.0667432
-0.589825
0.57967
0.0552156
-0.0415319
-0.383029
0.369345
0.0295886
-0.0182876
-0.194435
0.183134
0.0102965
-0.00424731
-0.0708439
0.0647947
0.00112075
-0.00864743
0.00752668
-0.0417545
0.0446442
-0.00288966
0.017297
-0.0257972
-0.262449
0.270949
0.03471
-0.0419162
-0.430111
0.437317
0.0487507
-0.0544419
-0.589446
0.595137
0.0604705
-0.0663337
-0.722055
0.727918
0.073221
-0.079643
-0.851146
0.857568
0.0866696
-0.0929222
-1.00015
1.0064
0.0994472
-0.104927
-1.17556
1.18104
0.110207
-0.114174
-1.38063
1.3846
0.117352
-0.118981
-1.62039
1.62202
0.119246
-0.118333
-1.58997
1.58905
0.11686
-0.114894
-1.30991
1.30795
0.112946
-0.110544
-1.08802
1.08562
0.108329
-0.10566
-0.910265
0.907595
0.102489
-0.0966392
-0.751566
0.745717
0.0881173
-0.0753466
-0.56913
0.556359
0.0613638
-0.0453279
-0.355021
0.338986
0.0317588
-0.0192718
-0.171402
0.158915
0.0106698
-0.00432153
-0.0586332
0.052285
0.00111667
-0.00641622
0.00529955
-0.0473983
0.0517845
-0.00438621
0.0250579
-0.0366364
-0.279709
0.291288
0.0484518
-0.0579839
-0.447191
0.456723
0.0668516
-0.0740443
-0.603505
0.610697
0.0816397
-0.0890347
-0.734717
0.742112
0.0971372
-0.104404
-0.863952
0.87122
0.112131
-0.118805
-1.01251
1.01918
0.125535
-0.130962
-1.18621
1.19164
0.13592
-0.139363
-1.38809
1.39153
0.141726
-0.142413
-1.62304
1.62373
0.141674
-0.139757
-1.58752
1.5856
0.137469
-0.134745
-1.3051
1.30238
0.132234
-0.129365
-1.08266
1.0798
0.126637
-0.123316
-0.903994
0.900672
0.11907
-0.111184
-0.739046
0.73116
0.100073
-0.0840501
-0.543032
0.527009
0.0671568
-0.0484965
-0.322359
0.303698
0.0332605
-0.0197143
-0.146127
0.132581
0.0106808
-0.00422525
-0.0459308
0.0394752
0.0010607
-0.00421381
0.00315311
-0.0557991
0.0633106
-0.00751152
0.0386641
-0.0547344
-0.303676
0.319747
0.0706223
-0.0833779
-0.470438
0.483194
0.0944382
-0.103027
-0.621215
0.629804
0.112152
-0.120834
-0.750053
0.758735
0.129878
-0.137566
-0.878249
0.885937
0.145396
-0.151877
-1.02544
1.03192
0.158124
-0.162852
-1.19643
1.20116
0.166811
-0.169114
-1.39418
1.39648
0.170084
-0.169373
-1.62355
1.62284
0.16727
-0.164053
-1.58292
1.5797
0.160731
-0.157079
-1.29867
1.29501
0.153928
-0.150579
-1.07608
1.07273
0.147289
-0.143056
-0.896023
0.89179
0.137186
-0.126446
-0.722064
0.711325
0.111912
-0.0918997
-0.510122
0.49011
0.0718113
-0.0504932
-0.284663
0.263345
0.0337647
-0.0194743
-0.11906
0.10477
0.0102776
-0.00394891
-0.0331907
0.026862
0.000949352
-0.00214383
0.00119448
-0.070296
0.0744578
-0.00416183
0.0295535
-0.0435226
-0.338357
0.352326
0.0576527
-0.0693732
-0.501289
0.51301
0.0798857
-0.0897139
-0.6422
0.652028
0.100722
-0.110843
-0.76691
0.77703
0.122099
-0.132138
-0.892712
0.90275
0.142867
-0.152443
-1.03747
1.04704
0.162489
-0.171143
-1.20481
1.21347
0.179807
-0.186796
-1.39764
1.40463
0.193142
-0.197451
-1.62096
1.62527
0.199707
-0.200512
-1.5755
1.5763
0.200161
-0.19923
-1.29027
1.28934
0.198521
-0.197345
-1.06801
1.06683
0.195711
-0.191409
-0.885535
0.881233
0.183044
-0.166562
-0.698794
0.682312
0.144114
-0.11455
-0.469
0.439435
0.0865875
-0.0585051
-0.242048
0.213965
0.0377923
-0.0210563
-0.0911722
0.0744362
0.0107536
-0.00398279
-0.0210259
0.014255
0.000917969
-0.00031019
-0.000607779
-0.0818709
0.0798654
0.00200559
0.00758431
-0.0168414
-0.369069
0.378326
0.0276243
-0.0359729
-0.529427
0.537776
0.044425
-0.0527085
-0.664466
0.67275
0.0628281
-0.0722815
-0.786747
0.796201
0.0823843
-0.0916205
-0.912222
0.921458
0.101457
-0.109893
-1.05633
1.06477
0.118928
-0.126345
-1.22194
1.22935
0.13372
-0.139391
-1.41133
1.417
0.144012
-0.146803
-1.62881
1.6316
0.147592
-0.146954
-1.57649
1.57585
0.145156
-0.142684
-1.28757
1.28509
0.140516
-0.138165
-1.0631
1.06075
0.135393
-0.129889
-0.872443
0.866939
0.12076
-0.105604
-0.661748
0.646592
0.0876252
-0.0661879
-0.408188
0.38675
0.047853
-0.0312505
-0.186535
0.169932
0.0198223
-0.0110063
-0.0588092
0.0499931
0.00566876
-0.00212656
-0.0077844
0.00424221
0.000425687
0.00162279
-0.00204848
-0.0833042
0.0803136
0.00299056
-0.00174134
-0.00361986
-0.38987
0.395231
0.010974
-0.017037
-0.550293
0.556356
0.0232891
-0.0305554
-0.683283
0.690549
0.0393286
-0.0475389
-0.804724
0.812935
0.0565266
-0.0645775
-0.929924
0.937974
0.0728986
-0.0803956
-1.07301
1.08051
0.0882012
-0.0946809
-1.23631
1.24279
0.100644
-0.104993
-1.42197
1.42632
0.108459
-0.10996
-1.63366
1.63517
0.109491
-0.107625
-1.57461
1.57274
0.104853
-0.101501
-1.2822
1.27884
0.0980594
-0.0944532
-1.05588
1.05228
0.0906159
-0.0848293
-0.857423
0.851637
0.0764714
-0.0638555
-0.628475
0.615859
0.0506268
-0.0364542
-0.36378
0.349607
0.0257719
-0.0169305
-0.153136
0.144295
0.0110566
-0.00650511
-0.041309
0.0367575
0.00355796
-0.00133646
-0.000761983
-0.00145952
0.000311195
0.00270798
-0.00301918
-0.0819715
0.0791298
0.0028417
-0.00551156
0.00295721
-0.403749
0.406304
0.00178429
-0.00638556
-0.565708
0.570309
0.0116691
-0.0177591
-0.698803
0.704893
0.0252356
-0.0322464
-0.82047
0.827481
0.0399058
-0.0467892
-0.945469
0.952352
0.0542774
-0.0605997
-1.08754
1.09387
0.0673517
-0.0724671
-1.24881
1.25392
0.0774351
-0.0808877
-1.43038
1.43384
0.0831949
-0.0834323
-1.63614
1.63638
0.0821344
-0.0794683
-1.57024
1.56758
0.0759898
-0.0714971
-1.27502
1.27052
0.0672799
-0.0626754
-1.04676
1.04216
0.0578559
-0.0520883
-0.841464
0.835696
0.0446978
-0.0351613
-0.600647
0.59111
0.0262881
-0.0181017
-0.33439
0.326203
0.0127111
-0.00868094
-0.134717
0.130687
0.00606459
-0.00393611
-0.0317189
0.0295905
0.00230088
-0.000978693
0.00378889
-0.00511107
0.000260521
0.00357442
-0.00383494
-0.0803517
0.0778137
0.00253796
-0.00675875
0.00587995
-0.412933
0.413812
-0.00242903
-0.000822093
-0.578083
0.581334
0.00512428
-0.0106537
-0.711783
0.717312
0.0169124
-0.0230318
-0.833758
0.839877
0.0296259
-0.0355596
-0.958748
0.964682
0.0419239
-0.0474715
-1.10001
1.10556
0.0530979
-0.0576485
-1.25884
1.26339
0.0617271
-0.0643891
-1.43684
1.43951
0.0658446
-0.0652999
-1.63634
1.63579
0.0632651
-0.0596667
-1.56409
1.56049
0.0555542
-0.0505043
-1.26574
1.26069
0.0455962
-0.0400178
-1.03605
1.03048
0.0347192
-0.0289241
-0.825828
0.820033
0.0228417
-0.0157732
-0.579321
0.572253
0.0102926
-0.0062629
-0.316674
0.312644
0.00423705
-0.00315947
-0.125493
0.124416
0.00256672
-0.00197988
-0.026796
0.0262092
0.00128796
-0.000631698
0.00671245
-0.00736871
0.000197346
0.00430731
-0.00450466
-0.0788026
0.0766048
0.00219787
-0.0067512
0.00643946
-0.419119
0.419431
-0.00441494
0.00180825
-0.587499
0.590106
0.00225709
-0.00696337
-0.722734
0.727441
0.0123067
-0.0175861
-0.845175
0.850454
0.0234028
-0.0286503
-0.97023
0.975478
0.0343891
-0.0391644
-1.11079
1.11556
0.0441001
-0.048047
-1.26759
1.27154
0.0514319
-0.0534806
-1.44181
1.44386
0.0542587
-0.0534792
-1.63503
1.63425
0.0508444
-0.0468454
-1.55629
1.55229
0.0422424
-0.0366535
-1.25524
1.24965
0.0314802
-0.0252255
-1.02395
1.01769
0.0194978
-0.0137624
-0.810861
0.805125
0.0084929
-0.00320875
-0.563206
0.557921
-2.47485e-05
0.00157602
-0.30657
0.305018
-0.0014807
0.000877174
-0.12191
0.122514
-0.000324701
-0.000175896
-0.0251504
0.025651
0.000277293
-0.000241465
0.00818905
-0.00822488
0.000107362
0.004833
-0.00494036
-0.0775553
0.0758132
0.0017421
-0.00596718
0.00604647
-0.423577
0.423498
-0.00446789
0.00255612
-0.595624
0.597536
0.00116955
-0.00540886
-0.732122
0.736361
0.010431
-0.0149343
-0.855301
0.859804
0.0199897
-0.0245817
-0.980657
0.985249
0.0299357
-0.0341806
-1.12033
1.12457
0.038443
-0.0420245
-1.27523
1.27881
0.0453362
-0.0469774
-1.44584
1.44748
0.0474695
-0.0462506
-1.63295
1.63173
0.0435928
-0.0390277
-1.54794
1.54337
0.0343283
-0.0286118
-1.24373
1.23801
0.0230249
-0.0166737
-1.01091
1.00456
0.0107047
-0.00463102
-0.796484
0.79041
0.000142387
0.00395337
-0.550299
0.546203
-0.00619524
0.00639027
-0.300967
0.300772
-0.00543318
0.00405267
-0.121885
0.123265
-0.0027297
0.00144506
-0.0257719
0.0270566
-0.000675445
0.000165732
0.00833907
-0.00782935
3.79294e-06
0.00508876
-0.00509255
-0.0767902
0.0753996
0.00139054
-0.00495916
0.00520998
-0.426965
0.426714
-0.00387338
0.00208422
-0.602593
0.604383
0.00144836
-0.00518915
-0.740479
0.74422
0.00944282
-0.0137339
-0.864219
0.86851
0.018341
-0.0229976
-0.989608
0.994264
0.0275212
-0.03148
-1.12887
1.13283
0.0357415
-0.038935
-1.28221
1.28541
0.041577
-0.0434282
-1.44895
1.4508
0.0438224
-0.042576
-1.63047
1.62922
0.0397288
-0.0353448
-1.53889
1.5345
0.0305914
-0.0247873
-1.23184
1.22604
0.0192126
-0.0127801
-0.997704
0.991272
0.00679405
-0.000801597
-0.782605
0.776613
-0.00343718
0.00690379
-0.539407
0.535941
-0.00873667
0.00872918
-0.297813
0.29782
-0.0074991
0.0057292
-0.12338
0.12515
-0.00414503
0.00249319
-0.0279038
0.0295557
-0.00133799
0.000484795
0.00736929
-0.0065161
-9.04806e-05
0.00506791
-0.00497743
-0.0765417
0.0753702
0.00117152
-0.00372498
0.00377651
-0.429894
0.429842
-0.00276172
0.00103436
-0.608896
0.610623
0.00233563
-0.00590082
-0.748147
0.751713
0.00993079
-0.0137642
-0.872549
0.876383
0.0184254
-0.0222197
-0.998299
1.00209
0.0266303
-0.0303215
-1.1369
1.14059
0.0343573
-0.037629
-1.28853
1.2918
0.040406
-0.0418683
-1.45234
1.4538
0.0423849
-0.0412963
-1.62782
1.62673
0.038823
-0.0344546
-1.52991
1.52554
0.0298798
-0.0242066
-1.22026
1.21459
0.0187848
-0.0124243
-0.984412
0.978052
0.00667234
-0.000639171
-0.769198
0.763165
-0.00361833
0.00691026
-0.529701
0.526409
-0.00877793
0.00895149
-0.295372
0.295198
-0.00803141
0.00641592
-0.125472
0.127088
-0.00485607
0.00309762
-0.030711
0.0324695
-0.00176942
0.000718834
0.00573003
-0.00467944
-0.000173955
0.00484187
-0.00466792
-0.0765685
0.0757368
0.000831709
-0.00259211
0.00220076
-0.432836
0.433228
-0.00135583
-0.00042443
-0.614384
0.616164
0.00347485
-0.00686694
-0.755233
0.758625
0.0106841
-0.0146051
-0.880041
0.883962
0.0185902
-0.0224939
-1.00606
1.00996
0.0268013
-0.030214
-1.14468
1.14809
0.0342537
-0.037386
-1.29482
1.29795
0.0401025
-0.0419716
-1.45561
1.45748
0.0428148
-0.0418313
-1.62561
1.62463
0.0394113
-0.0355699
-1.52129
1.51745
0.0313815
-0.0259254
-1.20876
1.2033
0.0206411
-0.0147441
-0.971515
0.965618
0.00884931
-0.00315745
-0.755992
0.7503
-0.001386
0.00482217
-0.52047
0.517034
-0.00663289
0.0073729
-0.292659
0.291919
-0.00699957
0.00594353
-0.127269
0.128325
-0.0046576
0.00311638
-0.0335747
0.0351159
-0.00186383
0.000817111
0.00376114
-0.00271443
-0.000218339
0.00445604
-0.0042377
-0.0770116
0.0763571
0.000654514
-0.00162846
0.00131597
-0.435955
0.436267
-6.05663e-05
-0.00181608
-0.619795
0.621671
0.00496771
-0.00818201
-0.76175
0.764965
0.0118095
-0.0152909
-0.887513
0.890994
0.0193613
-0.0229074
-1.01384
1.01738
0.0271143
-0.0309159
-1.15192
1.15572
0.0345264
-0.0379229
-1.30108
1.30448
0.0409773
-0.0428443
-1.4592
1.46106
0.043942
-0.0436179
-1.62381
1.62349
0.0415157
-0.0381813
-1.51344
1.5101
0.0341239
-0.0290813
-1.19789
1.19284
0.0242067
-0.0184804
-0.959273
0.953547
0.0129757
-0.00733015
-0.743366
0.73772
0.00263534
0.00127289
-0.511061
0.507153
-0.00346424
0.00466872
-0.289159
0.287955
-0.00498076
0.0045234
-0.128053
0.128511
-0.00373344
0.0026338
-0.035917
0.0370166
-0.00164191
0.000775758
0.00186072
-0.000994572
-0.00022565
0.00400986
-0.00378421
-0.0777466
0.0772794
0.000467184
-0.000580162
0.00016568
-0.439239
0.439654
0.0012411
-0.00333416
-0.624994
0.627087
0.00635351
-0.00938435
-0.767964
0.770995
0.0130763
-0.0163806
-0.894424
0.897728
0.0202617
-0.023902
-1.02139
1.02503
0.0279764
-0.0317061
-1.15934
1.16307
0.0354949
-0.0388699
-1.30775
1.31113
0.0420495
-0.0446039
-1.46318
1.46573
0.0460594
-0.0459387
-1.62305
1.62293
0.0444379
-0.0413463
-1.50663
1.50353
0.0378051
-0.0333064
-1.18776
1.18326
0.0285267
-0.023098
-0.947546
0.942117
0.0178343
-0.0121594
-0.731119
0.725444
0.00746895
-0.00305622
-0.50144
0.497027