/*--------------------------------*- C++ -*----------------------------------*\
| =========                 |                                                 |
| \\      /  F ield         | OpenFOAM: The Open Source CFD Toolbox           |
|  \\    /   O peration     | Version:  2306                                  |
|   \\  /    A nd           | Website:  www.openfoam.com                      |
|    \\/     M anipulation  |                                                 |
\*---------------------------------------------------------------------------*/
FoamFile
{
    version     2.0;
    format      ascii;
    arch        "LSB;label=32;scalar=64";
    class       volVectorField;
    location    "71";
    object      U;
}
// * * * * * * * * * * * * * * * * * * * * * * * * * * * * * * * * * * * * * //

dimensions      [0 1 -1 0 0 0 0];

internalField   nonuniform List<vector> 
8800
(
(0.984956 -0.0884515 0)
(1.00212 -0.056824 0)
(0.999653 -0.0305566 0)
(1.00001 -0.015863 0)
(1.0001 -0.00872226 0)
(1.00011 -0.00508656 0)
(1.00007 -0.00299705 0)
(1.00003 -0.00168573 0)
(0.999998 -0.000780544 0)
(1.00007 -7.74458e-05 0)
(0.999975 0.000636669 0)
(0.999985 0.00139848 0)
(1.00003 0.00242177 0)
(1.00006 0.0040122 0)
(1.00004 0.00671886 0)
(1.00001 0.0117425 0)
(0.999849 0.0220513 0)
(0.999172 0.0411648 0)
(1.00748 0.0768941 0)
(0.773655 0.0450715 0)
(0.361016 -0.0151704 0)
(1.04557 -0.0741952 0)
(1.0871 -0.0678804 0)
(1.04776 -0.0522894 0)
(1.0246 -0.0383842 0)
(1.01244 -0.0261036 0)
(1.00653 -0.0167507 0)
(1.00364 -0.0102259 0)
(1.00219 -0.00557022 0)
(1.00152 -0.00195369 0)
(1.00137 0.00128088 0)
(1.00172 0.00461055 0)
(1.0027 0.00851769 0)
(1.00473 0.0138422 0)
(1.00881 0.0215594 0)
(1.01734 0.0323726 0)
(1.03445 0.0457066 0)
(1.06549 0.0598086 0)
(1.09407 0.0729149 0)
(0.84219 0.0557172 0)
(0.217107 -0.00164579 0)
(1.07588 -0.0503433 0)
(1.09984 -0.0486993 0)
(1.06467 -0.0401465 0)
(1.04002 -0.0329801 0)
(1.02384 -0.0256742 0)
(1.01404 -0.0182743 0)
(1.00854 -0.0115276 0)
(1.00567 -0.00570605 0)
(1.00447 -0.000373056 0)
(1.00477 0.00477386 0)
(1.00661 0.0101054 0)
(1.01056 0.0161372 0)
(1.01786 0.0230247 0)
(1.03048 0.0302728 0)
(1.05063 0.0372642 0)
(1.08035 0.0445953 0)
(1.10617 0.0518004 0)
(0.94277 0.0413467 0)
(0.216421 0.00166906 0)
(0.175949 -0.000644593 0)
(1.01874 -0.0353937 0)
(1.10562 -0.041393 0)
(1.07816 -0.0362237 0)
(1.05292 -0.0301916 0)
(1.03566 -0.0244546 0)
(1.02362 -0.0187061 0)
(1.01567 -0.0126599 0)
(1.011 -0.00649878 0)
(1.00892 -0.000207961 0)
(1.00943 0.00599276 0)
(1.01252 0.0119541 0)
(1.01858 0.0177474 0)
(1.02831 0.0232884 0)
(1.04262 0.0286961 0)
(1.06334 0.0343422 0)
(1.09376 0.0402975 0)
(1.09408 0.0419127 0)
(0.828678 0.0228038 0)
(0.174788 0.000669335 0)
(0.154422 -0.00048638 0)
(0.957433 -0.0255332 0)
(1.10416 -0.0350544 0)
(1.08801 -0.0326035 0)
(1.06151 -0.0280439 0)
(1.04363 -0.0230341 0)
(1.03119 -0.0177485 0)
(1.02247 -0.012216 0)
(1.01681 -0.00628341 0)
(1.01408 0.000206849 0)
(1.01469 0.00669455 0)
(1.01852 0.012579 0)
(1.02542 0.017853 0)
(1.03562 0.0227802 0)
(1.05027 0.0275734 0)
(1.07195 0.0320368 0)
(1.10064 0.0359017 0)
(1.06901 0.0340257 0)
(0.740989 0.0143884 0)
(0.152672 0.000513923 0)
(0.13992 -0.000357475 0)
(0.900549 -0.0191831 0)
(1.09656 -0.0300971 0)
(1.09615 -0.0292034 0)
(1.06918 -0.0254396 0)
(1.05048 -0.0213232 0)
(1.03751 -0.016576 0)
(1.02846 -0.0113016 0)
(1.02242 -0.00556285 0)
(1.01935 0.000809515 0)
(1.01993 0.00718654 0)
(1.02394 0.0128268 0)
(1.03103 0.0177652 0)
(1.04152 0.0221979 0)
(1.05677 0.0261382 0)
(1.07936 0.0296059 0)
(1.10287 0.03226 0)
(1.03699 0.0281903 0)
(0.674215 0.0102797 0)
(0.137448 0.000389777 0)
(0.129299 -0.000272799 0)
(0.850896 -0.0148039 0)
(1.08425 -0.0259799 0)
(1.10187 -0.0262879 0)
(1.07605 -0.0229648 0)
(1.05683 -0.0192998 0)
(1.04341 -0.015068 0)
(1.03399 -0.0101611 0)
(1.0277 -0.00462994 0)
(1.02441 0.00155463 0)
(1.02484 0.00770599 0)
(1.02883 0.0130643 0)
(1.03605 0.0175905 0)
(1.04682 0.0214122 0)
(1.06245 0.0247209 0)
(1.08548 0.0276983 0)
(1.10198 0.0294651 0)
(1.00207 0.0236877 0)
(0.622137 0.00790671 0)
(0.125948 0.000311725 0)
(0.121208 -0.000209947 0)
(0.808668 -0.0116275 0)
(1.06902 -0.0223682 0)
(1.10543 -0.0236398 0)
(1.08233 -0.0207486 0)
(1.06267 -0.0172987 0)
(1.04898 -0.0133541 0)
(1.03929 -0.00877301 0)
(1.03271 -0.00350965 0)
(1.02918 0.0024489 0)
(1.02943 0.00833522 0)
(1.03335 0.0133421 0)
(1.04063 0.0174021 0)
(1.05149 0.0207314 0)
(1.06735 0.0236398 0)
(1.09074 0.0263064 0)
(1.09821 0.0271647 0)
(0.966732 0.0201564 0)
(0.580242 0.00636519 0)
(0.116789 0.000257051 0)
(0.114948 -0.000161585 0)
(0.773124 -0.0092473 0)
(1.05229 -0.0191849 0)
(1.10784 -0.0211847 0)
(1.08823 -0.0186673 0)
(1.06817 -0.015368 0)
(1.05423 -0.0115835 0)
(1.04434 -0.0072025 0)
(1.03753 -0.00217596 0)
(1.03371 0.00352755 0)
(1.03373 0.00910784 0)
(1.03752 0.0137347 0)
(1.04473 0.0173825 0)
(1.05559 0.0203274 0)
(1.07166 0.0229075 0)
(1.09472 0.0252233 0)
(1.09158 0.0252666 0)
(0.932282 0.0174351 0)
(0.545521 0.00531302 0)
(0.109229 0.000218626 0)
(0.110076 -0.000123059 0)
(0.743335 -0.00739881 0)
(1.03514 -0.0163585 0)
(1.10931 -0.0188692 0)
(1.09385 -0.0166578 0)
(1.0735 -0.0134518 0)
(1.05928 -0.00975775 0)
(1.04919 -0.00549389 0)
(1.04215 -0.000632921 0)
(1.03804 0.00482669 0)
(1.03776 0.0100879 0)
(1.04131 0.0143526 0)
(1.04837 0.0176347 0)
(1.0592 0.02023 0)
(1.07548 0.0225182 0)
(1.0974 0.024454 0)
(1.08248 0.0237227 0)
(0.899291 0.015375 0)
(0.515911 0.00458259 0)
(0.10278 0.000192086 0)
(0.106306 -9.11037e-05 0)
(0.718483 -0.00590685 0)
(1.01838 -0.0138174 0)
(1.10996 -0.0166268 0)
(1.09937 -0.0146892 0)
(1.07875 -0.011495 0)
(1.06423 -0.00783032 0)
(1.05391 -0.00362467 0)
(1.04661 0.00113069 0)
(1.04217 0.00638721 0)
(1.0415 0.0113513 0)
(1.04474 0.0152766 0)
(1.05161 0.0182085 0)
(1.06239 0.0204643 0)
(1.07884 0.0224877 0)
(1.09872 0.0240129 0)
(1.07129 0.0225323 0)
(0.867871 0.0138626 0)
(0.489941 0.00408345 0)
(0.0970928 0.000174852 0)
(0.103449 -6.33953e-05 0)
(0.697929 -0.00465418 0)
(1.00265 -0.0114947 0)
(1.10995 -0.0144205 0)
(1.10474 -0.0126756 0)
(1.084 -0.00944484 0)
(1.06916 -0.00575013 0)
(1.05858 -0.00154081 0)
(1.05096 0.00316022 0)
(1.0461 0.00826488 0)
(1.04498 0.0129651 0)
(1.04783 0.0165676 0)
(1.05448 0.0191545 0)
(1.06517 0.0210759 0)
(1.08176 0.0228395 0)
(1.09901 0.0239676 0)
(1.05827 0.0217083 0)
(0.837851 0.0128097 0)
(0.466511 0.00375943 0)
(0.0919064 0.000164944 0)
(0.101385 -3.78471e-05 0)
(0.681202 -0.0035529 0)
(0.988396 -0.00931988 0)
(1.10948 -0.0121642 0)
(1.10994 -0.0105304 0)
(1.08935 -0.00723987 0)
(1.07415 -0.00345481 0)
(1.06324 0.000823522 0)
(1.05524 0.00552657 0)
(1.04988 0.0105321 0)
(1.0482 0.0149982 0)
(1.0506 0.0182886 0)
(1.05696 0.0205309 0)
(1.06753 0.022113 0)
(1.08417 0.0236049 0)
(1.09828 0.0243083 0)
(1.04356 0.0212622 0)
(0.808889 0.0121441 0)
(0.444752 0.00357251 0)
(0.0870148 0.000160871 0)
(0.100052 -1.26259e-05 0)
(0.668001 -0.0025338 0)
(0.975983 -0.0072188 0)
(1.10889 -0.00979886 0)
(1.11511 -0.00819305 0)
(1.09486 -0.00480457 0)
(1.07927 -0.000865 0)
(1.06799 0.00354545 0)
(1.05952 0.0083173 0)
(1.05354 0.0132758 0)
(1.05119 0.0175348 0)
(1.05303 0.020519 0)
(1.05906 0.0224064 0)
(1.06948 0.0236325 0)
(1.08613 0.0248527 0)
(1.09629 0.0250964 0)
(1.02721 0.0211853 0)
(0.780546 0.0118135 0)
(0.423955 0.00349753 0)
(0.0822526 0.000161463 0)
(0.0994333 1.48385e-05 0)
(0.658169 -0.0015433 0)
(0.965729 -0.00512047 0)
(1.10849 -0.00726134 0)
(1.12037 -0.00558964 0)
(1.10062 -0.00205262 0)
(1.08462 0.00211023 0)
(1.07288 0.00672114 0)
(1.06383 0.0116331 0)
(1.05711 0.0165979 0)
(1.05394 0.0206752 0)
(1.05513 0.0233537 0)
(1.06074 0.0248679 0)
(1.07099 0.0257301 0)
(1.08754 0.0266328 0)
(1.09305 0.0263325 0)
(1.00917 0.0215183 0)
(0.752327 0.0117909 0)
(0.403525 0.00352041 0)
(0.0774833 0.000166229 0)
(0.0995488 3.71615e-05 0)
(0.651678 -0.000537353 0)
(0.957938 -0.00295423 0)
(1.10863 -0.00447874 0)
(1.1259 -0.00263287 0)
(1.10674 0.00111543 0)
(1.09028 0.00557581 0)
(1.07799 0.01047 0)
(1.06825 0.015595 0)
(1.06062 0.0206202 0)
(1.05648 0.0245354 0)
(1.05688 0.0269036 0)
(1.06201 0.0280406 0)
(1.07204 0.0285104 0)
(1.08818 0.0290411 0)
(1.0882 0.0280891 0)
(0.989261 0.02229 0)
(0.723678 0.0120604 0)
(0.382916 0.00363162 0)
(0.0725836 0.000174596 0)
(0.100457 7.48632e-05 0)
(0.648629 0.000502104 0)
(0.952929 -0.000640653 0)
(1.10968 -0.00136767 0)
(1.1319 0.00077368 0)
(1.11334 0.00481369 0)
(1.09636 0.00966675 0)
(1.08341 0.0149333 0)
(1.07282 0.0203504 0)
(1.0641 0.0254903 0)
(1.05879 0.0292587 0)
(1.05825 0.0312989 0)
(1.06281 0.0320431 0)
(1.07255 0.032096 0)
(1.08791 0.0322002 0)
(1.08151 0.0304574 0)
(0.967173 0.0235405 0)
(0.693982 0.0126141 0)
(0.361613 0.00382426 0)
(0.0674429 0.000186077 0)
(0.102338 0.000112977 0)
(0.649385 0.00168178 0)
(0.951053 0.00190516 0)
(1.11207 0.00217678 0)
(1.13858 0.00471814 0)
(1.12055 0.00919648 0)
(1.10298 0.014544 0)
(1.08924 0.0202823 0)
(1.07761 0.0260769 0)
(1.06757 0.0313838 0)
(1.06086 0.0350122 0)
(1.05922 0.0366812 0)
(1.06309 0.0370154 0)
(1.07249 0.0366162 0)
(1.08645 0.0362286 0)
(1.0727 0.0335228 0)
(0.94248 0.0253021 0)
(0.66258 0.0134442 0)
(0.339136 0.00408965 0)
(0.0619665 0.000199865 0)
(0.105267 0.000164147 0)
(0.654405 0.00314672 0)
(0.9528 0.0048394 0)
(1.11629 0.00626341 0)
(1.14616 0.00937856 0)
(1.12854 0.0144467 0)
(1.11028 0.020408 0)
(1.09558 0.0267317 0)
(1.08268 0.0329926 0)
(1.07104 0.0385076 0)
(1.06267 0.0419748 0)
(1.05976 0.0432307 0)
(1.06279 0.0431244 0)
(1.07177 0.0422227 0)
(1.08368 0.0413151 0)
(1.06138 0.0373976 0)
(0.914608 0.0276193 0)
(0.628757 0.0145434 0)
(0.315029 0.00441889 0)
(0.0560755 0.00021505 0)
(0.109527 0.00023116 0)
(0.664082 0.00484311 0)
(0.958617 0.00829623 0)
(1.12284 0.011069 0)
(1.15493 0.0149541 0)
(1.13753 0.020793 0)
(1.11843 0.027516 0)
(1.10254 0.0345548 0)
(1.08808 0.0413664 0)
(1.0745 0.0471088 0)
(1.06418 0.0503671 0)
(1.05978 0.0511443 0)
(1.06184 0.0505554 0)
(1.07031 0.0490774 0)
(1.07966 0.0475701 0)
(1.04701 0.0421915 0)
(0.882819 0.0305106 0)
(0.59174 0.0158868 0)
(0.288872 0.00479471 0)
(0.0497159 0.000230152 0)
(0.115458 0.000321169 0)
(0.679216 0.00695651 0)
(0.969156 0.0124799 0)
(1.13228 0.0168352 0)
(1.16527 0.0217125 0)
(1.14778 0.0285582 0)
(1.12762 0.0362174 0)
(1.11023 0.0441049 0)
(1.09383 0.0515303 0)
(1.07793 0.0574738 0)
(1.06532 0.0604288 0)
(1.05913 0.0606092 0)
(1.06017 0.0594893 0)
(1.06811 0.0573915 0)
(1.07411 0.0551868 0)
(1.02892 0.0479815 0)
(0.846216 0.0339689 0)
(0.550747 0.0174231 0)
(0.260338 0.00518926 0)
(0.0428738 0.000243075 0)
(0.123571 0.000450822 0)
(0.700766 0.00972569 0)
(0.98529 0.0177014 0)
(1.14528 0.0239097 0)
(1.17766 0.0300504 0)
(1.1596 0.0382024 0)
(1.13806 0.0469911 0)
(1.11873 0.0558459 0)
(1.09992 0.0638925 0)
(1.08122 0.0699276 0)
(1.06598 0.0724127 0)
(1.05777 0.0718576 0)
(1.05768 0.070075 0)
(1.06506 0.0672834 0)
(1.06665 0.0641205 0)
(1.00618 0.0548191 0)
(0.803747 0.0379246 0)
(0.505037 0.0190556 0)
(0.229252 0.00556011 0)
(0.0355924 0.000251146 0)
(0.134605 0.000636533 0)
(0.729966 0.013527 0)
(1.00818 0.0244294 0)
(1.16263 0.0328414 0)
(1.19271 0.0405687 0)
(1.17336 0.0504027 0)
(1.1499 0.0605117 0)
(1.12805 0.0703867 0)
(1.10622 0.0789428 0)
(1.08421 0.0848266 0)
(1.06598 0.0865694 0)
(1.05561 0.0850963 0)
(1.05431 0.0825649 0)
(1.06079 0.0788983 0)
(1.05653 0.0746153 0)
(0.977637 0.0626709 0)
(0.754247 0.0422142 0)
(0.45404 0.0206298 0)
(0.195693 0.00584915 0)
(0.0279917 0.000251319 0)
(0.149809 0.000931157 0)
(0.768827 0.0189802 0)
(1.03948 0.0334553 0)
(1.18527 0.0445755 0)
(1.21122 0.0544565 0)
(1.18937 0.0662055 0)
(1.1632 0.0777416 0)
(1.13802 0.0885101 0)
(1.11247 0.0972463 0)
(1.08662 0.102532 0)
(1.06512 0.103127 0)
(1.05247 0.100464 0)
(1.04994 0.0970558 0)
(1.05502 0.0926206 0)
(1.04288 0.0867181 0)
(0.941775 0.0713296 0)
(0.696567 0.0465335 0)
(0.397565 0.0219161 0)
(0.160124 0.00598316 0)
(0.0202859 0.000240298 0)
(0.171401 0.00144149 0)
(0.820634 0.0272366 0)
(1.08184 0.0463485 0)
(1.21433 0.0609997 0)
(1.23374 0.0736936 0)
(1.20773 0.0872366 0)
(1.17769 0.100002 0)
(1.14821 0.111154 0)
(1.11822 0.119395 0)
(1.08806 0.123373 0)
(1.06309 0.122248 0)
(1.04817 0.118054 0)
(1.04446 0.113583 0)
(1.04774 0.108269 0)
(1.02448 0.100286 0)
(0.896732 0.0803646 0)
(0.629902 0.0504144 0)
(0.336182 0.0226369 0)
(0.123551 0.00588854 0)
(0.0127973 0.000214827 0)
(0.202808 0.00257373 0)
(0.891172 0.0409957 0)
(1.13882 0.0669696 0)
(1.25022 0.0856936 0)
(1.26002 0.10107 0)
(1.2278 0.11586 0)
(1.19254 0.128891 0)
(1.1578 0.139288 0)
(1.12276 0.145914 0)
(1.08801 0.147574 0)
(1.05958 0.143988 0)
(1.04254 0.13787 0)
(1.03773 0.132134 0)
(1.0384 0.125793 0)
(0.999595 0.114904 0)
(0.840338 0.0890036 0)
(0.554469 0.0532541 0)
(0.271956 0.0225947 0)
(0.0878421 0.00554847 0)
(0.00602829 0.000173836 0)
(0.245614 0.00888541 8.47383e-20)
(0.984474 0.0683899 7.58651e-20)
(1.2081 0.101692 -2.66813e-20)
(1.28984 0.122271 0)
(1.28721 0.140214 -6.93368e-34)
(1.24741 0.154403 1.01631e-20)
(1.20618 0.165914 -1.8401e-20)
(1.16569 0.174125 0)
(1.12528 0.178046 3.80304e-34)
(1.08571 0.176587 -2.29586e-20)
(1.05366 0.170073 0)
(1.03443 0.16191 -2.7354e-20)
(1.02888 0.155191 -8.07338e-20)
(1.02564 0.148506 -3.80842e-20)
(0.96378 0.133002 -1.14654e-20)
(0.766038 0.0984817 -6.81267e-21)
(0.465116 0.0552437 0)
(0.203525 0.0221543 4.74549e-21)
(0.0530586 0.00522901 5.5795e-21)
(-4.96265e-05 0.000121823 9.91501e-20)
(0.275452 0.024418 6.0244e-20)
(1.06164 0.111434 1.07884e-21)
(1.26524 0.151177 7.00497e-21)
(1.32538 0.171878 0)
(1.31109 0.189663 -3.48107e-20)
(1.26427 0.201676 -3.97625e-20)
(1.21716 0.21087 -1.8491e-20)
(1.17087 0.216606 -6.61641e-20)
(1.12492 0.217781 0)
(1.08019 0.21328 9.77183e-20)
(1.04415 0.203968 9.70799e-20)
(1.02256 0.19384 2.88453e-20)
(1.01478 0.185527 1.05438e-19)
(1.00218 0.176737 1.48107e-19)
(0.906685 0.153769 0)
(0.664553 0.10785 2.08506e-19)
(0.359911 0.0565313 2.98252e-19)
(0.132573 0.0209398 3.29998e-19)
(0.0183054 0.00370565 -3.75442e-19)
(-0.00613939 -0.000509252 -6.96924e-21)
(0.276681 0.0406692 0)
(1.11057 0.167293 1.02222e-20)
(1.30388 0.211978 0)
(1.35306 0.232147 -4.37767e-20)
(1.3299 0.246831 0)
(1.27719 0.254924 -7.73952e-20)
(1.22456 0.260365 3.75683e-20)
(1.1728 0.262498 -1.3244e-19)
(1.12159 0.260032 -3.17869e-21)
(1.07199 0.251811 5.03444e-20)
(1.03224 0.239218 2.13116e-19)
(1.00846 0.226761 -3.93224e-22)
(0.998256 0.216546 -7.64896e-20)
(0.976407 0.20448 -1.3928e-19)
(0.854503 0.173335 1.64553e-19)
(0.590426 0.115857 -2.9085e-19)
(0.296734 0.0575071 -3.82529e-20)
(0.0943296 0.0194177 0)
(-0.00024553 0.00137803 -2.9905e-23)
(-0.00963971 -0.00135297 0)
(0.270107 0.054604 1.17792e-19)
(1.137 0.226352 -6.04023e-20)
(1.32774 0.277317 -4.96918e-20)
(1.37147 0.297619 2.02775e-20)
(1.34219 0.308299 -3.43374e-20)
(1.28508 0.311814 1.61435e-19)
(1.22791 0.312799 7.80203e-20)
(1.17143 0.31065 0)
(1.11554 0.303946 -2.50773e-19)
(1.0615 0.291474 0)
(1.01832 0.275188 -1.11461e-19)
(0.99244 0.260052 -1.38029e-19)
(0.979812 0.247599 -8.30852e-20)
(0.949638 0.231575 -1.00958e-19)
(0.811806 0.191976 0)
(0.541592 0.124622 0)
(0.26183 0.0600513 -2.48242e-19)
(0.0731115 0.018154 4.88487e-20)
(-0.0121986 -0.00138782 -2.84875e-20)
(-0.0124787 -0.00242223 -3.28223e-20)
(0.262171 0.0668115 -3.64002e-20)
(1.14847 0.285202 0)
(1.34082 0.3435 9.54959e-20)
(1.38155 0.364434 5.5538e-20)
(1.34805 0.371188 8.0143e-20)
(1.28773 0.370112 0)
(1.22702 0.366515 7.56009e-20)
(1.16666 0.359872 1.45631e-19)
(1.10675 0.348671 1.279e-19)
(1.04875 0.331661 2.36394e-19)
(1.0024 0.311368 0)
(0.974496 0.293265 -2.97017e-19)
(0.959541 0.278173 -1.79001e-19)
(0.922927 0.257955 -1.058e-19)
(0.777426 0.210744 6.4574e-19)
(0.510857 0.13492 7.64616e-20)
(0.243726 0.0641906 3.57852e-19)
(0.062339 0.017455 -1.68699e-18)
(-0.0195311 -0.00421471 9.93884e-19)
(-0.0147597 -0.00362276 -1.18026e-18)
(0.254466 0.0777894 -4.07276e-21)
(1.15035 0.341978 6.27307e-21)
(1.34604 0.408622 -8.8449e-21)
(1.38495 0.430694 -5.15983e-20)
(1.3484 0.433762 -6.48811e-20)
(1.2857 0.42827 3.58653e-21)
(1.2222 0.420234 -8.19009e-20)
(1.15866 0.409159 1.49928e-19)
(1.09532 0.393456 -2.74934e-19)
(1.0338 0.371831 0)
(0.984493 0.347387 -1.34345e-19)
(0.954553 0.326121 -3.15269e-21)
(0.937336 0.308271 -1.95779e-19)
(0.896191 0.283941 0)
(0.749158 0.230009 -1.39564e-19)
(0.491687 0.146833 -3.29354e-19)
(0.236116 0.0701022 8.7371e-19)
(0.0595781 0.0179223 -8.60902e-19)
(-0.0224084 -0.00648904 1.21502e-18)
(-0.016187 -0.0047814 -1.24401e-18)
(0.247854 0.0878678 -8.33442e-22)
(1.1462 0.395984 2.06939e-21)
(1.34557 0.471678 -1.67452e-20)
(1.38307 0.495205 1.84267e-20)
(1.34433 0.494986 -3.2191e-20)
(1.27982 0.485354 0)
(1.21408 0.473125 -7.51108e-20)
(1.14789 0.457805 -1.5662e-19)
(1.08157 0.43774 -1.42548e-19)
(1.01687 0.411572 0)
(0.9648 0.382974 -1.39032e-19)
(0.932821 0.358487 -1.72657e-19)
(0.913468 0.337803 2.12284e-19)
(0.869328 0.309492 -1.28721e-19)
(0.724591 0.249925 -6.08777e-19)
(0.478732 0.160401 3.59263e-19)
(0.234831 0.0775364 1.0609e-19)
(0.0618044 0.0197341 0)
(-0.0215563 -0.00777645 -1.17527e-18)
(-0.0166248 -0.00571076 -4.24567e-20)
(0.242464 0.097375 5.73418e-21)
(1.13835 0.44703 -7.70265e-21)
(1.34091 0.532208 6.26847e-21)
(1.37719 0.557248 6.91112e-20)
(1.33679 0.554199 -1.14406e-19)
(1.27091 0.540794 1.46209e-19)
(1.20335 0.524666 1.61838e-19)
(1.13489 0.505359 -2.50102e-19)
(1.06593 0.48115 8.86732e-20)
(0.998327 0.450595 -5.80303e-19)
(0.94364 0.417923 -1.57552e-19)
(0.909667 0.390236 0)
(0.888269 0.366728 2.30456e-19)
(0.84206 0.334737 2.76214e-19)
(0.701607 0.27011 3.2845e-19)
(0.468255 0.17493 -3.91011e-19)
(0.235466 0.0862639 -1.14997e-19)
(0.0666395 0.0230511 1.35484e-19)
(-0.017956 -0.00780574 0)
(-0.0161362 -0.00627233 -9.23849e-20)
(0.238225 0.106467 -1.05225e-19)
(1.12849 0.495224 5.5677e-20)
(1.33332 0.589993 -3.37613e-21)
(1.36833 0.616506 3.86886e-20)
(1.3266 0.611013 -4.88495e-20)
(1.25967 0.594202 -8.18848e-21)
(1.1906 0.574525 -1.77339e-19)
(1.12019 0.551537 -9.06071e-20)
(1.04887 0.523442 -2.47819e-19)
(0.978568 0.488716 6.53276e-22)
(0.921372 0.452097 -4.93238e-19)
(0.885428 0.421283 4.17525e-19)
(0.862083 0.395054 -2.5369e-19)
(0.814363 0.359473 3.04817e-19)
(0.67915 0.290053 0)
(0.457807 0.189952 -2.13168e-19)
(0.236323 0.0956754 6.21632e-22)
(0.0723407 0.0274857 -5.92365e-19)
(-0.0129304 -0.00680681 -8.6458e-20)
(-0.015034 -0.00651874 0)
(0.235043 0.115289 0)
(1.11761 0.540795 6.61944e-20)
(1.32376 0.645483 1.56461e-20)
(1.35733 0.672842 -3.19109e-20)
(1.31445 0.665226 -6.55184e-20)
(1.2467 0.645366 0)
(1.1764 0.622487 -7.90056e-20)
(1.10429 0.596146 -2.07725e-21)
(1.0308 0.56447 5.3144e-19)
(0.957939 0.525819 -7.96039e-20)
(0.898312 0.485407 -3.56446e-19)
(0.860466 0.451544 2.1701e-19)
(0.835304 0.422634 -4.46157e-21)
(0.786322 0.383513 3.24833e-19)
(0.655941 0.309435 1.98695e-19)
(0.445884 0.204854 -4.60678e-19)
(0.235415 0.105229 5.43745e-19)
(0.0772418 0.0325671 1.60964e-19)
(-0.00751156 -0.0049853 6.59745e-19)
(-0.013519 -0.00645422 -1.73618e-18)
(0.232822 0.12403 -3.90724e-20)
(1.10644 0.58392 5.09769e-20)
(1.3128 0.697984 -3.2608e-20)
(1.34481 0.726244 1.80108e-20)
(1.30092 0.716746 0)
(1.23253 0.694159 -6.36814e-20)
(1.1612 0.668426 2.67557e-19)
(1.08757 0.639071 1.98308e-19)
(1.01208 0.604133 0)
(0.936747 0.56183 -1.14955e-18)
(0.874735 0.517783 9.65896e-19)
(0.835036 0.480945 0)
(0.808137 0.449339 2.97297e-19)
(0.758004 0.406615 -4.41672e-21)
(0.631734 0.327884 -6.39449e-19)
(0.432133 0.218765 2.48755e-19)
(0.232009 0.114382 0)
(0.0803296 0.0377233 8.7012e-19)
(-0.00275143 -0.00281995 0)
(-0.0119176 -0.00619483 -8.23242e-19)
(0.231436 0.132724 4.803e-20)
(1.09537 0.624879 6.98552e-20)
(1.30113 0.747545 -3.12062e-20)
(1.33123 0.77674 0)
(1.28647 0.765554 -5.06438e-20)
(1.21758 0.740546 0)
(1.14538 0.71228 -2.61532e-19)
(1.07039 0.680244 -9.09936e-20)
(0.993015 0.642382 9.34447e-20)
(0.915277 0.596718 -5.68943e-19)
(0.850866 0.549205 9.96685e-20)
(0.80933 0.509409 0)
(0.780771 0.475043 -6.35814e-19)
(0.729397 0.428547 4.22121e-21)
(0.606156 0.344978 0)
(0.416315 0.23121 1.8695e-21)
(0.225874 0.122418 7.98748e-19)
(0.0808953 0.0422638 -7.51909e-19)
(0.000589485 -0.000830221 2.20952e-19)
(-0.0105027 -0.00586683 0)
(0.230565 0.141298 0)
(1.08474 0.663752 8.6446e-20)
(1.28889 0.794338 5.15728e-20)
(1.31703 0.82438 -5.05105e-21)
(1.27149 0.811674 -1.27077e-20)
(1.20221 0.78453 -1.43794e-19)
(1.12926 0.754036 9.89826e-20)
(1.05305 0.719641 -1.08559e-19)
(0.973889 0.679185 4.18645e-19)
(0.893752 0.63048 -9.11024e-19)
(0.826877 0.57967 -8.40561e-21)
(0.783481 0.5369 -2.781e-19)
(0.753305 0.499612 1.03288e-18)
(0.700667 0.44906 -5.10513e-21)
(0.579823 0.360284 -4.97735e-19)
(0.398456 0.241787 -8.80691e-19)
(0.217345 0.128834 0)
(0.0791492 0.0455909 0)
(0.00240916 0.000596041 2.38638e-19)
(-0.00938223 -0.0055877 -1.37858e-19)
(0.230428 0.14988 6.99537e-20)
(1.07476 0.70044 -1.98756e-19)
(1.27634 0.838524 -5.53077e-20)
(1.30253 0.86922 0)
(1.25627 0.855167 -2.9825e-21)
(1.1867 0.826141 -1.27137e-19)
(1.11313 0.793704 2.36136e-19)
(1.03579 0.757259 4.24706e-19)
(0.954923 0.714545 5.43846e-19)
(0.872383 0.663132 -7.44571e-19)
(0.802937 0.609218 -8.33023e-19)
(0.757582 0.563434 7.44347e-19)
(0.725765 0.522952 0)
(0.67175 0.46784 -2.27115e-19)
(0.552778 0.373398 -5.37887e-19)
(0.379006 0.249959 -6.33906e-19)
(0.206556 0.13331 -7.45592e-19)
(0.0754573 0.0474589 2.19456e-19)
(0.00287535 0.00129337 -1.2849e-19)
(-0.00857376 -0.005419 6.06503e-22)
(0.230412 0.158399 0)
(1.06551 0.735254 0)
(1.26374 0.880185 4.85892e-21)
(1.28798 0.911379 0)
(1.24106 0.896124 1.62354e-20)
(1.17127 0.865441 8.25213e-20)
(1.09718 0.831316 0)
(1.01882 0.793112 4.99497e-20)
(0.936321 0.748469 9.0769e-19)
(0.851365 0.694704 -1.71339e-18)
(0.779185 0.637914 0)
(0.731673 0.589062 -4.80003e-19)
(0.698078 0.545001 -5.9903e-21)
(0.642583 0.484636 -4.46338e-21)
(0.525191 0.383974 5.7642e-19)
(0.358096 0.255438 -1.25103e-23)
(0.194122 0.135466 -1.60698e-18)
(0.0701532 0.0478429 4.72249e-19)
(0.00229605 0.0012889 1.38982e-19)
(-0.00801609 -0.00534272 0)
(0.230574 0.166759 -2.85625e-19)
(1.05674 0.768431 -1.38142e-19)
(1.25122 0.919411 -1.73455e-19)
(1.27355 0.95099 1.44569e-19)
(1.22604 0.934622 -8.84732e-22)
(1.1561 0.902495 0)
(1.08158 0.866919 1.41253e-19)
(1.00231 0.827228 -1.11981e-19)
(0.918245 0.780979 7.81641e-21)
(0.830866 0.725233 1.26575e-19)
(0.755751 0.665844 1.0808e-18)
(0.705782 0.613891 -1.68403e-19)
(0.670155 0.565764 -6.37825e-19)
(0.613035 0.499243 -2.64723e-19)
(0.4971 0.391664 3.12396e-19)
(0.336311 0.257934 3.02077e-22)
(0.180604 0.135215 4.32808e-19)
(0.0638156 0.0467436 -1.01638e-18)
(0.00106505 0.000731905 1.19587e-18)
(-0.00761123 -0.00532511 1.71771e-19)
(0.230674 0.174888 1.09307e-19)
(1.04848 0.80004 -7.83855e-20)
(1.2389 0.956305 1.2266e-20)
(1.25937 0.988189 9.98465e-20)
(1.21135 0.970774 1.34921e-20)
(1.14133 0.937377 -1.40828e-19)
(1.06647 0.900567 3.95298e-20)
(0.986368 0.859632 -4.66154e-19)
(0.900834 0.812078 -1.00073e-18)
(0.811028 0.754736 -1.02206e-18)
(0.732777 0.6931 0)
(0.679939 0.638061 -7.41132e-19)
(0.641866 0.585328 9.20174e-19)
(0.582853 0.511486 0)
(0.468531 0.396017 -6.69436e-19)
(0.314456 0.256978 3.96568e-19)
(0.167096 0.132372 -4.65316e-19)
(0.0575564 0.0444231 -5.46649e-19)
(-0.000330235 -0.000160118 -9.62879e-19)
(-0.00733853 -0.00536152 -7.39668e-19)
(0.231125 0.182893 -1.24101e-19)
(1.04056 0.830078 8.37766e-20)
(1.22686 0.990943 1.89543e-19)
(1.24553 1.02306 1.50365e-19)
(1.19709 1.00468 -2.02108e-20)
(1.12706 0.970178 -7.11439e-20)
(1.05194 0.932311 1.33287e-19)
(0.971105 0.890366 -4.77822e-19)
(0.88418 0.841791 -5.93156e-19)
(0.79198 0.783236 1.07089e-18)
(0.710391 0.719764 2.3776e-18)
(0.654203 0.661746 0)
(0.61308 0.603874 0)
(0.551664 0.521321 -3.04535e-19)
(0.439184 0.396527 0)
(0.292884 0.251594 8.51505e-19)
(0.155273 0.126059 9.99472e-19)
(0.0534634 0.040701 0)
(-0.000708172 -0.0011647 0)
(-0.00718375 -0.00543496 7.94522e-19)
(0.231279 0.190474 1.42112e-19)
(1.033 0.858545 1.16713e-19)
(1.21515 1.02345 1.37936e-19)
(1.23209 1.05574 -1.49893e-19)
(1.18333 1.03643 -3.54825e-20)
(1.11335 1.00098 6.541e-20)
(1.03806 0.962214 -1.82221e-19)
(0.956588 0.91946 -1.38364e-21)
(0.868373 0.870127 -1.01534e-20)
(0.773825 0.810734 -8.65329e-21)
(0.688739 0.745898 1.22501e-18)
(0.628676 0.68512 0)
(0.583712 0.621673 9.3349e-19)
(0.519011 0.528907 6.50792e-19)
(0.408285 0.392902 1.56078e-18)
(0.271198 0.240285 4.5877e-19)
(0.146823 0.113277 -5.37263e-19)
(0.0563925 0.0319752 -3.14319e-19)
(0.00653224 -0.00372307 0)
(-0.00503798 -0.00490855 8.53255e-19)
(0.23176 0.198078 -3.21017e-19)
(1.02577 0.88553 0)
(1.20377 1.05388 1.64725e-19)
(1.2191 1.08629 -1.2882e-19)
(1.17014 1.06615 5.93416e-20)
(1.10024 1.02986 -5.59066e-20)
(1.02488 0.990332 3.47801e-19)
(0.942859 0.946948 -3.89793e-20)
(0.853461 0.897096 0)
(0.756646 0.83721 -1.18169e-18)
(0.667965 0.771527 -2.66537e-18)
(0.603504 0.708358 1.09565e-19)
(0.553778 0.639057 1.2908e-18)
(0.484533 0.534696 0)
(0.374549 0.385493 1.05383e-18)
(0.24701 0.221643 0)
(0.139507 0.0872965 0)
(0.0718281 0.00279351 -3.39724e-19)
(0.0443824 -0.0176593 0)
(0.0258455 0.00922232 2.28534e-19)
(0.231905 0.205099 -3.60275e-19)
(1.01882 0.911372 0)
(1.19271 1.08244 2.75857e-19)
(1.20652 1.11495 0)
(1.15747 1.09409 -3.95591e-20)
(1.08768 1.05711 0)
(1.01233 1.01698 1.59505e-20)
(0.929822 0.973167 6.55614e-20)
(0.83932 0.923055 7.43265e-20)
(0.740274 0.863042 -1.29418e-18)
(0.647876 0.797089 7.9792e-20)
(0.578423 0.732122 8.82454e-19)
(0.5228 0.656862 1.25884e-18)
(0.447256 0.539337 1.69581e-19)
(0.335892 0.375676 8.26668e-19)
(0.214946 0.196605 0)
(0.120834 0.0433748 1.13084e-18)
(0.067353 -0.0377626 -6.54314e-19)
(0.0396645 0.0419119 7.56043e-19)
(-0.0596181 0.437499 -8.96234e-19)
(0.232043 0.211935 2.99354e-19)
(1.01188 0.935861 4.67751e-19)
(1.18188 1.10944 0)
(1.1942 1.14216 9.55615e-21)
(1.14513 1.12084 1.23827e-19)
(1.0754 1.08341 2.56075e-20)
(1.00009 1.04294 1.16661e-19)
(0.917058 0.999047 0)
(0.825409 0.949086 4.90585e-19)
(0.724026 0.889527 -6.73646e-20)
(0.627541 0.824059 0)
(0.552136 0.758091 0)
(0.488708 0.676488 1.1315e-18)
(0.404643 0.543297 -5.25176e-19)
(0.288993 0.365261 -8.40347e-19)
(0.169889 0.168273 0)
(0.0708427 0.0564147 5.66135e-19)
(0.00491035 0.438431 -6.46399e-19)
(0.0306624 1.89967 -3.54751e-19)
(0.0613274 2.81332 -4.68174e-19)
(0.231984 0.218037 -2.24466e-19)
(1.00508 0.959153 -6.00729e-19)
(1.17131 1.13488 1.64473e-19)
(1.18215 1.1678 1.31155e-19)
(1.13313 1.14616 0)
(1.06349 1.10848 -3.48978e-21)
(0.988375 1.06792 1.53081e-19)
(0.904763 1.02416 -3.152e-20)
(0.812006 0.974676 7.34884e-20)
(0.708291 0.916063 1.23528e-18)
(0.607569 0.851802 1.35109e-18)
(0.525579 0.785968 9.9463e-19)
(0.452273 0.698119 1.14166e-18)
(0.358066 0.545713 -1.23892e-18)
(0.239345 0.358289 -1.27274e-18)
(0.114924 0.215353 0)
(0.0416913 0.840074 0)
(0.0961904 2.55781 3.10825e-19)
(0.0992412 3.20471 0)
(0.102067 3.38893 6.81394e-19)
(0.234944 0.223753 0)
(0.999003 0.98153 0)
(1.16071 1.1586 0)
(1.17017 1.19172 4.04933e-20)
(1.12114 1.1698 1.14579e-19)
(1.05172 1.13217 -2.76512e-20)
(0.977077 1.0918 9.60617e-20)
(0.892881 1.04839 -3.06057e-20)
(0.799061 0.999672 6.10773e-19)
(0.693084 0.942503 -1.71929e-20)
(0.588093 0.880204 2.67377e-18)
(0.499069 0.815641 -1.15109e-19)
(0.413582 0.722851 1.38388e-19)
(0.30981 0.544614 1.79887e-19)
(0.178342 0.37015 -8.4743e-21)
(0.0958282 0.966093 3.59478e-21)
(0.135657 2.73085 -1.65783e-18)
(0.142765 3.29419 -6.14354e-19)
(0.132667 3.42514 3.07145e-19)
(0.120977 3.44721 -3.34634e-19)
(0.155185 0.176256 1.28616e-19)
(0.988298 1.00588 0)
(1.14976 1.18078 -3.23564e-19)
(1.15867 1.21435 -3.57875e-19)
(1.10989 1.19247 2.86794e-19)
(1.04095 1.15513 3.90966e-20)
(0.966078 1.11463 -9.5516e-20)
(0.881497 1.07184 3.3079e-19)
(0.786716 1.02423 -4.9729e-19)
(0.678685 0.969011 0)
(0.569509 0.909466 1.31219e-18)
(0.473129 0.846896 -8.13892e-19)
(0.374807 0.753668 0)
(0.25346 0.541074 1.63332e-19)
(0.137943 0.72579 3.95443e-19)
(0.15123 2.50847 -4.58269e-19)
(0.205764 3.32222 5.05763e-19)
(0.187242 3.43658 2.72246e-19)
(0.155752 3.45823 2.98423e-19)
(0.134846 3.46861 4.7823e-19)
(0.274621 0.261398 -2.27064e-19)
(0.971737 1.01517 0)
(1.13138 1.20615 3.60361e-19)
(1.14349 1.24481 3.95742e-19)
(1.09242 1.22558 -3.24424e-19)
(1.02274 1.18862 -8.41034e-20)
(0.946868 1.14973 7.33624e-20)
(0.861766 1.10819 2.61591e-20)
(0.765631 1.06278 4.73207e-19)
(0.654754 1.01158 1.06591e-18)
(0.540037 0.95855 7.40064e-20)
(0.432164 0.900413 7.26141e-19)
(0.303096 0.788709 1.29843e-19)
(0.210155 0.904846 -1.6536e-19)
(0.225188 2.35931 -3.67572e-19)
(0.285119 3.32396 3.43251e-19)
(0.268636 3.46362 -3.85271e-19)
(0.233543 3.48598 -2.22642e-19)
(0.19741 3.51371 -1.79299e-19)
(0.146921 3.508 -1.71632e-20)
(0.263659 0.25888 0)
(0.969336 1.03794 1.062e-19)
(1.12286 1.2296 -7.53438e-20)
(1.13275 1.2685 -4.821e-20)
(1.08145 1.24878 -2.29417e-19)
(1.01171 1.21201 9.19691e-20)
(0.935525 1.17329 -3.17505e-20)
(0.850196 1.13256 2.32867e-20)
(0.75348 1.08864 -4.92464e-19)
(0.641186 1.04034 -2.66838e-20)
(0.523395 0.992261 -2.3835e-18)
(0.409763 0.937994 1.03979e-19)
(0.283489 0.854185 -1.22037e-19)
(0.251627 1.47994 -1.53694e-19)
(0.32592 3.10417 3.50368e-20)
(0.344882 3.46106 4.09201e-22)
(0.304434 3.51648 5.61372e-19)
(0.267735 3.54381 2.7117e-19)
(0.219529 3.56721 -6.22393e-20)
(0.16234 3.56351 -8.05654e-20)
(0.24806 0.256977 2.6886e-19)
(0.965455 1.06326 7.30805e-19)
(1.11391 1.25511 -2.16802e-19)
(1.12138 1.29354 -1.82284e-19)
(1.06986 1.27333 0)
(1.00024 1.2366 1.89828e-19)
(0.92404 1.19812 -1.68561e-20)
(0.838759 1.15819 2.01789e-20)
(0.741783 1.11587 -5.51863e-20)
(0.628621 1.07076 -9.64672e-19)
(0.508654 1.02808 -1.10031e-18)
(0.390987 0.977207 -8.46061e-19)
(0.285576 0.985385 -9.34055e-19)
(0.322119 2.21272 9.54497e-19)
(0.413087 3.3729 7.7932e-19)
(0.389357 3.51782 0)
(0.343607 3.56291 0)
(0.305656 3.60335 -5.01347e-20)
(0.256014 3.66194 0)
(0.175114 3.63871 -4.5014e-20)
(0.237691 0.258857 -4.06138e-19)
(0.959495 1.08947 -6.25521e-19)
(1.10351 1.2818 0)
(1.10864 1.3193 1.13761e-20)
(1.05699 1.29849 -2.5798e-19)
(0.98766 1.2617 3.22085e-19)
(0.91177 1.22351 6.16599e-21)