/*--------------------------------*- C++ -*----------------------------------*\
| =========                 |                                                 |
| \\      /  F ield         | OpenFOAM: The Open Source CFD Toolbox           |
|  \\    /   O peration     | Version:  2306                                  |
|   \\  /    A nd           | Website:  www.openfoam.com                      |
|    \\/     M anipulation  |                                                 |
\*---------------------------------------------------------------------------*/
FoamFile
{
    version     2.0;
    format      ascii;
    arch        "LSB;label=32;scalar=64";
    class       volVectorField;
    location    "2";
    object      U;
}
// * * * * * * * * * * * * * * * * * * * * * * * * * * * * * * * * * * * * * //

dimensions      [0 1 -1 0 0 0 0];

internalField   nonuniform List<vector> 
8800
(
(0.971278 -0.0849658 0)
(1.01138 -0.0587816 0)
(1.00106 -0.032172 0)
(0.997514 -0.0176031 0)
(0.99606 -0.00977685 0)
(0.995397 -0.00568649 0)
(0.995058 -0.00340201 0)
(0.995037 -0.00211455 0)
(0.995032 -0.0011246 0)
(0.995016 -0.00019548 0)
(0.995018 0.000695073 0)
(0.995034 0.00161614 0)
(0.995017 0.00268877 0)
(0.995192 0.00445395 0)
(0.995651 0.00742774 0)
(0.996649 0.0131283 0)
(0.998827 0.0238517 0)
(1.00479 0.0430602 0)
(1.01704 0.0755891 0)
(0.764445 0.0453791 0)
(0.441997 -0.00991666 0)
(1.05003 -0.0388051 0)
(1.06702 -0.0391189 0)
(1.04093 -0.0371507 0)
(1.02272 -0.0314389 0)
(1.01193 -0.0241227 0)
(1.00625 -0.0171152 0)
(1.00333 -0.0112964 0)
(1.00201 -0.00654123 0)
(1.00129 -0.00262122 0)
(1.00118 0.00124303 0)
(1.00157 0.00516318 0)
(1.00253 0.00937058 0)
(1.00438 0.0143385 0)
(1.0086 0.0205435 0)
(1.01665 0.0279406 0)
(1.03086 0.0348273 0)
(1.05332 0.0388213 0)
(1.07465 0.0379775 0)
(0.901167 0.0333561 0)
(0.359698 -0.000106808 0)
(1.05119 -0.0146521 0)
(1.04932 -0.0209477 0)
(1.03775 -0.0228294 0)
(1.02779 -0.0219525 0)
(1.02031 -0.0189898 0)
(1.01493 -0.0150751 0)
(1.01154 -0.0105819 0)
(1.00956 -0.00601468 0)
(1.00873 -0.000730092 0)
(1.00895 0.00436504 0)
(1.01024 0.00917238 0)
(1.01301 0.0138653 0)
(1.01715 0.0181731 0)
(1.02346 0.0216125 0)
(1.03223 0.0232994 0)
(1.04314 0.0228426 0)
(1.05378 0.0186874 0)
(1.00809 0.010161 0)
(0.359409 0.000121858 0)
(0.359988 0.00013291 0)
(1.02728 -0.00325807 0)
(1.03295 -0.00715411 0)
(1.0295 -0.0102942 0)
(1.0247 -0.0122963 0)
(1.01875 -0.0124972 0)
(1.01423 -0.0110815 0)
(1.01071 -0.00853083 0)
(1.00888 -0.00514475 0)
(1.00766 -0.000508555 0)
(1.00784 0.00406601 0)
(1.00942 0.00818828 0)
(1.01201 0.0112606 0)
(1.01602 0.0131178 0)
(1.02107 0.0135545 0)
(1.02634 0.012115 0)
(1.03055 0.00932289 0)
(1.03255 0.00542747 0)
(0.985095 0.00143267 0)
(0.35951 -0.000132119 0)
(0.358676 -3.93714e-05 0)
(1.02051 -0.00150721 0)
(1.0273 -0.00334039 0)
(1.026 -0.005107 0)
(1.02399 -0.0064881 0)
(1.02112 -0.00711123 0)
(1.01837 -0.0065743 0)
(1.0158 -0.00509961 0)
(1.01432 -0.00265083 0)
(1.01331 0.000133597 0)
(1.01349 0.00314444 0)
(1.01506 0.00549857 0)
(1.01653 0.00755155 0)
(1.01904 0.00801665 0)
(1.02158 0.00766511 0)
(1.0238 0.00648098 0)
(1.02541 0.00474732 0)
(1.02559 0.00284999 0)
(0.97873 0.00110116 0)
(0.357964 8.3395e-05 0)
(0.358067 -4.05914e-05 0)
(1.0167 -0.000707155 0)
(1.02337 -0.0015745 0)
(1.02289 -0.0024878 0)
(1.02192 -0.00328267 0)
(1.02044 -0.0037539 0)
(1.01871 -0.00361522 0)
(1.01693 -0.00279316 0)
(1.01555 -0.00126632 0)
(1.01462 0.000626082 0)
(1.01454 0.00270005 0)
(1.01617 0.00405361 0)
(1.0167 0.00479835 0)
(1.0183 0.00496949 0)
(1.0198 0.00448718 0)
(1.02096 0.00361087 0)
(1.02173 0.0025644 0)
(1.02142 0.00150158 0)
(0.974868 0.000575254 0)
(0.356676 3.47205e-05 0)
(0.357228 -2.60782e-05 0)
(1.01516 -0.000599339 0)
(1.02196 -0.000932732 0)
(1.02168 -0.00130192 0)
(1.02113 -0.0016421 0)
(1.02029 -0.00184573 0)
(1.01921 -0.00175661 0)
(1.01799 -0.00125149 0)
(1.01686 -0.000277202 0)
(1.01604 0.00104808 0)
(1.01588 0.00240333 0)
(1.01682 0.00329047 0)
(1.01721 0.00335015 0)
(1.01804 0.00330668 0)
(1.01881 0.00286897 0)
(1.01938 0.00224814 0)
(1.01974 0.00156648 0)
(1.0192 0.000924359 0)
(0.972779 0.000363198 0)
(0.355921 2.72672e-05 0)
(0.356825 -1.06943e-06 0)
(1.01432 -0.000206769 0)
(1.02133 -0.000356668 0)
(1.02116 -0.00050052 0)
(1.0208 -0.000616022 0)
(1.02026 -0.000647538 0)
(1.01952 -0.000514006 0)
(1.01863 -0.000129608 0)
(1.01771 0.000549298 0)
(1.01694 0.00146601 0)
(1.01663 0.00232506 0)
(1.01691 0.00277309 0)
(1.01719 0.00270424 0)
(1.01759 0.00248369 0)
(1.01796 0.00207495 0)
(1.01823 0.00158371 0)
(1.01839 0.00109741 0)
(1.01776 0.000645008 0)
(0.971408 0.000261965 0)
(0.355386 2.16192e-05 0)
(0.356806 5.63675e-06 0)
(1.01407 1.05509e-05 0)
(1.02114 7.75856e-06 0)
(1.02104 2.05773e-05 0)
(1.02079 6.78479e-05 0)
(1.0204 0.000177636 0)
(1.01985 0.000392843 0)
(1.01915 0.000758295 0)
(1.01833 0.00129272 0)
(1.01755 0.0019423 0)
(1.01705 0.00245669 0)
(1.01693 0.00263622 0)
(1.01697 0.00245659 0)
(1.01709 0.0021378 0)
(1.01721 0.00172975 0)
(1.01731 0.00130178 0)
(1.01737 0.00089293 0)
(1.01668 0.000529438 0)
(0.970376 0.000217841 0)
(0.354957 1.94775e-05 0)
(0.356949 1.23018e-05 0)
(1.01424 0.000145842 0)
(1.02132 0.000259853 0)
(1.02126 0.000402475 0)
(1.02105 0.000584566 0)
(1.02073 0.000822374 0)
(1.02026 0.00113596 0)
(1.01962 0.00153945 0)
(1.01882 0.0020247 0)
(1.01795 0.00251758 0)
(1.01723 0.00280288 0)
(1.01683 0.00275618 0)
(1.01662 0.00248994 0)
(1.01652 0.00209738 0)
(1.01649 0.00166125 0)
(1.01648 0.00123523 0)
(1.01647 0.000842519 0)
(1.01574 0.000504465 0)
(0.96946 0.000210593 0)
(0.354562 1.93112e-05 0)
(0.357218 1.83511e-05 0)
(1.01472 0.000258988 0)
(1.0218 0.000474096 0)
(1.02175 0.000731221 0)
(1.02155 0.00103882 0)
(1.02125 0.00140578 0)
(1.02078 0.00183407 0)
(1.02012 0.00231832 0)
(1.01926 0.00281867 0)
(1.01822 0.00323409 0)
(1.01726 0.00336523 0)
(1.01658 0.00317109 0)
(1.01615 0.00277338 0)
(1.01588 0.0022879 0)
(1.01572 0.00178909 0)
(1.01562 0.0013189 0)
(1.01556 0.000901464 0)
(1.01481 0.000537726 0)
(0.968543 0.000228771 0)
(0.354149 2.18299e-05 0)
(0.357616 2.48289e-05 0)
(1.01549 0.000371204 0)
(1.02256 0.000688737 0)
(1.0225 0.001063 0)
(1.0223 0.00150289 0)
(1.02196 0.00200863 0)
(1.02145 0.00257565 0)
(1.02071 0.00317538 0)
(1.0197 0.0037413 0)
(1.01842 0.00413742 0)
(1.01716 0.0041587 0)
(1.01619 0.0038185 0)
(1.01554 0.00327983 0)
(1.0151 0.00267317 0)
(1.01483 0.00207621 0)
(1.01466 0.00152548 0)
(1.01456 0.00104307 0)
(1.01378 0.000623474 0)
(0.967515 0.000268419 0)
(0.353672 2.69577e-05 0)
(0.358156 3.30558e-05 0)
(1.01658 0.000500822 0)
(1.02363 0.000929892 0)
(1.02355 0.00143644 0)
(1.02331 0.00202538 0)
(1.02292 0.00269731 0)
(1.02231 0.0034337 0)
(1.02142 0.00418829 0)
(1.02018 0.00486602 0)
(1.01859 0.00528527 0)
(1.01695 0.00521771 0)
(1.01566 0.00472491 0)
(1.01476 0.00402218 0)
(1.01415 0.00325793 0)
(1.01375 0.00251818 0)
(1.01351 0.00184721 0)
(1.01336 0.00125826 0)
(1.01256 0.000756023 0)
(0.966293 0.000323936 0)
(0.353101 3.2772e-05 0)
(0.358868 4.29096e-05 0)
(1.01802 0.000656534 0)
(1.02505 0.0012219 0)
(1.02494 0.00188628 0)
(1.02464 0.0026578 0)
(1.02416 0.00353009 0)
(1.02341 0.00447751 0)
(1.0223 0.00543484 0)
(1.02076 0.00626906 0)
(1.01874 0.00674794 0)
(1.01663 0.00659912 0)
(1.01495 0.00593169 0)
(1.01376 0.00502231 0)
(1.01295 0.00405431 0)
(1.01242 0.00312819 0)
(1.01209 0.00229305 0)
(1.01189 0.00156008 0)
(1.01107 0.000937492 0)
(0.964798 0.00040183 0)
(0.352399 4.02609e-05 0)
(0.359794 5.59285e-05 0)
(1.01989 0.000853217 0)
(1.02691 0.00158607 0)
(1.02675 0.00244727 0)
(1.02638 0.00344481 0)
(1.02576 0.00457032 0)
(1.02481 0.00578655 0)
(1.02342 0.00700319 0)
(1.02146 0.00804413 0)
(1.01888 0.00861419 0)
(1.01619 0.00837889 0)
(1.01403 0.00750023 0)
(1.01248 0.00633149 0)
(1.01143 0.00510052 0)
(1.01074 0.00393048 0)
(1.01032 0.0028774 0)
(1.01006 0.00196201 0)
(1.0092 0.00117756 0)
(0.962926 0.000507844 0)
(0.351513 5.06566e-05 0)
(0.360995 7.24189e-05 0)
(1.02233 0.00110177 0)
(1.02931 0.00204878 0)
(1.02909 0.00316064 0)
(1.02861 0.00444587 0)
(1.02782 0.0058936 0)
(1.02661 0.00745018 0)
(1.02482 0.00899745 0)
(1.02232 0.0103073 0)
(1.01904 0.0109974 0)
(1.01559 0.0106582 0)
(1.01283 0.0095129 0)
(1.01085 0.00801455 0)
(1.0095 0.00644926 0)
(1.00862 0.00496827 0)
(1.00807 0.00363579 0)
(1.00775 0.00247938 0)
(1.00685 0.00148776 0)
(0.960561 0.00064142 0)
(0.350398 6.46927e-05 0)
(0.362551 9.39081e-05 0)
(1.02547 0.00142305 0)
(1.0324 0.00264576 0)
(1.0321 0.00407828 0)
(1.03148 0.00573403 0)
(1.03047 0.00759171 0)
(1.0289 0.00958369 0)
(1.02661 0.0115519 0)
(1.0234 0.0132006 0)
(1.0192 0.0140401 0)
(1.01481 0.0135658 0)
(1.01129 0.0120821 0)
(1.00878 0.0101651 0)
(1.00707 0.00817033 0)
(1.00595 0.00628647 0)
(1.00525 0.00459931 0)
(1.00483 0.0031323 0)
(1.00387 0.00188142 0)
(0.957574 0.000809617 0)
(0.348993 8.16275e-05 0)
(0.364571 0.000122794 0)
(1.02952 0.0018442 0)
(1.03639 0.00342139 0)
(1.03598 0.00527007 0)
(1.03517 0.00740103 0)
(1.03386 0.00978956 0)
(1.03183 0.0123384 0)
(1.02887 0.014839 0)
(1.02474 0.0169081 0)
(1.01937 0.017924 0)
(1.01378 0.0172658 0)
(1.00931 0.0153418 0)
(1.00613 0.0128891 0)
(1.00396 0.0103529 0)
(1.00255 0.00796292 0)
(1.00166 0.0058247 0)
(1.00113 0.00396481 0)
(1.00012 0.00238068 0)
(0.953802 0.00102406 0)
(0.347218 0.000102931 0)
(0.367204 0.000161244 0)
(1.03477 0.00239529 0)
(1.04155 0.0044404 0)
(1.041 0.00683078 0)
(1.03993 0.00958311 0)
(1.0382 0.0126524 0)
(1.03556 0.0159113 0)
(1.03171 0.0190827 0)
(1.0264 0.0216671 0)
(1.01953 0.022877 0)
(1.01242 0.0219607 0)
(1.00678 0.019471 0)
(1.00275 0.0163338 0)
(1.00002 0.0131072 0)
(0.998228 0.0100772 0)
(0.997111 0.00736699 0)
(0.99645 0.00501528 0)
(0.995351 0.00300939 0)
(0.949023 0.00129361 0)
(0.344974 0.000129144 0)
(0.370665 0.000213862 0)
(1.04158 0.00313145 0)
(1.04825 0.00579089 0)
(1.04749 0.00889472 0)
(1.04607 0.0124557 0)
(1.04379 0.0164115 0)
(1.04031 0.0205777 0)
(1.03529 0.0245829 0)
(1.02843 0.0277818 0)
(1.01964 0.0291863 0)
(1.01064 0.0279019 0)
(1.00352 0.0246761 0)
(0.998461 0.0206771 0)
(0.99502 0.0165808 0)
(0.99277 0.0127413 0)
(0.991363 0.00931232 0)
(0.990531 0.00633865 0)
(0.989333 0.00380072 0)
(0.942988 0.00163283 0)
(0.342151 0.000163017 0)
(0.375253 0.000288111 0)
(1.05048 0.00412754 0)
(1.05698 0.00761342 0)
(1.05593 0.0116675 0)
(1.05402 0.0162959 0)
(1.05096 0.0213972 0)
(1.04634 0.0267138 0)
(1.03975 0.0317399 0)
(1.03087 0.0356438 0)
(1.01964 0.0372032 0)
(1.00828 0.0353915 0)
(0.999351 0.0312163 0)
(0.993013 0.0261262 0)
(0.988695 0.020945 0)
(0.985868 0.0160972 0)
(0.984098 0.0117651 0)
(0.983048 0.00800656 0)
(0.981721 0.00480246 0)
(0.935357 0.00206173 0)
(0.338591 0.000204675 0)
(0.381432 0.000396161 0)
(1.06221 0.00551518 0)
(1.06847 0.0101278 0)
(1.06697 0.0154618 0)
(1.06433 0.0215097 0)
(1.06016 0.028103 0)
(1.05395 0.0348582 0)
(1.04523 0.0410946 0)
(1.0337 0.0457523 0)
(1.01942 0.0473524 0)
(1.00517 0.0447781 0)
(0.994036 0.0393918 0)
(0.986129 0.0329498 0)
(0.98072 0.0264253 0)
(0.97716 0.0203207 0)
(0.974919 0.0148646 0)
(0.973588 0.0101211 0)
(0.972095 0.00606892 0)
(0.925711 0.00260126 0)
(0.334108 0.00025745 0)
(0.389951 0.000562842 0)
(1.07786 0.00752734 0)
(1.08371 0.0137221 0)
(1.08153 0.0208199 0)
(1.07777 0.0287705 0)
(1.07192 0.0372854 0)
(1.06342 0.0457953 0)
(1.0518 0.0533797 0)
(1.03685 0.0587224 0)
(1.01878 0.0601213 0)
(1.00105 0.0564616 0)
(0.987289 0.0495494 0)
(0.977481 0.041464 0)
(0.970715 0.0333126 0)
(0.966215 0.0256706 0)
(0.963355 0.0188093 0)
(0.961644 0.0128238 0)
(0.959926 0.00770002 0)
(0.913508 0.00330372 0)
(0.328436 0.000327706 0)
(0.402161 0.0008484 0)
(1.09903 0.0107071 0)
(1.10421 0.0192042 0)
(1.10085 0.0287541 0)
(1.09521 0.0392454 0)
(1.08673 0.050171 0)
(1.07488 0.0606692 0)
(1.05932 0.0695487 0)
(1.04 0.0752909 0)
(1.01736 0.0760388 0)
(0.995594 0.0708462 0)
(0.978788 0.0620599 0)
(0.966723 0.0520496 0)
(0.958265 0.0419975 0)
(0.952522 0.0325283 0)
(0.948793 0.0239556 0)
(0.946526 0.0164119 0)
(0.944479 0.00989654 0)
(0.897985 0.00426534 0)
(0.321182 0.000426051 0)
(0.420935 0.00146084 0)
(1.12845 0.0165766 0)
(1.13235 0.0284706 0)
(1.12659 0.0413534 0)
(1.11752 0.0550542 0)
(1.10475 0.0686944 0)
(1.088 0.081063 0)
(1.06717 0.0907775 0)
(1.04249 0.0962428 0)
(1.01458 0.0956164 0)
(0.988316 0.0883114 0)
(0.968136 0.0772961 0)
(0.953492 0.0651438 0)
(0.942975 0.0530229 0)
(0.935573 0.0415345 0)
(0.930562 0.0309913 0)
(0.927396 0.0215627 0)
(0.924796 0.013262 0)
(0.87814 0.00589233 0)
(0.311661 0.000600789 0)
(0.45153 0.00334037 0)
(1.1715 0.0297292 0)
(1.17187 0.0459791 0)
(1.16054 0.0626689 0)
(1.14504 0.0796905 0)
(1.12546 0.0955563 0)
(1.10186 0.108845 0)
(1.07439 0.118239 0)
(1.04345 0.122269 0)
(1.00977 0.119256 0)
(0.978815 0.109155 0)
(0.95513 0.0955873 0)
(0.937707 0.0812208 0)
(0.924795 0.067096 0)
(0.915243 0.0537317 0)
(0.908283 0.0413491 0)
(0.90342 0.0301293 0)
(0.899452 0.0198302 0)
(0.852785 0.009871 0)
(0.299274 0.00106177 0)
(0.497139 0.0162662 1.6737e-19)
(1.2332 0.061921 1.55216e-19)
(1.22288 0.0800967 -5.40132e-20)
(1.20106 0.0995148 0)
(1.17595 0.117961 -1.26685e-33)
(1.1475 0.133808 1.82118e-20)
(1.11563 0.145984 -3.08524e-20)
(1.08053 0.153421 0)
(1.04261 0.154774 5.90659e-34)
(1.00258 0.148488 -3.39849e-20)
(0.966466 0.135159 0)
(0.938857 0.119005 -3.83597e-20)
(0.918152 0.102674 -1.11765e-19)
(0.902191 0.0870337 -5.23717e-20)
(0.889596 0.0725672 -1.55285e-20)
(0.879427 0.0595251 -9.17694e-21)
(0.871045 0.0482491 0)
(0.863287 0.0385436 6.42154e-21)
(0.816459 0.0286547 7.53497e-21)
(0.284632 0.00898852 1.34029e-19)
(0.520089 0.0469256 1.40667e-19)
(1.28878 0.121783 1.01378e-21)
(1.26838 0.137036 1.54086e-20)
(1.23734 0.153678 0)
(1.20351 0.169455 -6.74512e-20)
(1.16678 0.182891 -7.44636e-20)
(1.12709 0.192681 -3.19425e-20)
(1.08449 0.197602 -1.07458e-19)
(1.03928 0.19618 0)
(0.992022 0.18686 1.44773e-19)
(0.949389 0.170739 1.39808e-19)
(0.916462 0.152622 4.05936e-20)
(0.891286 0.135157 1.44454e-19)
(0.871315 0.119153 2.00112e-19)
(0.8549 0.104942 0)
(0.840967 0.0929158 2.79721e-19)
(0.828807 0.0832173 4.02319e-19)
(0.817433 0.0762937 4.4696e-19)
(0.772147 0.0678158 -5.05994e-19)
(0.272942 0.0252472 -8.9644e-21)
(0.518674 0.0781512 0)
(1.32514 0.198583 3.24967e-20)
(1.30062 0.208157 0)
(1.26363 0.219031 -1.03635e-19)
(1.22343 0.229856 0)
(1.1802 0.238959 -1.52786e-19)
(1.13396 0.244899 6.66488e-20)
(1.08482 0.24615 -2.22219e-19)
(1.03316 0.241124 -2.3795e-21)
(0.979583 0.228176 7.56291e-20)
(0.931506 0.209028 3.01113e-19)
(0.894454 0.189029 1.14902e-22)
(0.866154 0.170795 -1.03395e-19)
(0.843784 0.154854 -1.83928e-19)
(0.825622 0.141342 2.1739e-19)
(0.810579 0.130329 -3.83495e-19)
(0.797859 0.121866 -5.05851e-20)
(0.786458 0.115827 0)
(0.743278 0.106592 2.30431e-21)
(0.266796 0.0394253 0)
(0.51999 0.107493 5.10342e-19)
(1.34486 0.274028 -2.54641e-19)
(1.31902 0.280511 -1.71582e-19)
(1.27934 0.287251 5.29503e-20)
(1.2355 0.293703 -8.73572e-20)
(1.1878 0.298463 3.24193e-19)
(1.13645 0.300224 1.40662e-19)
(1.0818 0.297407 0)
(1.02446 0.288338 -3.9457e-19)
(0.96526 0.27132 0)
(0.912523 0.248722 -1.58018e-19)
(0.872301 0.226491 -1.87447e-19)
(0.84198 0.207056 -1.10241e-19)
(0.818388 0.190637 -1.31183e-19)
(0.799594 0.177094 0)
(0.784312 0.166218 0)
(0.771669 0.157888 -3.24433e-19)
(0.760487 0.151986 6.36567e-20)
(0.718769 0.141189 -3.74783e-20)
(0.259897 0.0521599 -4.28904e-20)
(0.521582 0.13555 -2.98843e-19)
(1.35698 0.347597 0)
(1.32971 0.351873 4.10956e-19)
(1.28787 0.355248 1.63614e-19)
(1.24126 0.358027 1.93644e-19)
(1.19008 0.358977 0)
(1.1346 0.356842 1.44557e-19)
(1.07531 0.349994 2.49324e-19)
(1.013 0.336705 2.06095e-19)
(0.948875 0.315245 3.46278e-19)
(0.892245 0.288718 0)
(0.849646 0.263726 -3.96988e-19)
(0.818053 0.242531 -2.32528e-19)
(0.793885 0.225076 -1.35118e-19)
(0.774947 0.210906 8.12495e-19)
(0.759804 0.199622 9.5872e-20)
(0.747425 0.190955 4.54999e-19)
(0.736611 0.184644 -2.1604e-18)
(0.696322 0.172252 1.27057e-18)
(0.253404 0.0636627 -1.51036e-18)
(0.522866 0.162354 -2.59355e-19)
(1.36341 0.418273 6.56222e-20)
(1.33484 0.421162 -5.88248e-20)
(1.29136 0.421957 -2.11608e-19)
(1.24246 0.421746 -1.91057e-19)
(1.18839 0.41942 3.23706e-21)
(1.12935 0.413713 -1.55787e-19)
(1.06594 0.403014 2.62741e-19)
(0.999139 0.385458 -4.41349e-19)
(0.930538 0.359296 0)
(0.870522 0.328316 -1.83088e-19)
(0.826099 0.299971 -7.04949e-22)
(0.79377 0.276491 -2.47877e-19)
(0.769454 0.257484 0)
(0.750703 0.242278 -1.72035e-19)
(0.735925 0.230189 -4.0432e-19)
(0.723982 0.22093 1.08124e-18)
(0.713627 0.213971 -1.06817e-18)
(0.674769 0.19996 1.50404e-18)
(0.247019 0.0739965 -1.5403e-18)
(0.524075 0.188199 -3.46756e-21)
(1.36618 0.48629 -6.38039e-20)
(1.33628 0.488095 -2.34655e-19)
(1.29125 0.486853 1.06182e-19)
(1.24035 0.484195 -1.01111e-19)
(1.18368 0.479088 0)
(1.12141 0.470199 -1.57445e-19)
(1.0542 0.455899 -2.78973e-19)
(0.983152 0.434135 -2.33038e-19)
(0.91031 0.403018 0)
(0.847205 0.367056 -1.9023e-19)
(0.801368 0.334779 -2.2224e-19)
(0.768697 0.308503 2.61682e-19)
(0.744618 0.287505 -1.55819e-19)
(0.72634 0.270907 -7.19509e-19)
(0.712114 0.257874 4.25721e-19)
(0.700748 0.247727 1.26776e-19)
(0.690938 0.240068 0)
(0.653545 0.224472 -1.4e-18)
(0.240807 0.0832923 -4.99697e-20)
(0.525388 0.213305 -3.24107e-20)
(1.36648 0.551616 6.41911e-20)
(1.33518 0.552669 1.24799e-19)
(1.28867 0.549755 3.53654e-19)
(1.23587 0.545106 -4.16069e-19)
(1.17674 0.537582 3.79042e-19)
(1.11147 0.52591 3.40182e-19)
(1.04057 0.508249 -4.48175e-19)
(0.965403 0.482418 1.32525e-19)
(0.888327 0.446182 -8.39329e-19)
(0.822196 0.404721 -2.06007e-19)
(0.775198 0.367891 0)
(0.742557 0.338248 2.75281e-19)
(0.719063 0.314935 3.19488e-19)
(0.701538 0.296734 3.77576e-19)
(0.688086 0.28247 -4.43687e-19)
(0.677447 0.271449 -1.29787e-19)
(0.668258 0.263045 1.5576e-19)
(0.632358 0.2459 0)
(0.234979 0.0917358 -1.04654e-19)
(0.526868 0.237701 3.10793e-19)
(1.36512 0.614208 -2.51837e-19)
(1.33231 0.614851 -1.33234e-19)
(1.28434 0.610607 2.45567e-19)
(1.22972 0.604252 -2.13719e-19)
(1.16826 0.594712 -6.32017e-21)
(1.10005 0.580601 -3.69551e-19)
(1.02558 0.559926 -1.61388e-19)
(0.946214 0.530236 -4.03586e-19)
(0.864699 0.488755 9.5432e-22)
(0.795401 0.441238 -6.49226e-19)
(0.747381 0.399117 5.00859e-19)
(0.71515 0.36556 -2.87706e-19)
(0.692661 0.339539 3.34152e-19)
(0.676246 0.319521 0)
(0.663816 0.304032 -2.27381e-19)
(0.654035 0.292162 -3.97911e-21)
(0.645596 0.282975 -6.35942e-19)
(0.611288 0.264499 -9.48027e-20)
(0.229571 0.0994159 0)
(0.528277 0.261227 0)
(1.36265 0.674384 -2.73728e-19)
(1.32828 0.674697 -2.66302e-19)
(1.27887 0.669358 -2.56172e-19)
(1.22246 0.661594 -2.40697e-19)
(1.15875 0.65033 0)
(1.08769 0.634123 -1.86018e-19)
(1.00965 0.61079 -3.62184e-22)
(0.925959 0.577517 8.67451e-19)
(0.839625 0.530781 -1.18528e-19)
(0.766745 0.476664 -4.62754e-19)
(0.717673 0.42836 2.65443e-19)
(0.686246 0.39018 2.27018e-21)
(0.665323 0.361023 3.47237e-19)
(0.650536 0.339081 2.03209e-19)
(0.639473 0.322403 -4.77645e-19)
(0.630796 0.309695 5.56569e-19)
(0.623201 0.299937 1.62013e-19)
(0.590553 0.280321 6.74935e-19)
(0.224773 0.106517 -1.7763e-18)
(0.530015 0.284394 5.87209e-20)
(1.35942 0.732229 -1.31328e-19)
(1.32346 0.732236 1.21358e-19)
(1.27267 0.725966 2.62695e-19)
(1.2145 0.717018 0)
(1.14862 0.704325 -2.15763e-19)
(1.07478 0.686329 6.13707e-19)
(0.993222 0.660784 3.68567e-19)
(0.904974 0.6243 0)
(0.813306 0.57254 -1.6742e-18)
(0.736059 0.511226 1.23437e-18)
(0.685752 0.455601 0)
(0.655607 0.411751 3.12838e-19)
(0.637034 0.379046 4.74844e-21)
(0.624564 0.3551 -6.17194e-19)
(0.615352 0.337477 2.44541e-19)
(0.608054 0.324193 0)
(0.601476 0.314038 8.29944e-19)
(0.570607 0.293757 0)
(0.221242 0.113521 -7.91271e-19)
(0.532083 0.307246 -5.91427e-20)
(1.35567 0.787858 -1.23826e-19)
(1.31818 0.787517 1.33926e-19)
(1.26601 0.780427 0)
(1.20617 0.770494 -2.59546e-19)
(1.13819 0.756619 0)
(1.06168 0.737186 -6.39754e-19)
(0.976611 0.709821 -1.86966e-19)
(0.883672 0.670653 1.62914e-19)
(0.78602 0.614124 -8.30587e-19)
(0.703396 0.54526 1.32106e-19)
(0.651166 0.48098 0)
(0.622775 0.430006 -6.51819e-19)
(0.607653 0.392935 -6.09567e-21)
(0.598675 0.366964 0)
(0.59215 0.348692 -2.0128e-21)
(0.586655 0.335486 7.07819e-19)
(0.581233 0.325455 -6.68296e-19)
(0.552344 0.305045 1.95859e-19)
(0.219499 0.120686 0)
(0.533845 0.32921 0)
(1.35147 0.841184 -1.21544e-19)
(1.31256 0.8405 -1.26466e-19)
(1.25908 0.832713 -4.69179e-21)
(1.19769 0.821959 -1.26619e-19)
(1.12774 0.807104 -5.00275e-19)
(1.04869 0.786548 2.34953e-19)
(0.960201 0.757801 -2.10215e-19)
(0.862513 0.716562 7.14039e-19)
(0.758129 0.655961 -1.34827e-18)
(0.668629 0.579297 -3.56254e-21)
(0.613364 0.504734 -3.12841e-19)
(0.586986 0.44455 1.01652e-18)
(0.576946 0.401795 9.31272e-21)
(0.573253 0.373704 -4.15308e-19)
(0.570759 0.355573 -7.28263e-19)
(0.5678 0.343303 0)
(0.563744 0.334423 0)
(0.536987 0.314927 1.94332e-19)
(0.220334 0.128759 -1.09062e-19)
(0.536081 0.350838 -5.2789e-20)
(1.3471 0.892332 2.526e-19)
(1.30677 0.891237 1.36187e-19)
(1.25206 0.882799 0)
(1.18923 0.871339 -2.29956e-21)
(1.11744 0.855696 -5.14918e-19)
(1.03604 0.83431 6.08346e-19)
(0.944294 0.804635 8.75294e-19)
(0.841784 0.76207 9.53995e-19)
(0.730046 0.698322 -1.13175e-18)
(0.631886 0.613994 -1.07884e-18)
(0.571599 0.52739 8.38874e-19)
(0.547136 0.454903 0)
(0.544311 0.404152 -1.81965e-19)
(0.548885 0.373625 -4.1392e-19)
(0.55274 0.356741 -4.71041e-19)
(0.553473 0.347211 -5.41414e-19)
(0.551044 0.341177 1.53521e-19)
(0.526398 0.324252 -9.56414e-20)
(0.224967 0.138717 -6.29742e-21)
(0.53784 0.371877 0)
(1.34251 0.941265 0)
(1.30089 0.93972 4.54644e-21)
(1.24504 0.930635 0)
(1.18089 0.918564 4.14389e-19)
(1.10747 0.902294 3.98008e-19)
(1.0239 0.88028 0)
(0.929135 0.850148 1.12654e-19)
(0.821943 0.807031 1.6379e-18)
(0.702362 0.741359 -2.61953e-18)
(0.593443 0.650255 0)
(0.525128 0.550009 -5.46098e-19)
(0.501407 0.460864 1.11987e-20)
(0.508448 0.398042 1.12034e-20)
(0.526109 0.363986 4.03831e-19)
(0.540429 0.350111 -4.18859e-21)
(0.546593 0.346425 -1.00406e-18)
(0.54615 0.346161 2.83362e-19)
(0.523389 0.334592 8.32563e-20)
(0.234954 0.151793 0)
(0.53932 0.392131 1.22565e-19)
(1.33778 0.98799 1.20611e-19)
(1.29502 0.985966 2.66213e-19)
(1.23811 0.976237 -5.69858e-19)
(1.17275 0.963581 7.13622e-19)
(1.09791 0.946801 0)
(1.0124 0.924388 4.06786e-19)
(0.914942 0.894222 -2.47233e-19)
(0.803306 0.851335 5.64955e-21)
(0.675605 0.785181 1.90624e-19)
(0.553913 0.688994 1.45819e-18)
(0.473187 0.574164 -1.98651e-19)
(0.447104 0.462585 -6.00943e-19)
(0.466923 0.380452 -1.69128e-19)
(0.505889 0.34016 1.84777e-19)
(0.537105 0.332806 -8.05392e-21)
(0.551856 0.340217 2.22737e-19)
(0.553714 0.349916 -5.35124e-19)
(0.533162 0.348074 6.04048e-19)
(0.252926 0.170167 9.42975e-20)
(0.540218 0.411521 -3.54187e-20)
(1.33288 1.03248 6.07586e-20)
(1.28914 1.02999 1.25884e-20)
(1.23129 1.01965 -2.8294e-19)
(1.16486 1.00637 -1.40275e-19)
(1.08877 0.989154 -7.47565e-19)
(1.00175 0.966515 1.3555e-19)
(0.901871 0.936649 -1.05338e-18)
(0.786149 0.894761 -1.8845e-18)
(0.650372 0.829758 -1.62647e-18)
(0.514089 0.730959 0)
(0.415536 0.602082 -8.5813e-19)
(0.380705 0.461497 8.36176e-19)
(0.415003 0.347431 0)
(0.487794 0.294243 -3.54277e-19)
(0.549951 0.298514 1.48269e-19)
(0.579279 0.327252 -1.84659e-19)
(0.582549 0.35649 -2.19217e-19)
(0.559077 0.369442 -4.00702e-19)
(0.280487 0.195867 -3.06561e-19)
(0.541438 0.430551 3.05449e-20)
(1.32781 1.07478 -6.47775e-20)
(1.28321 1.07177 -1.84083e-19)
(1.22458 1.06082 -3.60279e-19)
(1.15726 1.04691 3.0759e-19)
(1.08017 1.02928 -4.63996e-19)
(0.991987 1.00664 4.42109e-19)
(0.890047 0.977283 -1.11632e-18)
(0.770686 0.936991 -1.13994e-18)
(0.627246 0.87481 1.76458e-18)
(0.475214 0.776837 3.35621e-18)
(0.35272 0.63677 0)
(0.297955 0.461122 0)
(0.343498 0.29456 -1.7106e-19)
(0.470633 0.210859 0)
(0.593958 0.236217 2.13403e-19)
(0.648304 0.310614 2.46019e-19)
(0.644864 0.37504 0)
(0.600186 0.410229 0)
(0.308958 0.229227 2.51161e-19)
(0.54193 0.448221 -1.96883e-20)
(1.32255 1.11493 -3.59884e-20)
(1.27722 1.11135 -1.27492e-19)
(1.21796 1.09974 2.85589e-19)
(1.15 1.08522 3.15326e-19)
(1.07222 1.06718 5.56974e-19)
(0.983221 1.04473 -6.25825e-19)
(0.879636 1.01616 -5.28028e-21)
(0.757153 0.977838 -8.56743e-21)
(0.606819 0.919855 7.14254e-21)
(0.438794 0.826691 1.76496e-18)
(0.286463 0.68145 0)
(0.194761 0.468395 8.53192e-19)
(0.236137 0.218186 3.55328e-19)
(0.448187 0.0561793 1.28536e-19)
(0.707899 0.115614 -2.36141e-20)
(0.799204 0.311966 -1.39774e-20)
(0.733562 0.448273 -7.07557e-20)
(0.649877 0.485527 0)
(0.336243 0.273756 2.26695e-19)
(0.542925 0.46588 1.7762e-20)
(1.3171 1.15301 0)
(1.27122 1.14873 -1.16535e-19)
(1.21145 1.1364 2.18691e-19)
(1.14303 1.12136 -3.15557e-19)
(1.06477 1.10298 -7.32587e-19)
(0.975326 1.08066 1.30355e-18)
(0.870709 1.05307 -8.15773e-20)
(0.745832 1.01723 0)
(0.589666 0.96449 -2.03907e-18)
(0.406534 0.879954 -3.99983e-18)
(0.220394 0.738775 1.46784e-19)
(0.0695226 0.494805 1.26709e-18)
(0.0637926 0.116847 0)
(0.382737 -0.246085 -4.20775e-19)
(0.907264 -0.177388 0)
(1.12959 0.263248 0)
(0.947951 0.526984 6.62174e-21)
(0.709477 0.556563 0)
(0.338784 0.280154 6.75305e-20)
(0.543139 0.482242 -4.91306e-22)
(1.31138 1.1892 0)
(1.26515 1.18401 -1.64387e-19)
(1.20511 1.171 0)
(1.13636 1.1555 1.54654e-19)
(1.05769 1.1369 0)
(0.96792 1.11475 7.73603e-20)
(0.862886 1.0883 1.61233e-19)
(0.736634 1.05536 1.4743e-19)
(0.576011 1.00899 -2.28261e-18)
(0.379846 0.93669 1.26903e-19)
(0.158532 0.811392 1.17641e-18)
(-0.076849 0.559594 1.28875e-18)
(-0.23941 0.033643 1.00929e-19)
(-0.0250917 -0.402574 -1.00302e-18)
(0.754367 0.0444534 0)
(1.16699 0.716402 -1.05147e-18)
(0.999269 1.09342 2.65847e-19)
(0.476794 0.876457 2.29852e-19)
(-0.0574457 1.04839 -5.36215e-19)
(0.543467 0.498307 1.61166e-20)
(1.30524 1.22372 -7.23659e-20)
(1.25889 1.21749 0)
(1.19882 1.20397 1.01888e-20)
(1.1299 1.18826 -3.85114e-19)
(1.05089 1.16966 1.24236e-18)
(0.960925 1.14803 5.00991e-19)
(0.855669 1.12311 0)
(0.728987 1.09351 1.02725e-18)
(0.565529 1.05535 -1.25439e-19)
(0.359692 0.999685 0)
(0.106963 0.9043 0)
(-0.232094 0.703995 1.28086e-18)
(-0.697884 0.377589 -1.20118e-19)
(-0.857727 0.591421 1.09463e-18)
(-0.194948 1.53633 0)
(0.476047 2.05698 -9.29097e-19)
(0.412796 2.23887 3.49839e-19)
(0.18633 2.8771 -1.39115e-19)
(0.104497 3.20953 -2.1314e-20)
(0.543866 0.513426 -2.96705e-20)
(1.29857 1.25644 6.27723e-20)
(1.25259 1.24896 -7.97466e-20)
(1.19263 1.23514 -1.3414e-19)
(1.12363 1.2194 0)
(1.04442 1.20093 8.42304e-19)
(0.954741 1.17998 7.53624e-19)
(0.849296 1.15665 -8.35768e-20)
(0.722539 1.1309 1.53287e-19)
(0.558685 1.10162 2.25021e-18)
(0.348404 1.06623 2.182e-18)
(0.0788134 1.01342 1.47092e-18)
(-0.316286 0.925984 1.39788e-18)
(-0.881213 0.938747 -7.89661e-19)
(-1.27894 1.57999 1.00511e-18)
(-0.87702 2.6368 0)
(-0.333222 3.16661 0)
(-0.129745 3.41508 -2.23484e-19)
(-0.0488213 3.44573 0)
(-0.0165087 3.36316 -3.51559e-19)
(0.545945 0.530927 0)
(1.2909 1.28699 0)
(1.24613 1.27813 0)
(1.18639 1.26432 -2.86632e-20)
(1.11726 1.24867 -3.29028e-19)
(1.038 1.23057 5.88556e-19)
(0.94907 1.21053 5.06883e-19)
(0.843842 1.18883 -8.3864e-20)
(0.717314 1.16648 1.34364e-18)
(0.554313 1.14655 -9.4953e-21)
(0.345138 1.13352 4.3924e-18)
(0.0774221 1.13037 -1.66238e-19)
(-0.294752 1.15681 1.87021e-19)
(-0.782925 1.35698 1.18836e-19)
(-1.16609 2.10047 -1.12584e-19)
(-0.898249 2.92205 -1.14413e-19)
(-0.538959 3.26443 9.51809e-19)
(-0.308608 3.31932 3.55687e-19)
(-0.179106 3.31386 -1.54979e-19)
(-0.112073 3.29376 1.44297e-19)
(0.409388 0.455433 2.87714e-20)
(1.28281 1.31494 0)
(1.24013 1.30545 1.07659e-19)
(1.18072 1.29215 2.93219e-19)
(1.1115 1.27674 -5.81303e-19)
(1.0323 1.25898 -6.00943e-19)
(0.944131 1.23874 -5.49719e-19)
(0.839687 1.21848 1.04187e-18)
(0.714757 1.19989 -1.11951e-18)
(0.554681 1.18872 0)
(0.353315 1.19582 2.18183e-18)
(0.106371 1.2351 -1.21238e-18)
(-0.200483 1.34231 0)
(-0.578018 1.66504 1.9296e-19)
(-0.834737 2.27247 1.26457e-19)
(-0.689978 2.84481 3.96628e-20)
(-0.455683 3.09031 -1.34395e-19)
(-0.286337 3.1683 -7.85156e-20)
(-0.188783 3.18722 -1.17157e-19)
(-0.126487 3.19417 -2.11911e-19)
(0.645072 0.642834 -4.11713e-21)
(1.27142 1.34069 0)
(1.23057 1.34542 -7.06598e-20)
(1.17026 1.33346 -2.36818e-19)
(1.1004 1.31837 5.23624e-19)
(1.02098 1.3013 5.47783e-19)
(0.931861 1.28262 7.15975e-19)
(0.828112 1.26473 8.21197e-20)
(0.70535 1.25217 1.16327e-18)
(0.550473 1.25452 2.10306e-18)
(0.360876 1.29 1.32033e-19)
(0.144815 1.38556 1.12824e-18)
(-0.0853428 1.58473 1.84946e-19)
(-0.27367 1.92674 -1.90291e-19)
(-0.345212 2.33629 -2.27865e-19)
(-0.281932 2.66579 9.71071e-20)
(-0.195029 2.84989 -3.20571e-20)
(-0.125973 2.97254 2.37236e-20)
(-0.0874136 3.0521 8.28831e-20)
(-0.0938664 3.13148 1.38613e-20)
(0.64017 0.643046 0)
(1.27 1.36857 1.11283e-20)
(1.22554 1.37354 5.31302e-21)
(1.16406 1.36189 1.84486e-20)
(1.09369 1.34676 3.11269e-19)
(1.01494 1.33022 -5.15867e-19)
(0.926049 1.31175 -4.46059e-19)
(0.823958 1.29575 7.7825e-20)
(0.70488 1.28739 -1.25197e-18)
(0.557195 1.29662 -2.2923e-20)
(0.382281 1.34615 -4.18463e-18)
(0.199908 1.46085 1.56252e-19)
(0.0336663 1.66773 -1.76154e-19)
(-0.0769888 1.98103 -1.60444e-19)
(-0.118418 2.32445 5.23225e-21)
(-0.0866297 2.60066 -3.76082e-20)
(-0.0335954 2.81059 -2.11218e-20)
(0.00268669 2.91747 -1.01979e-19)
(0.0131844 3.01877 1.75213e-19)
(-0.0324799 3.09001 1.05683e-19)
(0.612558 0.632695 7.33163e-20)
(1.26906 1.40178 1.02595e-19)
(1.22016 1.40453 1.18526e-20)
(1.15748 1.39241 7.09828e-20)
(1.08724 1.37773 0)
(1.00907 1.36085 -6.41768e-19)
(0.921164 1.34267 -6.17448e-19)
(0.820445 1.32741 7.32278e-20)
(0.703676 1.31942 -1.38011e-19)
(0.561546 1.33172 -2.0419e-18)
(0.400735 1.39024 -1.99067e-18)
(0.248496 1.51528 -1.34804e-18)
(0.139351 1.7212 -1.28766e-18)
(0.0925868 2.02179 1.11402e-18)
(0.0750039 2.32869 7.39041e-19)
(0.0922385 2.56178 0)
(0.133634 2.76218 0)
(0.153633 2.91861 1.42401e-19)
(0.130231 3.02046 0)
(0.0436363 3.08296 2.73629e-19)
(0.585905 0.625628 -1.50687e-19)
(1.26488 1.43836 -1.31423e-19)
(1.21339 1.43817 0)
(1.14984 1.42517 1.40637e-20)
(1.07975 1.40955 2.31648e-19)
(1.00161 1.39106 -8.74627e-19)
(0.913941 1.37221 -3.81507e-19)
(0.815696 1.35733 6.16882e-20)
(0.704344 1.35233 -9.94001e-19)