0.490941 	1.15 	0.00612327 	3.00279 	0
0.561075 	1.15 	0.00612327 	3.00279 	0
0.63121 	1.15 	0.00612327 	3.00279 	0
0.701344 	1.15 	0.00612327 	3.00279 	0
0.771478 	1.15 	0.00612327 	3.00279 	0
0.841613 	1.15 	0.00612327 	3.00279 	0
0.911747 	1.15 	0.00612327 	3.00279 	0
0.981881 	1.15 	0.00612327 	3.00279 	0
1.05202 	1.15 	0.00612327 	3.00279 	0
1.12215 	1.15 	0.00612327 	3.00279 	0
1.19228 	1.15 	0.00612327 	3.00279 	0
1.26242 	1.12386 	0.0115103 	3.00798 	0
1.33255 	1.12386 	0.0115103 	3.00798 	0
1.40269 	1.12386 	0.0115103 	3.00798 	0
1.47282 	1.12386 	0.0115103 	3.00798 	0
1.54296 	1.12386 	0.0115103 	3.00798 	0
1.61309 	1.12386 	0.0115103 	3.00798 	0
1.68323 	1.12386 	0.0115103 	3.00798 	0
1.75336 	1.12386 	0.0115103 	3.00798 	0
1.82349 	1.07399 	0.0148476 	3.02388 	4.11954e-19
1.89363 	1.07399 	0.0148476 	3.02388 	4.11954e-19
1.96376 	1.07399 	0.0148476 	3.02388 	4.11954e-19
2.0339 	1.07399 	0.0148476 	3.02388 	4.11954e-19
2.10403 	1.07399 	0.0148476 	3.02388 	4.11954e-19
2.17417 	1.07399 	0.0148476 	3.02388 	4.11954e-19
2.2443 	1.07399 	0.0148476 	3.02388 	4.11954e-19
2.31443 	1.07399 	0.0148476 	3.02388 	4.11954e-19
2.38457 	1.07399 	0.0148476 	3.02388 	4.11954e-19
2.4547 	1.07399 	0.0148476 	3.02388 	4.11954e-19
2.52484 	1.07399 	0.0148476 	3.02388 	4.11954e-19
2.59497 	1.03946 	0.00736801 	3.03684 	-6.53131e-19
2.66511 	1.03946 	0.00736801 	3.03684 	-6.53131e-19
2.73524 	1.03946 	0.00736801 	3.03684 	-6.53131e-19
2.80538 	1.03946 	0.00736801 	3.03684 	-6.53131e-19
2.87551 	1.03946 	0.00736801 	3.03684 	-6.53131e-19
2.94564 	1.03946 	0.00736801 	3.03684 	-6.53131e-19
3.01578 	1.03946 	0.00736801 	3.03684 	-6.53131e-19
3.08591 	1.03946 	0.00736801 	3.03684 	-6.53131e-19
3.15605 	1.03946 	0.00736801 	3.03684 	-6.53131e-19
3.22618 	1.03946 	0.00736801 	3.03684 	-6.53131e-19
3.29632 	1.00713 	0.0201492 	3.04336 	6.5908e-19
3.36645 	1.00713 	0.0201492 	3.04336 	6.5908e-19
3.43659 	1.00713 	0.0201492 	3.04336 	6.5908e-19
3.50672 	1.00713 	0.0201492 	3.04336 	6.5908e-19
3.57685 	1.00713 	0.0201492 	3.04336 	6.5908e-19
3.64699 	1.00713 	0.0201492 	3.04336 	6.5908e-19
3.71712 	1.00713 	0.0201492 	3.04336 	6.5908e-19
3.78726 	1.00713 	0.0201492 	3.04336 	6.5908e-19
3.85739 	1.00713 	0.0201492 	3.04336 	6.5908e-19
3.92753 	1.00713 	0.0201492 	3.04336 	6.5908e-19
3.99766 	1.00713 	0.0201492 	3.04336 	6.5908e-19
4.06779 	0.988861 	0.00361662 	3.05027 	-1.85495e-20
4.13793 	0.988861 	0.00361662 	3.05027 	-1.85495e-20
4.20806 	0.988861 	0.00361662 	3.05027 	-1.85495e-20
4.2782 	0.988861 	0.00361662 	3.05027 	-1.85495e-20
4.34833 	0.988861 	0.00361662 	3.05027 	-1.85495e-20
4.41847 	0.988861 	0.00361662 	3.05027 	-1.85495e-20
4.4886 	0.963881 	0.0166053 	3.05772 	0
4.55874 	0.963881 	0.0166053 	3.05772 	0
4.62887 	0.963881 	0.0166053 	3.05772 	0
4.699 	0.963881 	0.0166053 	3.05772 	0
4.76914 	0.963881 	0.0166053 	3.05772 	0
4.83927 	0.963881 	0.0166053 	3.05772 	0
4.90941 	0.963881 	0.0166053 	3.05772 	0
4.97954 	0.963881 	0.0166053 	3.05772 	0
5.04968 	0.963881 	0.0166053 	3.05772 	0
5.11981 	0.963881 	0.0166053 	3.05772 	0
5.18994 	0.941466 	0.00581568 	3.06494 	-8.77238e-21
5.26008 	0.941466 	0.00581568 	3.06494 	-8.77238e-21
5.33021 	0.941466 	0.00581568 	3.06494 	-8.77238e-21
5.40035 	0.941466 	0.00581568 	3.06494 	-8.77238e-21
5.47048 	0.941466 	0.00581568 	3.06494 	-8.77238e-21
5.54062 	0.941466 	0.00581568 	3.06494 	-8.77238e-21
5.61075 	0.941466 	0.00581568 	3.06494 	-8.77238e-21
5.68089 	0.912802 	0.0112672 	3.07431 	0
5.75102 	0.912802 	0.0112672 	3.07431 	0
5.82115 	0.912802 	0.0112672 	3.07431 	0
5.89129 	0.912802 	0.0112672 	3.07431 	0
5.96142 	0.912802 	0.0112672 	3.07431 	0
6.03156 	0.912802 	0.0112672 	3.07431 	0
6.10169 	0.912802 	0.0112672 	3.07431 	0
6.17183 	0.912802 	0.0112672 	3.07431 	0
6.24196 	0.912802 	0.0112672 	3.07431 	0
6.3121 	0.883613 	0.00707957 	3.08234 	0
6.38223 	0.883613 	0.00707957 	3.08234 	0
6.45236 	0.883613 	0.00707957 	3.08234 	0
6.5225 	0.883613 	0.00707957 	3.08234 	0
6.59263 	0.883613 	0.00707957 	3.08234 	0
6.66277 	0.883613 	0.00707957 	3.08234 	0
6.7329 	0.883613 	0.00707957 	3.08234 	0
6.80304 	0.883613 	0.00707957 	3.08234 	0
6.87317 	0.857567 	0.006367 	3.09188 	2.94504e-19
6.9433 	0.857567 	0.006367 	3.09188 	2.94504e-19
7.01344 	0.857567 	0.006367 	3.09188 	2.94504e-19
7.08357 	0.857567 	0.006367 	3.09188 	2.94504e-19
7.15371 	0.857567 	0.006367 	3.09188 	2.94504e-19
7.22384 	0.857567 	0.006367 	3.09188 	2.94504e-19
7.29398 	0.857567 	0.006367 	3.09188 	2.94504e-19
7.36411 	0.857567 	0.006367 	3.09188 	2.94504e-19
7.43425 	0.857567 	0.006367 	3.09188 	2.94504e-19
7.50438 	0.827242 	0.00848999 	3.09872 	-2.18957e-18
7.57451 	0.827242 	0.00848999 	3.09872 	-2.18957e-18
7.64465 	0.827242 	0.00848999 	3.09872 	-2.18957e-18
7.71478 	0.827242 	0.00848999 	3.09872 	-2.18957e-18
7.78492 	0.827242 	0.00848999 	3.09872 	-2.18957e-18
7.85505 	0.827242 	0.00848999 	3.09872 	-2.18957e-18
7.92519 	0.827242 	0.00848999 	3.09872 	-2.18957e-18
7.99532 	0.827242 	0.00848999 	3.09872 	-2.18957e-18
8.06545 	0.805056 	0.00167826 	3.10638 	2.19333e-18
8.13559 	0.805056 	0.00167826 	3.10638 	2.19333e-18
8.20572 	0.805056 	0.00167826 	3.10638 	2.19333e-18
8.27586 	0.805056 	0.00167826 	3.10638 	2.19333e-18
8.34599 	0.805056 	0.00167826 	3.10638 	2.19333e-18
8.41613 	0.805056 	0.00167826 	3.10638 	2.19333e-18
8.48626 	0.805056 	0.00167826 	3.10638 	2.19333e-18
8.5564 	0.805056 	0.00167826 	3.10638 	2.19333e-18
8.62653 	0.805056 	0.00167826 	3.10638 	2.19333e-18
8.69666 	0.773869 	0.0132745 	3.1187 	1.79292e-18
8.7668 	0.773869 	0.0132745 	3.1187 	1.79292e-18
8.83693 	0.773869 	0.0132745 	3.1187 	1.79292e-18
8.90707 	0.773869 	0.0132745 	3.1187 	1.79292e-18
8.9772 	0.773869 	0.0132745 	3.1187 	1.79292e-18
9.04734 	0.773869 	0.0132745 	3.1187 	1.79292e-18
9.11747 	0.773869 	0.0132745 	3.1187 	1.79292e-18
9.18761 	0.773869 	0.0132745 	3.1187 	1.79292e-18
9.25774 	0.744834 	0.00583452 	3.11804 	-1.64679e-18
9.32787 	0.744834 	0.00583452 	3.11804 	-1.64679e-18
9.39801 	0.744834 	0.00583452 	3.11804 	-1.64679e-18
9.46814 	0.744834 	0.00583452 	3.11804 	-1.64679e-18
9.53828 	0.744834 	0.00583452 	3.11804 	-1.64679e-18
9.60841 	0.744834 	0.00583452 	3.11804 	-1.64679e-18
9.67855 	0.744834 	0.00583452 	3.11804 	-1.64679e-18
9.74868 	0.744834 	0.00583452 	3.11804 	-1.64679e-18
9.81881 	0.727818 	0.0171581 	3.12947 	-5.63336e-19
9.88895 	0.727818 	0.0171581 	3.12947 	-5.63336e-19
9.95908 	0.727818 	0.0171581 	3.12947 	-5.63336e-19
10.0292 	0.727818 	0.0171581 	3.12947 	-5.63336e-19
10.0994 	0.727818 	0.0171581 	3.12947 	-5.63336e-19
10.1695 	0.727818 	0.0171581 	3.12947 	-5.63336e-19
10.2396 	0.727818 	0.0171581 	3.12947 	-5.63336e-19
10.3098 	0.727818 	0.0171581 	3.12947 	-5.63336e-19
10.3799 	0.727818 	0.0171581 	3.12947 	-5.63336e-19
10.45 	0.727818 	0.0171581 	3.12947 	-5.63336e-19
10.5202 	0.727818 	0.0171581 	3.12947 	-5.63336e-19
10.5903 	0.727818 	0.0171581 	3.12947 	-5.63336e-19
10.6604 	0.748534 	0.0148966 	3.12558 	8.29128e-19
10.7306 	0.697318 	0.034983 	3.13975 	0
10.8007 	0.697318 	0.034983 	3.13975 	0
10.8708 	0.697318 	0.034983 	3.13975 	0
10.941 	0.697318 	0.034983 	3.13975 	0
11.0111 	0.697318 	0.034983 	3.13975 	0
11.0812 	0.697318 	0.034983 	3.13975 	0
11.1514 	0.697318 	0.034983 	3.13975 	0
11.2215 	0.697318 	0.034983 	3.13975 	0
11.2916 	0.697318 	0.034983 	3.13975 	0
11.3618 	0.697318 	0.034983 	3.13975 	0
11.4319 	0.697318 	0.034983 	3.13975 	0
11.502 	0.697318 	0.034983 	3.13975 	0
11.5722 	0.697318 	0.034983 	3.13975 	0
11.6423 	0.697318 	0.034983 	3.13975 	0
11.7124 	0.705594 	0.0220112 	3.12971 	0
11.7826 	0.645692 	0.0757295 	3.1603 	9.42008e-19
11.8527 	0.645692 	0.0757295 	3.1603 	9.42008e-19
11.9228 	0.645692 	0.0757295 	3.1603 	9.42008e-19
11.993 	0.645692 	0.0757295 	3.1603 	9.42008e-19
12.0631 	0.645692 	0.0757295 	3.1603 	9.42008e-19
12.1332 	0.645692 	0.0757295 	3.1603 	9.42008e-19
12.2034 	0.54984 	0.0685079 	3.18591 	-4.65935e-19
12.2735 	0.54984 	0.0685079 	3.18591 	-4.65935e-19
12.3437 	0.54984 	0.0685079 	3.18591 	-4.65935e-19
12.4138 	0.54984 	0.0685079 	3.18591 	-4.65935e-19
12.4839 	0.54984 	0.0685079 	3.18591 	-4.65935e-19
12.5541 	0.54984 	0.0685079 	3.18591 	-4.65935e-19
12.6242 	0.54984 	0.0685079 	3.18591 	-4.65935e-19
12.6943 	0.54984 	0.0685079 	3.18591 	-4.65935e-19
12.7645 	0.54984 	0.0685079 	3.18591 	-4.65935e-19
12.8346 	0.436592 	0.0354282 	3.17814 	4.3319e-19
12.9047 	0.423601 	0.13644 	3.22119 	-2.13825e-19
12.9749 	0.423601 	0.13644 	3.22119 	-2.13825e-19
13.045 	0.423601 	0.13644 	3.22119 	-2.13825e-19
13.1151 	0.423601 	0.13644 	3.22119 	-2.13825e-19
13.1853 	0.423601 	0.13644 	3.22119 	-2.13825e-19
13.2554 	0.423601 	0.13644 	3.22119 	-2.13825e-19
13.3255 	0.423601 	0.13644 	3.22119 	-2.13825e-19
13.3957 	0.650299 	0.141367 	3.19261 	1.46146e-18
13.4658 	0.650299 	0.141367 	3.19261 	1.46146e-18
13.5359 	0.650299 	0.141367 	3.19261 	1.46146e-18
13.6061 	0.650299 	0.141367 	3.19261 	1.46146e-18
13.6762 	0.650299 	0.141367 	3.19261 	1.46146e-18
13.7463 	0.650299 	0.141367 	3.19261 	1.46146e-18
13.8165 	0.731739 	0.111484 	2.86589 	-1.21242e-18
13.8866 	0.941223 	0.134459 	2.95998 	5.59966e-19
13.9567 	0.941223 	0.134459 	2.95998 	5.59966e-19
14.0269 	0.356428 	0.244138 	3.03326 	-1.8485e-18
14.097 	0.356428 	0.244138 	3.03326 	-1.8485e-18
14.1671 	0.356428 	0.244138 	3.03326 	-1.8485e-18
14.2373 	0.356428 	0.244138 	3.03326 	-1.8485e-18
14.3074 	0.356428 	0.244138 	3.03326 	-1.8485e-18
14.3776 	0.356428 	0.244138 	3.03326 	-1.8485e-18
14.4477 	0.356428 	0.244138 	3.03326 	-1.8485e-18
14.5178 	0.356428 	0.244138 	3.03326 	-1.8485e-18
14.588 	0.356428 	0.244138 	3.03326 	-1.8485e-18
14.6581 	0.356428 	0.244138 	3.03326 	-1.8485e-18
14.7282 	0.356428 	0.244138 	3.03326 	-1.8485e-18
14.7984 	0.356428 	0.244138 	3.03326 	-1.8485e-18
14.8685 	0.356428 	0.244138 	3.03326 	-1.8485e-18
14.9386 	0.179177 	0.338522 	3.19236 	0
15.0088 	0.179177 	0.338522 	3.19236 	0
15.0789 	0.179177 	0.338522 	3.19236 	0
15.149 	0.179177 	0.338522 	3.19236 	0
15.2192 	0.179177 	0.338522 	3.19236 	0
15.2893 	-0.329208 	0.339509 	3.41911 	-2.04479e-19
15.3594 	-0.329208 	0.339509 	3.41911 	-2.04479e-19
15.4296 	-0.329208 	0.339509 	3.41911 	-2.04479e-19
15.4997 	-0.329208 	0.339509 	3.41911 	-2.04479e-19
15.5698 	-0.329208 	0.339509 	3.41911 	-2.04479e-19
15.64 	-0.329208 	0.339509 	3.41911 	-2.04479e-19
15.7101 	-0.823272 	0.394432 	3.48975 	0
15.7802 	-0.823272 	0.394432 	3.48975 	0
15.8504 	-0.717267 	0.646723 	3.54714 	1.2609e-18
15.9205 	-0.717267 	0.646723 	3.54714 	1.2609e-18
15.9906 	-0.717267 	0.646723 	3.54714 	1.2609e-18
16.0608 	-0.717267 	0.646723 	3.54714 	1.2609e-18
16.1309 	-0.717267 	0.646723 	3.54714 	1.2609e-18
16.201 	-0.717267 	0.646723 	3.54714 	1.2609e-18
16.2712 	-0.717267 	0.646723 	3.54714 	1.2609e-18
16.3413 	-0.717267 	0.646723 	3.54714 	1.2609e-18
16.4114 	-0.717267 	0.646723 	3.54714 	1.2609e-18
16.4816 	-0.717267 	0.646723 	3.54714 	1.2609e-18
16.5517 	-0.717267 	0.646723 	3.54714 	1.2609e-18
16.6219 	-0.717267 	0.646723 	3.54714 	1.2609e-18
16.692 	-0.717267 	0.646723 	3.54714 	1.2609e-18
16.7621 	-0.717267 	0.646723 	3.54714 	1.2609e-18
16.8323 	-0.265412 	0.871078 	3.11472 	6.87162e-20
16.9024 	-0.265412 	0.871078 	3.11472 	6.87162e-20
16.9725 	-0.265412 	0.871078 	3.11472 	6.87162e-20
17.0427 	-0.265412 	0.871078 	3.11472 	6.87162e-20
17.1128 	-0.265412 	0.871078 	3.11472 	6.87162e-20
17.1829 	-0.265412 	0.871078 	3.11472 	6.87162e-20
17.2531 	-0.265412 	0.871078 	3.11472 	6.87162e-20
17.3232 	-0.265412 	0.871078 	3.11472 	6.87162e-20
17.3933 	-0.265412 	0.871078 	3.11472 	6.87162e-20
17.4635 	-0.265412 	0.871078 	3.11472 	6.87162e-20
17.5336 	-0.173003 	0.913244 	3.03115 	-3.71852e-20
17.6037 	-0.173003 	0.913244 	3.03115 	-3.71852e-20
17.6739 	-0.173003 	0.913244 	3.03115 	-3.71852e-20
17.744 	-0.265124 	1.04236 	3.16113 	1.33657e-19
17.8141 	-0.265124 	1.04236 	3.16113 	1.33657e-19
17.8843 	-0.265124 	1.04236 	3.16113 	1.33657e-19
17.9544 	-0.265124 	1.04236 	3.16113 	1.33657e-19
18.0245 	-0.265124 	1.04236 	3.16113 	1.33657e-19
18.0947 	-0.265124 	1.04236 	3.16113 	1.33657e-19
18.1648 	-0.265124 	1.04236 	3.16113 	1.33657e-19
18.2349 	-0.265124 	1.04236 	3.16113 	1.33657e-19
18.3051 	-0.265124 	1.04236 	3.16113 	1.33657e-19
18.3752 	0.0231695 	1.00505 	2.76341 	-1.01637e-19
18.4453 	0.0231695 	1.00505 	2.76341 	-1.01637e-19
18.5155 	0.0231695 	1.00505 	2.76341 	-1.01637e-19
18.5856 	0.0231695 	1.00505 	2.76341 	-1.01637e-19
18.6557 	0.0231695 	1.00505 	2.76341 	-1.01637e-19
18.7259 	0.0231695 	1.00505 	2.76341 	-1.01637e-19
18.796 	0.0231695 	1.00505 	2.76341 	-1.01637e-19
18.8662 	0.086606 	1.0431 	2.82092 	-1.66397e-19
18.9363 	0.086606 	1.0431 	2.82092 	-1.66397e-19
19.0064 	0.086606 	1.0431 	2.82092 	-1.66397e-19
19.0766 	0.086606 	1.0431 	2.82092 	-1.66397e-19
19.1467 	0.086606 	1.0431 	2.82092 	-1.66397e-19
19.2168 	0.086606 	1.0431 	2.82092 	-1.66397e-19
19.287 	0.086606 	1.0431 	2.82092 	-1.66397e-19
19.3571 	0.086606 	1.0431 	2.82092 	-1.66397e-19
19.4272 	0.086606 	1.0431 	2.82092 	-1.66397e-19
19.4974 	0.086606 	1.0431 	2.82092 	-1.66397e-19
19.5675 	0.086606 	1.0431 	2.82092 	-1.66397e-19
19.6376 	0.086606 	1.0431 	2.82092 	-1.66397e-19
19.7078 	0.086606 	1.0431 	2.82092 	-1.66397e-19
19.7779 	0.233109 	0.990805 	2.44697 	-1.1397e-19
19.848 	0.233109 	0.990805 	2.44697 	-1.1397e-19
19.9182 	0.233109 	0.990805 	2.44697 	-1.1397e-19
19.9883 	0.233109 	0.990805 	2.44697 	-1.1397e-19
20.0584 	0.233109 	0.990805 	2.44697 	-1.1397e-19
20.1286 	0.233109 	0.990805 	2.44697 	-1.1397e-19
20.1987 	0.233109 	0.990805 	2.44697 	-1.1397e-19
20.2688 	0.227231 	0.996077 	2.4398 	2.99422e-19
20.339 	0.227231 	0.996077 	2.4398 	2.99422e-19
20.4091 	0.227231 	0.996077 	2.4398 	2.99422e-19
20.4792 	0.227231 	0.996077 	2.4398 	2.99422e-19
20.5494 	0.227231 	0.996077 	2.4398 	2.99422e-19
20.6195 	0.227231 	0.996077 	2.4398 	2.99422e-19
20.6896 	0.227231 	0.996077 	2.4398 	2.99422e-19
20.7598 	0.227231 	0.996077 	2.4398 	2.99422e-19
20.8299 	0.227231 	0.996077 	2.4398 	2.99422e-19
20.9 	0.227231 	0.996077 	2.4398 	2.99422e-19
20.9702 	0.227231 	0.996077 	2.4398 	2.99422e-19
21.0403 	0.227231 	0.996077 	2.4398 	2.99422e-19
21.1105 	0.227231 	0.996077 	2.4398 	2.99422e-19
21.1806 	0.227231 	0.996077 	2.4398 	2.99422e-19
21.2507 	0.227231 	0.996077 	2.4398 	2.99422e-19
21.3209 	0.227231 	0.996077 	2.4398 	2.99422e-19
21.391 	0.227231 	0.996077 	2.4398 	2.99422e-19
21.4611 	0.241168 	0.70004 	1.90474 	-4.0755e-19
21.5313 	0.241168 	0.70004 	1.90474 	-4.0755e-19
21.6014 	0.241168 	0.70004 	1.90474 	-4.0755e-19
21.6715 	0.134747 	0.612343 	1.40461 	-4.29572e-20
21.7417 	0.134747 	0.612343 	1.40461 	-4.29572e-20
21.8118 	0.134747 	0.612343 	1.40461 	-4.29572e-20
21.8819 	0.134747 	0.612343 	1.40461 	-4.29572e-20
21.9521 	0.134747 	0.612343 	1.40461 	-4.29572e-20
22.0222 	0.00257669 	0.932794 	2.34266 	1.03623e-19
22.0923 	0.00257669 	0.932794 	2.34266 	1.03623e-19
22.1625 	0.00257669 	0.932794 	2.34266 	1.03623e-19
22.2326 	0.00257669 	0.932794 	2.34266 	1.03623e-19
22.3027 	0.00257669 	0.932794 	2.34266 	1.03623e-19
22.3729 	0.00257669 	0.932794 	2.34266 	1.03623e-19
22.443 	0.00257669 	0.932794 	2.34266 	1.03623e-19
22.5131 	0.00257669 	0.932794 	2.34266 	1.03623e-19
22.5833 	0.00257669 	0.932794 	2.34266 	1.03623e-19
22.6534 	0.00257669 	0.932794 	2.34266 	1.03623e-19
22.7235 	0.00257669 	0.932794 	2.34266 	1.03623e-19
22.7937 	0.00257669 	0.932794 	2.34266 	1.03623e-19
22.8638 	0.00257669 	0.932794 	2.34266 	1.03623e-19
22.9339 	0.00257669 	0.932794 	2.34266 	1.03623e-19
23.0041 	0.00257669 	0.932794 	2.34266 	1.03623e-19
23.0742 	0.00257669 	0.932794 	2.34266 	1.03623e-19
23.1443 	0.00257669 	0.932794 	2.34266 	1.03623e-19
23.2145 	0.00257669 	0.932794 	2.34266 	1.03623e-19
23.2846 	0.00257669 	0.932794 	2.34266 	1.03623e-19
23.3548 	0.00257669 	0.932794 	2.34266 	1.03623e-19
23.4249 	0.00257669 	0.932794 	2.34266 	1.03623e-19
23.495 	0.19074 	0.900363 	2.32149 	-8.44206e-20
23.5652 	0.19074 	0.900363 	2.32149 	-8.44206e-20
23.6353 	0.19074 	0.900363 	2.32149 	-8.44206e-20
23.7054 	0.19074 	0.900363 	2.32149 	-8.44206e-20
23.7756 	0.19074 	0.900363 	2.32149 	-8.44206e-20
23.8457 	0.19074 	0.900363 	2.32149 	-8.44206e-20
23.9158 	0.19074 	0.900363 	2.32149 	-8.44206e-20
23.986 	0.319304 	0.839273 	2.1832 	3.85061e-21
24.0561 	0.319304 	0.839273 	2.1832 	3.85061e-21
24.1262 	0.319304 	0.839273 	2.1832 	3.85061e-21
24.1964 	0.319304 	0.839273 	2.1832 	3.85061e-21
24.2665 	0.319304 	0.839273 	2.1832 	3.85061e-21
24.3366 	0.319304 	0.839273 	2.1832 	3.85061e-21
24.4068 	0.319304 	0.839273 	2.1832 	3.85061e-21
24.4769 	0.319304 	0.839273 	2.1832 	3.85061e-21
24.547 	0.319304 	0.839273 	2.1832 	3.85061e-21
24.6172 	0.319304 	0.839273 	2.1832 	3.85061e-21
24.6873 	0.319304 	0.839273 	2.1832 	3.85061e-21
24.7574 	0.319304 	0.839273 	2.1832 	3.85061e-21
24.8276 	0.319304 	0.839273 	2.1832 	3.85061e-21
24.8977 	0.319304 	0.839273 	2.1832 	3.85061e-21
24.9678 	0.319304 	0.839273 	2.1832 	3.85061e-21
25.038 	0.319304 	0.839273 	2.1832 	3.85061e-21
25.1081 	0.319304 	0.839273 	2.1832 	3.85061e-21
25.1782 	0.266792 	0.49802 	1.35155 	0
25.2484 	0.266792 	0.49802 	1.35155 	0
25.3185 	0.266792 	0.49802 	1.35155 	0
25.3886 	0.266792 	0.49802 	1.35155 	0
25.4588 	0.266792 	0.49802 	1.35155 	0
25.5289 	0.266792 	0.49802 	1.35155 	0
25.5991 	0.266792 	0.49802 	1.35155 	0
25.6692 	0.266792 	0.49802 	1.35155 	0
25.7393 	0.266792 	0.49802 	1.35155 	0
25.8095 	0.266792 	0.49802 	1.35155 	0
25.8796 	0.266792 	0.49802 	1.35155 	0
25.9497 	0.266792 	0.49802 	1.35155 	0
26.0199 	0.266792 	0.49802 	1.35155 	0
26.09 	0.266792 	0.49802 	1.35155 	0
26.1601 	0.266792 	0.49802 	1.35155 	0
26.2303 	0.172107 	0.497603 	1.3708 	-2.80134e-19
26.3004 	0.172107 	0.497603 	1.3708 	-2.80134e-19
26.3705 	0.172107 	0.497603 	1.3708 	-2.80134e-19
26.4407 	0.172107 	0.497603 	1.3708 	-2.80134e-19
26.5108 	0.172107 	0.497603 	1.3708 	-2.80134e-19
26.5809 	0.172107 	0.497603 	1.3708 	-2.80134e-19
26.6511 	0.172107 	0.497603 	1.3708 	-2.80134e-19
26.7212 	0.172107 	0.497603 	1.3708 	-2.80134e-19
26.7913 	0.172107 	0.497603 	1.3708 	-2.80134e-19
26.8615 	0.172107 	0.497603 	1.3708 	-2.80134e-19
26.9316 	0.172107 	0.497603 	1.3708 	-2.80134e-19
27.0017 	0.172107 	0.497603 	1.3708 	-2.80134e-19
27.0719 	0.172107 	0.497603 	1.3708 	-2.80134e-19
27.142 	0.172107 	0.497603 	1.3708 	-2.80134e-19
27.2121 	0.172107 	0.497603 	1.3708 	-2.80134e-19
27.2823 	0.172107 	0.497603 	1.3708 	-2.80134e-19
27.3524 	0.112612 	0.490849 	1.37406 	3.07409e-19
27.4225 	0.112612 	0.490849 	1.37406 	3.07409e-19
27.4927 	0.112612 	0.490849 	1.37406 	3.07409e-19
27.5628 	0.112612 	0.490849 	1.37406 	3.07409e-19
27.6329 	0.112612 	0.490849 	1.37406 	3.07409e-19
27.7031 	0.112612 	0.490849 	1.37406 	3.07409e-19
27.7732 	0.112612 	0.490849 	1.37406 	3.07409e-19
27.8434 	0.112612 	0.490849 	1.37406 	3.07409e-19
27.9135 	0.112612 	0.490849 	1.37406 	3.07409e-19
27.9836 	0.112612 	0.490849 	1.37406 	3.07409e-19
28.0538 	0.112612 	0.490849 	1.37406 	3.07409e-19
28.1239 	0.112612 	0.490849 	1.37406 	3.07409e-19
28.194 	0.112612 	0.490849 	1.37406 	3.07409e-19
28.2642 	0.112612 	0.490849 	1.37406 	3.07409e-19
28.3343 	0.112612 	0.490849 	1.37406 	3.07409e-19
28.4044 	0.112612 	0.490849 	1.37406 	3.07409e-19
28.4746 	0.112612 	0.490849 	1.37406 	3.07409e-19
28.5447 	0.112612 	0.490849 	1.37406 	3.07409e-19
28.6148 	0.112612 	0.490849 	1.37406 	3.07409e-19
28.685 	0.112612 	0.490849 	1.37406 	3.07409e-19
28.7551 	0.112612 	0.490849 	1.37406 	3.07409e-19
28.8252 	0.112612 	0.490849 	1.37406 	3.07409e-19
28.8954 	0.112612 	0.490849 	1.37406 	3.07409e-19
28.9655 	0.0639828 	0.435493 	1.29257 	8.2027e-21
29.0356 	0.0639828 	0.435493 	1.29257 	8.2027e-21
29.1058 	0.0639828 	0.435493 	1.29257 	8.2027e-21
29.1759 	0.0639828 	0.435493 	1.29257 	8.2027e-21
29.246 	0.0639828 	0.435493 	1.29257 	8.2027e-21
29.3162 	0.0639828 	0.435493 	1.29257 	8.2027e-21
29.3863 	0.0639828 	0.435493 	1.29257 	8.2027e-21
29.4564 	0.0639828 	0.435493 	1.29257 	8.2027e-21
29.5266 	0.0639828 	0.435493 	1.29257 	8.2027e-21
29.5967 	0.0639828 	0.435493 	1.29257 	8.2027e-21
29.6668 	0.0639828 	0.435493 	1.29257 	8.2027e-21
29.737 	0.0639828 	0.435493 	1.29257 	8.2027e-21
29.8071 	0.0639828 	0.435493 	1.29257 	8.2027e-21
29.8773 	0.0639828 	0.435493 	1.29257 	8.2027e-21
29.9474 	0.0639828 	0.435493 	1.29257 	8.2027e-21
30.0175 	0.0639828 	0.435493 	1.29257 	8.2027e-21
30.0877 	0.0639828 	0.435493 	1.29257 	8.2027e-21
30.1578 	0.0639828 	0.435493 	1.29257 	8.2027e-21
30.2279 	0.0639828 	0.435493 	1.29257 	8.2027e-21
30.2981 	0.0639828 	0.435493 	1.29257 	8.2027e-21
30.3682 	0.0639828 	0.435493 	1.29257 	8.2027e-21
30.4383 	0.0639828 	0.435493 	1.29257 	8.2027e-21
30.5085 	0.0639828 	0.435493 	1.29257 	8.2027e-21
30.5786 	0.0639828 	0.435493 	1.29257 	8.2027e-21
30.6487 	0.0639828 	0.435493 	1.29257 	8.2027e-21
30.7189 	0.0639828 	0.435493 	1.29257 	8.2027e-21
30.789 	0.058553 	0.36703 	1.29838 	-8.42825e-20
30.8591 	0.058553 	0.36703 	1.29838 	-8.42825e-20
30.9293 	0.058553 	0.36703 	1.29838 	-8.42825e-20
30.9994 	0.058553 	0.36703 	1.29838 	-8.42825e-20
31.0695 	0.058553 	0.36703 	1.29838 	-8.42825e-20
31.1397 	0.058553 	0.36703 	1.29838 	-8.42825e-20
31.2098 	0.058553 	0.36703 	1.29838 	-8.42825e-20
31.2799 	0.058553 	0.36703 	1.29838 	-8.42825e-20
31.3501 	0.058553 	0.36703 	1.29838 	-8.42825e-20
31.4202 	0.058553 	0.36703 	1.29838 	-8.42825e-20
31.4903 	0.058553 	0.36703 	1.29838 	-8.42825e-20
31.5605 	0.058553 	0.36703 	1.29838 	-8.42825e-20
31.6306 	0.058553 	0.36703 	1.29838 	-8.42825e-20
31.7007 	0.058553 	0.36703 	1.29838 	-8.42825e-20
31.7709 	0.058553 	0.36703 	1.29838 	-8.42825e-20
31.841 	0.058553 	0.36703 	1.29838 	-8.42825e-20
31.9111 	0.058553 	0.36703 	1.29838 	-8.42825e-20
31.9813 	0.058553 	0.36703 	1.29838 	-8.42825e-20
32.0514 	0.058553 	0.36703 	1.29838 	-8.42825e-20
32.1216 	0.058553 	0.36703 	1.29838 	-8.42825e-20
32.1917 	0.058553 	0.36703 	1.29838 	-8.42825e-20
32.2618 	0.058553 	0.36703 	1.29838 	-8.42825e-20
32.332 	0.058553 	0.36703 	1.29838 	-8.42825e-20
32.4021 	0.058553 	0.36703 	1.29838 	-8.42825e-20
32.4722 	0.058553 	0.36703 	1.29838 	-8.42825e-20
32.5424 	0.058553 	0.36703 	1.29838 	-8.42825e-20
32.6125 	0.058553 	0.36703 	1.29838 	-8.42825e-20
32.6826 	0.058553 	0.36703 	1.29838 	-8.42825e-20
32.7528 	0.058553 	0.36703 	1.29838 	-8.42825e-20
32.8229 	0.058553 	0.36703 	1.29838 	-8.42825e-20
32.893 	0.058553 	0.36703 	1.29838 	-8.42825e-20
32.9632 	0.058553 	0.36703 	1.29838 	-8.42825e-20
33.0333 	0.058553 	0.36703 	1.29838 	-8.42825e-20
33.1034 	0.058553 	0.36703 	1.29838 	-8.42825e-20
33.1736 	0.058553 	0.36703 	1.29838 	-8.42825e-20
33.2437 	0.058553 	0.36703 	1.29838 	-8.42825e-20
33.3138 	0.058553 	0.36703 	1.29838 	-8.42825e-20
33.384 	0.058553 	0.36703 	1.29838 	-8.42825e-20
33.4541 	0.058553 	0.36703 	1.29838 	-8.42825e-20
33.5242 	0.058553 	0.36703 	1.29838 	-8.42825e-20
33.5944 	0.058553 	0.36703 	1.29838 	-8.42825e-20
33.6645 	0.058553 	0.36703 	1.29838 	-8.42825e-20
33.7346 	0.0208551 	0.364193 	1.36963 	4.45925e-20
33.8048 	0.0208551 	0.364193 	1.36963 	4.45925e-20
33.8749 	0.0208551 	0.364193 	1.36963 	4.45925e-20
33.945 	0.0208551 	0.364193 	1.36963 	4.45925e-20
34.0152 	0.0208551 	0.364193 	1.36963 	4.45925e-20
34.0853 	0.0208551 	0.364193 	1.36963 	4.45925e-20
34.1554 	0.0187258 	0.271484 	1.32344 	-1.13743e-19
34.2256 	0.0187258 	0.271484 	1.32344 	-1.13743e-19
34.2957 	0.0187258 	0.271484 	1.32344 	-1.13743e-19
34.3659 	0.0187258 	0.271484 	1.32344 	-1.13743e-19
34.436 	0.0187258 	0.271484 	1.32344 	-1.13743e-19
34.5061 	0.0187258 	0.271484 	1.32344 	-1.13743e-19
34.5763 	0.0187258 	0.271484 	1.32344 	-1.13743e-19
34.6464 	0.0187258 	0.271484 	1.32344 	-1.13743e-19
34.7165 	0.218958 	0.26107 	1.61655 	1.21055e-19
34.7867 	0.218958 	0.26107 	1.61655 	1.21055e-19
34.8568 	0.218958 	0.26107 	1.61655 	1.21055e-19
34.9269 	0.218958 	0.26107 	1.61655 	1.21055e-19
34.9971 	0.218958 	0.26107 	1.61655 	1.21055e-19
35.0672 	0.218958 	0.26107 	1.61655 	1.21055e-19
35.1373 	0.218958 	0.26107 	1.61655 	1.21055e-19
35.2075 	0.218958 	0.26107 	1.61655 	1.21055e-19
35.2776 	0.218958 	0.26107 	1.61655 	1.21055e-19
35.3477 	0.218958 	0.26107 	1.61655 	1.21055e-19
35.4179 	0.218958 	0.26107 	1.61655 	1.21055e-19
35.488 	0.218958 	0.26107 	1.61655 	1.21055e-19
35.5581 	0.218958 	0.26107 	1.61655 	1.21055e-19
35.6283 	0.218958 	0.26107 	1.61655 	1.21055e-19
35.6984 	0.218958 	0.26107 	1.61655 	1.21055e-19
35.7685 	0.218958 	0.26107 	1.61655 	1.21055e-19
35.8387 	0.218958 	0.26107 	1.61655 	1.21055e-19
35.9088 	0.218958 	0.26107 	1.61655 	1.21055e-19
35.9789 	0.218958 	0.26107 	1.61655 	1.21055e-19
36.0491 	0.193431 	0.238768 	1.5771 	0
36.1192 	0.193431 	0.238768 	1.5771 	0
36.1893 	0.193431 	0.238768 	1.5771 	0
36.2595 	0.193431 	0.238768 	1.5771 	0
36.3296 	0.193431 	0.238768 	1.5771 	0
36.3997 	0.193431 	0.238768 	1.5771 	0
36.4699 	0.193431 	0.238768 	1.5771 	0
36.54 	0.193431 	0.238768 	1.5771 	0
36.6102 	0.193431 	0.238768 	1.5771 	0
36.6803 	0.193431 	0.238768 	1.5771 	0
36.7504 	0.193431 	0.238768 	1.5771 	0
36.8206 	0.193431 	0.238768 	1.5771 	0
36.8907 	0.0674579 	0.186378 	1.45165 	7.71851e-20
36.9608 	0.0674579 	0.186378 	1.45165 	7.71851e-20
37.031 	0.0674579 	0.186378 	1.45165 	7.71851e-20
37.1011 	0.0674579 	0.186378 	1.45165 	7.71851e-20
37.1712 	0.0674579 	0.186378 	1.45165 	7.71851e-20
37.2414 	0.0674579 	0.186378 	1.45165 	7.71851e-20
37.3115 	0.0674579 	0.186378 	1.45165 	7.71851e-20
37.3816 	0.0674579 	0.186378 	1.45165 	7.71851e-20
37.4518 	0.0674579 	0.186378 	1.45165 	7.71851e-20
37.5219 	0.0674579 	0.186378 	1.45165 	7.71851e-20
37.592 	0.0674579 	0.186378 	1.45165 	7.71851e-20
37.6622 	0.0674579 	0.186378 	1.45165 	7.71851e-20
37.7323 	0.0674579 	0.186378 	1.45165 	7.71851e-20
37.8024 	0.0674579 	0.186378 	1.45165 	7.71851e-20
37.8726 	0.0674579 	0.186378 	1.45165 	7.71851e-20
37.9427 	0.0674579 	0.186378 	1.45165 	7.71851e-20
38.0128 	0.0674579 	0.186378 	1.45165 	7.71851e-20
38.083 	0.0674579 	0.186378 	1.45165 	7.71851e-20
38.1531 	0.0674579 	0.186378 	1.45165 	7.71851e-20
38.2232 	0.0918837 	0.129721 	1.59452 	-8.85087e-20
38.2934 	0.0918837 	0.129721 	1.59452 	-8.85087e-20
38.3635 	0.0918837 	0.129721 	1.59452 	-8.85087e-20
38.4336 	0.0918837 	0.129721 	1.59452 	-8.85087e-20
38.5038 	0.0918837 	0.129721 	1.59452 	-8.85087e-20
38.5739 	0.0918837 	0.129721 	1.59452 	-8.85087e-20
38.644 	0.0918837 	0.129721 	1.59452 	-8.85087e-20
38.7142 	0.0918837 	0.129721 	1.59452 	-8.85087e-20
38.7843 	0.0918837 	0.129721 	1.59452 	-8.85087e-20
38.8545 	0.0918837 	0.129721 	1.59452 	-8.85087e-20
38.9246 	0.0918837 	0.129721 	1.59452 	-8.85087e-20
38.9947 	0.0918837 	0.129721 	1.59452 	-8.85087e-20
39.0649 	0.0918837 	0.129721 	1.59452 	-8.85087e-20
39.135 	0.0918837 	0.129721 	1.59452 	-8.85087e-20
39.2051 	0.0552215 	0.113899 	1.5678 	0
39.2753 	0.0552215 	0.113899 	1.5678 	0
39.3454 	0.0552215 	0.113899 	1.5678 	0
39.4155 	0.0552215 	0.113899 	1.5678 	0
39.4857 	0.0552215 	0.113899 	1.5678 	0
39.5558 	0.0552215 	0.113899 	1.5678 	0
39.6259 	0.0552215 	0.113899 	1.5678 	0
39.6961 	0.0552215 	0.113899 	1.5678 	0
39.7662 	0.0552215 	0.113899 	1.5678 	0
39.8363 	0.0552215 	0.113899 	1.5678 	0
39.9065 	0.0552215 	0.113899 	1.5678 	0
39.9766 	0.0552215 	0.113899 	1.5678 	0
40.0467 	0.0552215 	0.113899 	1.5678 	0
40.1169 	0.0552215 	0.113899 	1.5678 	0
40.187 	0.0552215 	0.113899 	1.5678 	0
40.2571 	0.0552215 	0.113899 	1.5678 	0
40.3273 	0.0552215 	0.113899 	1.5678 	0
40.3974 	0.0552215 	0.113899 	1.5678 	0
40.4675 	0.0552215 	0.113899 	1.5678 	0
40.5377 	0.0552215 	0.113899 	1.5678 	0
40.6078 	0.0552215 	0.113899 	1.5678 	0
40.6779 	0.0407609 	0.110447 	1.51401 	-2.39748e-20
40.7481 	0.0407609 	0.110447 	1.51401 	-2.39748e-20
40.8182 	0.0407609 	0.110447 	1.51401 	-2.39748e-20
40.8883 	0.0407609 	0.110447 	1.51401 	-2.39748e-20
40.9585 	0.0407609 	0.110447 	1.51401 	-2.39748e-20
41.0286 	0.0407609 	0.110447 	1.51401 	-2.39748e-20
41.0988 	0.0407609 	0.110447 	1.51401 	-2.39748e-20
41.1689 	0.0407609 	0.110447 	1.51401 	-2.39748e-20
41.239 	0.041508 	0.0866269 	1.53025 	4.49661e-20
41.3092 	0.041508 	0.0866269 	1.53025 	4.49661e-20
41.3793 	0.041508 	0.0866269 	1.53025 	4.49661e-20
41.4494 	0.041508 	0.0866269 	1.53025 	4.49661e-20
41.5196 	0.041508 	0.0866269 	1.53025 	4.49661e-20
41.5897 	0.041508 	0.0866269 	1.53025 	4.49661e-20
41.6598 	0.041508 	0.0866269 	1.53025 	4.49661e-20
41.73 	0.041508 	0.0866269 	1.53025 	4.49661e-20
41.8001 	0.041508 	0.0866269 	1.53025 	4.49661e-20
41.8702 	0.041508 	0.0866269 	1.53025 	4.49661e-20
41.9404 	0.041508 	0.0866269 	1.53025 	4.49661e-20
42.0105 	0.041508 	0.0866269 	1.53025 	4.49661e-20
42.0806 	0.041508 	0.0866269 	1.53025 	4.49661e-20
42.1508 	0.041508 	0.0866269 	1.53025 	4.49661e-20
42.2209 	0.041508 	0.0866269 	1.53025 	4.49661e-20
42.291 	0.041508 	0.0866269 	1.53025 	4.49661e-20
42.3612 	0.041508 	0.0866269 	1.53025 	4.49661e-20
42.4313 	0.041508 	0.0866269 	1.53025 	4.49661e-20
42.5014 	0.041508 	0.0866269 	1.53025 	4.49661e-20
42.5716 	0.041508 	0.0866269 	1.53025 	4.49661e-20
42.6417 	0.041508 	0.0866269 	1.53025 	4.49661e-20
42.7118 	0.0301316 	0.0855634 	1.51512 	0
42.782 	0.0301316 	0.0855634 	1.51512 	0
42.8521 	0.0301316 	0.0855634 	1.51512 	0
42.9222 	0.0301316 	0.0855634 	1.51512 	0
42.9924 	0.0485676 	0.0452836 	1.57733 	0
43.0625 	0.0485676 	0.0452836 	1.57733 	0
43.1327 	0.0485676 	0.0452836 	1.57733 	0
43.2028 	0.0485676 	0.0452836 	1.57733 	0
43.2729 	0.0485676 	0.0452836 	1.57733 	0
43.3431 	0.0485676 	0.0452836 	1.57733 	0
43.4132 	0.0485676 	0.0452836 	1.57733 	0
43.4833 	0.0485676 	0.0452836 	1.57733 	0
43.5535 	0.0485676 	0.0452836 	1.57733 	0
43.6236 	0.0485676 	0.0452836 	1.57733 	0
43.6937 	0.0485676 	0.0452836 	1.57733 	0
43.7639 	0.0485676 	0.0452836 	1.57733 	0
43.834 	0.0485676 	0.0452836 	1.57733 	0
43.9041 	0.0485676 	0.0452836 	1.57733 	0
43.9743 	0.0485676 	0.0452836 	1.57733 	0
44.0444 	0.0485676 	0.0452836 	1.57733 	0