/*--------------------------------*- C++ -*----------------------------------*\
| =========                 |                                                 |
| \\      /  F ield         | OpenFOAM: The Open Source CFD Toolbox           |
|  \\    /   O peration     | Version:  2306                                  |
|   \\  /    A nd           | Website:  www.openfoam.com                      |
|    \\/     M anipulation  |                                                 |
\*---------------------------------------------------------------------------*/
FoamFile
{
    version     2.0;
    format      ascii;
    arch        "LSB;label=32;scalar=64";
    class       surfaceScalarField;
    location    "56";
    object      phi;
}
// * * * * * * * * * * * * * * * * * * * * * * * * * * * * * * * * * * * * * //

dimensions      [0 3 -1 0 0 0 0];

oriented        oriented;

internalField   nonuniform List<scalar> 
17370
(
-0.0910989
0.0935454
0.286564
-0.0749548
0.056955
0.364775
-0.0409386
0.0299553
0.427151
-0.0212014
0.0156023
0.504851
-0.0113533
0.00865431
0.602101
-0.00652192
0.00506888
0.720511
-0.0038495
0.00297773
0.863778
-0.0022098
0.00163434
1.03603
-0.00110469
0.000684831
1.24292
-0.000274688
-0.000118637
1.49158
0.00050432
-0.000917183
1.4916
0.00132028
-0.00182314
1.24319
0.00237122
-0.00310951
1.03638
0.00395833
-0.0051597
0.864108
0.00660258
-0.00872746
0.721182
0.0114197
-0.0156598
0.603455
0.0212502
-0.029994
0.508183
0.0409677
-0.0569756
0.432176
0.0749709
-0.0935547
0.365359
0.0911118
0.197899
-0.127347
0.0881442
0.0392027
-0.364737
0.35379
-0.0726294
0.0835767
-0.446565
0.454369
-0.0817111
0.0739079
-0.520972
0.529524
-0.0657994
0.0572467
-0.612851
0.621016
-0.0494959
0.04133
-0.727002
0.733791
-0.0344025
0.0276134
-0.867514
0.872452
-0.0222702
0.0173322
-1.03855
1.04191
-0.0136112
0.0102573
-1.24471
1.24713
-0.00770106
0.00528844
-1.49284
1.49486
-0.00332027
0.00130239
-1.49269
1.49451
0.000518757
-0.00234057
-1.2441
1.24602
0.00431695
-0.00623195
-1.0376
1.04008
0.00857478
-0.0110605
-0.866159
0.869809
0.0143337
-0.017984
-0.724479
0.729771
0.0228541
-0.0281463
-0.608887
0.615773
0.0348875
-0.0417735
-0.514989
0.522696
0.0498934
-0.0576004
-0.439772
0.447829
0.0660995
-0.0741564
-0.375155
0.377
0.0818968
-0.0837413
-0.256916
0.223419
0.0727441
-0.0392469
-0.0686534
0.0589236
0.00972985
-0.052076
0.0587721
-0.374543
0.367847
-0.0578861
0.0540594
-0.45383
0.457657
-0.0487014
0.0443622
-0.527745
0.532084
-0.0401391
0.0363564
-0.621106
0.624888
-0.0321319
0.0280586
-0.73488
0.738953
-0.0235829
0.0195868
-0.874051
0.878047
-0.0154464
0.011927
-1.0434
1.04692
-0.00835644
0.0052895
-1.24867
1.25173
-0.00205165
-0.000951536
-1.49695
1.49995
0.00393324
-0.00711004
-1.49743
1.50061
0.0100882
-0.0135391
-1.2501
1.25355
0.0169382
-0.0209408
-1.04572
1.04973
0.0248143
-0.0291676
-0.877317
0.88167
0.0331427
-0.0372718
-0.739311
0.74344
0.0409747
-0.0451176
-0.626341
0.630483
0.0493886
-0.0546804
-0.534935
0.540226
0.0584345
-0.0592287
-0.457918
0.458712
0.052417
-0.0320402
-0.336393
0.316016
0.00978707
-0.0685011
0.058714
-0.0531649
0.0491157
0.00404919
-0.0331656
0.0436577
-0.358376
0.347884
-0.0473742
0.0467866
-0.459515
0.460102
-0.0438091
0.0405385
-0.536029
0.539299
-0.0368267
0.0334899
-0.62845
0.631787
-0.0299226
0.0267688
-0.742265
0.745419
-0.0234144
0.0202419
-0.881585
0.884757
-0.0166386
0.0132543
-1.05041
1.05379
-0.00951311
0.00606933
-1.25503
1.25848
-0.00223824
-0.00141487
-1.50333
1.50699
0.00503695
-0.00877727
-1.50414
1.50788
0.0120969
-0.0156696
-1.25716
1.26073
0.0188827
-0.0222894
-1.05349
1.0569
0.025287
-0.0284656
-0.885281
0.888459
0.0314773
-0.0349058
-0.746931
0.750359
0.0381265
-0.0417186
-0.634497
0.638089
0.0448857
-0.0477466
-0.544454
0.547315
0.0482123
-0.0443246
-0.456879
0.452991
0.0336271
-0.016264
-0.296644
0.279281
0.00411851
-0.0528932
0.0487747
-0.0459944
0.0434696
0.00252472
-0.0229239
0.0332893
-0.337246
0.326881
-0.0390692
0.040053
-0.459815
0.458831
-0.038834
0.0365327
-0.541974
0.544276
-0.03389
0.0313259
-0.634786
0.63735
-0.0283174
0.0254565
-0.748487
0.751348
-0.0222189
0.0192194
-0.887761
0.890761
-0.015897
0.0127823
-1.05696
1.06008
-0.00923019
0.00581831
-1.2619
1.26531
-0.00188522
-0.0019388
-1.51075
1.51458
0.00572298
-0.00953393
-1.51169
1.5155
0.0127815
-0.0161126
-1.2642
1.26753
0.0190034
-0.0220691
-1.06006
1.06313
0.0248377
-0.0278391
-0.891604
0.894605
0.0305055
-0.0333228
-0.753547
0.756365
0.0357279
-0.03821
-0.64109
0.643573
0.0403737
-0.0414112
-0.54913
0.550167
0.0402383
-0.0341823
-0.447791
0.441735
0.0235153
-0.0102926
-0.264095
0.250873
0.00260999
-0.0455762
0.0429663
-0.0413719
0.0395861
0.00178586
-0.0168578
0.0261327
-0.317015
0.307741
-0.0327411
0.034875
-0.45725
0.455116
-0.0344499
0.0327654
-0.546281
0.547965
-0.0305619
0.028455
-0.639654
0.641761
-0.0260293
0.0236472
-0.753966
0.756349
-0.0208151
0.0180545
-0.893622
0.896383
-0.0148585
0.0118201
-1.06311
1.06615
-0.0083558
0.00504225
-1.26863
1.27194
-0.00120261
-0.0025496
-1.51836
1.52211
0.00625014
-0.00993683
-1.51925
1.52294
0.0130433
-0.0162278
-1.27079
1.27397
0.0189815
-0.021849
-1.06614
1.06901
0.0243112
-0.0268361
-0.897405
0.89993
0.0289662
-0.0311461
-0.758815
0.760995
0.0330509
-0.0350485
-0.645764
0.647762
0.0365327
-0.0367109
-0.550722
0.5509
0.0342867
-0.0272749
-0.435112
0.4281
0.0175949
-0.00743561
-0.239327
0.229168
0.00188998
-0.0407745
0.0388845
-0.0380476
0.0367044
0.00134321
-0.0128846
0.020866
-0.299116
0.291135
-0.0276345
0.030563
-0.452553
0.449625
-0.0307737
0.0296549
-0.549398
0.550517
-0.0276622
0.0257442
-0.643808
0.645726
-0.0235429
0.0214092
-0.758584
0.760718
-0.0189054
0.0164344
-0.89894
0.901411
-0.0135054
0.0106413
-1.06905
1.07192
-0.00730293
0.00408198
-1.27517
1.2784
-0.000349102
-0.00327842
-1.52577
1.5294
0.00684122
-0.0103827
-1.52654
1.53008
0.0133455
-0.0163351
-1.27709
1.28008
0.0188425
-0.0213583
-1.07174
1.07425
0.0234549
-0.025573
-0.90224
0.904358
0.0273881
-0.0292764
-0.763017
0.764905
0.0309387
-0.0326847
-0.649611
0.651357
0.0335109
-0.0329559
-0.550714
0.550159
0.0296126
-0.0222925
-0.420877
0.413557
0.0137913
-0.00575345
-0.220171
0.212133
0.00146987
-0.0372315
0.0357616
-0.0355307
0.0344951
0.00103561
-0.0100763
0.0168316
-0.283791
0.277036
-0.023344
0.026732
-0.446446
0.443058
-0.0275223
0.0268328
-0.551415
0.552104
-0.0250757
0.0232979
-0.647618
0.649396
-0.021239
0.0192344
-0.762786
0.764791
-0.0168751
0.0145595
-0.903735
0.906051
-0.0118342
0.00915908
-1.07462
1.07729
-0.00600835
0.00293186
-1.2815
1.28458
0.00066127
-0.00415484
-1.53293
1.53642
0.00756906
-0.0109254
-1.53353
1.53688
0.0136822
-0.0164016
-1.28295
1.28567
0.0186374
-0.0208535
-1.07664
1.07885
0.0227057
-0.0245861
-0.906372
0.908252
0.0261952
-0.0278653
-0.766685
0.768355
0.029326
-0.0307428
-0.652955
0.654372
0.0310682
-0.0297897
-0.549254
0.547975
0.0258312
-0.018594
-0.406253
0.399016
0.0111865
-0.00463589
-0.204909
0.198358
0.00118962
-0.0344488
0.0332592
-0.0335852
0.0327774
0.000807756
-0.00799511
0.013679
-0.270846
0.265162
-0.0197132
0.0233054
-0.439558
0.435966
-0.0245791
0.02414
-0.552704
0.553143
-0.0226555
0.0209892
-0.651171
0.652837
-0.0190281
0.0171136
-0.766747
0.768662
-0.0148545
0.0126336
-0.908252
0.910473
-0.0100179
0.00746072
-1.07983
1.08239
-0.00446304
0.00153462
-1.28753
1.29046
0.00188885
-0.0052148
-1.53981
1.54313
0.00844517
-0.0115794
-1.54011
1.54325
0.0141163
-0.0165883
-1.28827
1.29074
0.0186082
-0.0205988
-1.08099
1.08298
0.0222491
-0.0239182
-0.910051
0.91172
0.0253455
-0.0268268
-0.769933
0.771414
0.0280977
-0.029143
-0.655577
0.656623
0.0291007
-0.0271612
-0.546369
0.54443
0.0228084
-0.0158453
-0.391911
0.384948
0.00935197
-0.00386085
-0.192389
0.186898
0.000995027
-0.0321802
0.0311852
-0.0320671
0.0314355
0.000631678
-0.00639186
0.011161
-0.259963
0.255194
-0.0166112
0.020211
-0.432371
0.428771
-0.0218155
0.0216066
-0.553506
0.553715
-0.0203596
0.0187562
-0.654523
0.656126
-0.0168548
0.0149937
-0.770543
0.772404
-0.0127987
0.0106421
-0.912585
0.914742
-0.00810279
0.00562354
-1.08483
1.08731
-0.00272722
-7.97159e-05
-1.29327
1.29608
0.00335261
-0.00650598
-1.54633
1.54949
0.00953931
-0.0124533
-1.54625
1.54917
0.0147926
-0.0170524
-1.29312
1.29538
0.0188784
-0.0206555
-1.08492
1.08669
0.0221137
-0.0235858
-0.913319
0.914791
0.0248488
-0.0261587
-0.772813
0.774123
0.0272857
-0.0279211
-0.657445
0.658081
0.0275145
-0.0250228
-0.542228
0.539736
0.0204338
-0.0138137
-0.378168
0.371548
0.00804673
-0.00331684
-0.181827
0.177097
0.000859087
-0.0302697
0.0294106
-0.0308832
0.0303939
0.000489365
-0.00510356
0.00908465
-0.250846
0.246864
-0.0139063
0.0173652
-0.425251
0.421792
-0.0191611
0.0191488
-0.553871
0.553884
-0.0181033
0.0165389
-0.657779
0.659343
-0.0146651
0.0128239
-0.774245
0.776086
-0.0106529
0.00852569
-0.916794
0.918922
-0.00603074
0.0036047
-1.08967
1.0921
-0.00077967
-0.00194507
-1.29878
1.3015
0.0050848
-0.00808041
-1.55252
1.55551
0.0109316
-0.0136409
-1.55195
1.55466
0.0157911
-0.0178414
-1.29755
1.2996
0.0194751
-0.021043
-1.08843
1.09
0.0223188
-0.0236113
-0.916204
0.917497
0.0247278
-0.0258817
-0.775358
0.776512
0.0268216
-0.0270895
-0.658513
0.65878
0.0262929
-0.0233372
-0.537025
0.53407
0.0186135
-0.0123322
-0.365119
0.358837
0.00712375
-0.00293885
-0.172674
0.168489
0.000766139
-0.0286089
0.0278428
-0.029972
0.0296027
0.000369292
-0.00402633
0.00731603
-0.243253
0.239964
-0.0114976
0.0147062
-0.418474
0.415266
-0.0165683
0.0167172
-0.553869
0.55372
-0.0157595
0.0142734
-0.660946
0.662432
-0.0124002
0.0105474
-0.777918
0.77977
-0.00836398
0.0062329
-0.920949
0.92308
-0.00374666
0.00134107
-1.09441
1.09682
0.00143641
-0.0040974
-1.30413
1.30679
0.00713682
-0.0100009
-1.5584
1.56126
0.0126899
-0.015206
-1.55725
1.55977
0.0171716
-0.0190155
-1.30155
1.3034
0.0204613
-0.0218251
-1.09154
1.0929
0.0229213
-0.0240366
-0.918738
0.919853
0.0250074
-0.0259958
-0.777588
0.778576
0.0266884
-0.0266579
-0.658912
0.658881
0.0254563
-0.0220925
-0.530926
0.527562
0.0172818
-0.0112883
-0.352728
0.346735
0.00649177
-0.00268668
-0.164526
0.160721
0.000706168
-0.0271178
0.0264116
-0.0292936
0.0290312
0.000262437
-0.00308381
0.00575021
-0.237008
0.234342
-0.00929237
0.0121682
-0.412245
0.409369
-0.0139837
0.0142229
-0.553586
0.553347
-0.0133159
0.0118797
-0.663979
0.665415
-0.00998603
0.00809454
-0.781619
0.78351
-0.00586583
0.00369882
-0.925113
0.92728
-0.00118368
-0.00122961
-1.09911
1.10153
0.00399971
-0.00662848
-1.30936
1.31199
0.00959426
-0.0123492
-1.56402
1.56677
0.0148923
-0.0172247
-1.56216
1.56449
0.0190098
-0.0206487
-1.30515
1.30679
0.0219057
-0.0230614
-1.09425
1.09541
0.023973
-0.0249088
-0.920926
0.921862
0.0257348
-0.0265515
-0.779476
0.780293
0.0269623
-0.0266734
-0.658716
0.658427
0.025026
-0.021278
-0.524027
0.520279
0.0163879
-0.0106051
-0.340884
0.335102
0.00609099
-0.00253367
-0.157072
0.153514
0.00067226
-0.0257344
0.0250621
-0.0288257
0.0286646
0.000161137
-0.0022122
0.00429413
-0.231989
0.229907
-0.00719248
0.00966593
-0.406721
0.404248
-0.0113276
0.011579
-0.553173
0.552922
-0.0106897
0.00926543
-0.666945
0.668369
-0.00732394
0.00536461
-0.785401
0.78736
-0.00305653
0.000822377
-0.929349
0.931583
0.00175508
-0.00421244
-1.10385
1.1063
0.00700791
-0.00963127
-1.31453
1.31715
0.0125497
-0.015213
-1.56943
1.57209
0.0176198
-0.0197731
-1.5667
1.56885
0.0213786
-0.0228102
-1.30833
1.30976
0.0238721
-0.0248053
-1.09657
1.0975
0.0255146
-0.0262525
-0.922753
0.923491
0.0269241
-0.0275962
-0.78101
0.781682
0.027704
-0.0270564
-0.657913
0.657265
0.0249874
-0.0208658
-0.516386
0.512265
0.0158775
-0.0102186
-0.329428
0.323769
0.00587531
-0.00245943
-0.150062
0.146646
0.00065905
-0.0244097
0.0237506
-0.02856
0.028501
5.89258e-05
-0.00136288
0.00287537
-0.22813
0.226617
-0.0051164
0.00712453
-0.402036
0.400028
-0.00853007
0.00871304
-0.552791
0.552608
-0.00779655
0.00634971
-0.669921
0.671368
-0.00432412
0.00226742
-0.78932
0.791377
0.00015444
-0.0024944
-0.933719
0.936059
0.00517601
-0.00771396
-1.10867
1.11121
0.0105714
-0.0132189
-1.31969
1.32234
0.0161162
-0.0187039
-1.57465
1.57724
0.0209815
-0.0229546
-1.57088
1.57285
0.024375
-0.025591
-1.31108
1.3123
0.0264491
-0.0271476
-1.09846
1.09916
0.0276432
-0.0281667
-0.924196
0.924719
0.0286739
-0.0291462
-0.782185
0.782658
0.028971
-0.0279081
-0.656368
0.655305
0.0253825
-0.0208628
-0.508013
0.503493
0.0157291
-0.0100956
-0.318182
0.312549
0.00582
-0.00245326
-0.143292
0.139926
0.000663899
-0.0231039
0.02244
-0.0284989
0.0285491
-5.01555e-05
-0.000489125
0.00142634
-0.225411
0.224474
-0.00298252
0.00446092
-0.398316
0.396837
-0.00550801
0.00553878
-0.552607
0.552576
-0.00454035
0.00301873
-0.672989
0.674511
-0.000880009
-0.00131341
-0.793436
0.795629
0.00389825
-0.00637974
-0.9383
0.940782
0.00920774
-0.0118629
-1.11366
1.11632
0.0148213
-0.0175244
-1.3249
1.32761
0.0204279
-0.0229558
-1.57973
1.58225
0.0251104
-0.0268991
-1.57469
1.57648
0.0281242
-0.0291086
-1.31339
1.31438
0.029746
-0.0301974
-1.0999
1.10035
0.0304665
-0.0307602
-0.925215
0.925509
0.0310779
-0.0312832
-0.782844
0.78305
0.0308363
-0.0292662
-0.653978
0.652408
0.0262397
-0.0212794
-0.498858
0.493897
0.0159336
-0.0102194
-0.306947
0.301232
0.00591207
-0.00250926
-0.136583
0.13318
0.00068519
-0.0217818
0.0210966
-0.0286547
0.02882
-0.000165328
0.00043111
-0.000100384
-0.223856
0.223525
-0.000722263
0.00158903
-0.395686
0.39482
-0.00217233
0.00196538
-0.552797
0.553004
-0.000825217
-0.000838434
-0.676262
0.677926
0.00314815
-0.00552505
-0.79783
0.800207
0.00831997
-0.0109892
-0.943169
0.945838
0.0140119
-0.0168258
-1.11889
1.1217
0.0199261
-0.0227161
-1.33024
1.33303
0.0256503
-0.0281289
-1.58468
1.58716
0.030158
-0.0317491
-1.57812
1.57971
0.0327649
-0.0334935
-1.31522
1.31595
0.0338905
-0.0340781
-1.10083
1.10102
0.0341046
-0.0341464
-0.92577
0.925812
0.0342617
-0.0341364
-0.782877
0.782751
0.0333471
-0.0311828
-0.650616
0.648452
0.0276027
-0.0221337
-0.488822
0.483353
0.0164886
-0.0105779
-0.295503
0.289592
0.00614118
-0.00262216
-0.129765
0.126246
0.000721343
-0.0204111
0.0196898
-0.029065
0.029371
-0.000306039
0.00142736
-0.00174296
-0.22355
0.223866
0.0017602
-0.00160982
-0.394274
0.394124
0.00162075
-0.00217207
-0.553575
0.554126
0.00353568
-0.00538985
-0.679878
0.681732
0.00792435
-0.0105325
-0.802584
0.805192
0.0135922
-0.0165011
-0.948414
0.951323
0.0197749
-0.022796
-1.12444
1.12747
0.0260845
-0.0289945
-1.33575
1.33866
0.031983
-0.0344197
-1.58953
1.59197
0.0363154
-0.0376847
-1.58113
1.5825
0.0384668
-0.0389076
-1.3165
1.31694
0.0390395
-0.0389381
-1.1012
1.1011
0.0386965
-0.0384622
-0.925795
0.925561
0.0383668
-0.0377987
-0.782155
0.781587
0.0365666
-0.0337367
-0.646123
0.643293
0.0295198
-0.023445
-0.477758
0.471683
0.0173947
-0.0111639
-0.283618
0.277387
0.00649999
-0.00278773
-0.122681
0.118969
0.00077087
-0.0189633
0.0181924
-0.0297492
0.0302306
-0.000481446
0.0027048
-0.00376404
-0.224567
0.225626
0.00464612
-0.00528839
-0.394309
0.394951
0.0060203
-0.00702549
-0.555172
0.556177
0.00869588
-0.0108107
-0.683935
0.68605
0.0136473
-0.0165545
-0.807803
0.81071
0.0199508
-0.023162
-0.954146
0.957358
0.0267499
-0.0300284
-1.13042
1.1337
0.0335492
-0.0366072
-1.3415
1.34455
0.0396637
-0.0420528
-1.59429
1.59668
0.043791
-0.0449043
-1.58367
1.58478
0.0453963
-0.045527
-1.31717
1.3173
0.0453631
-0.0449374
-1.10093
1.1005
0.0443982
-0.04386
-0.925219
0.924681
0.0434521
-0.0424342
-0.780529
0.779511
0.0406449
-0.0370328
-0.640332
0.63672
0.0320653
-0.0252524
-0.465459
0.458646
0.0186671
-0.0119788
-0.27104
0.264351
0.00698571
-0.00300343
-0.115178
0.111196
0.00083273
-0.017412
0.0165793
-0.0307841
0.0314828
-0.000698678
0.00418721
-0.00613099
-0.227108
0.229052
0.00807853
-0.00961818
-0.396001
0.39754
0.0111705
-0.0127548
-0.557844
0.559429
0.0148761
-0.0173478
-0.688593
0.691065
0.0205913
-0.0238794
-0.813625
0.816913
0.0276964
-0.0312812
-0.960492
0.964077
0.035253
-0.038842
-1.13692
1.14051
0.0426368
-0.0458611
-1.34754
1.35076
0.0489805
-0.0512933
-1.59893
1.60124
0.0528292
-0.0536327
-1.58568
1.58648
0.0537806
-0.0535573
-1.31716
1.31694
0.0530571
-0.0522626
-1.09994
1.09914
0.0513889
-0.0505015
-0.923969
0.923081
0.049696
-0.0481781
-0.777984
0.776466
0.0456931
-0.0411542
-0.633005
0.628466
0.03529
-0.0275736
-0.451651
0.443935
0.0203036
-0.013011
-0.257491
0.250199
0.00758648
-0.00326171
-0.107105
0.10278
0.000904065
-0.015734
0.01483
-0.0322494
0.033235
-0.000985674
0.00606403
-0.00905981
-0.231429
0.234424
0.0122572
-0.0148536
-0.399612
0.402209
0.0173735
-0.019664
-0.561871
0.564161
0.0223752
-0.025328
-0.694053
0.697005
0.0291014
-0.0328705
-0.820221
0.82399
0.0372098
-0.0412509
-0.967597
0.971638
0.0456821
-0.0496307
-1.14404
1.14799
0.0537278
-0.057118
-1.35389
1.35728
0.0602709
-0.0624544
-1.60338
1.60556
0.0637192
-0.0641295
-1.58702
1.58743
0.0638778
-0.0632142
-1.31633
1.31567
0.062325
-0.0611067
-1.09812
1.0969
0.0598541
-0.0586136
-0.921946
0.920706
0.05728
-0.0551584
-0.774416
0.772295
0.0518417
-0.0461861
-0.623834
0.618178
0.0392378
-0.0304151
-0.435999
0.427177
0.0222898
-0.0142377
-0.24268
0.234628
0.00828191
-0.00355049
-0.0983216
0.0935902
0.00098053
-0.0139127
0.0129321
-0.0342748
0.0356542
-0.00137945
0.0085087
-0.0128606
-0.237845
0.242197
0.0175427
-0.0213694
-0.405518
0.409345
0.0250196
-0.028165
-0.567582
0.570727
0.0316423
-0.0352311
-0.700581
0.70417
0.0396953
-0.044074
-0.827787
0.832165
0.0490513
-0.0536326
-0.975627
0.980209
0.0585875
-0.062924
-1.15187
1.15621
0.0673168
-0.0708325
-1.36055
1.36407
0.0739369
-0.0758862
-1.60751
1.60946
0.0767642
-0.0766654
-1.58751
1.58741
0.0759321
-0.0747039
-1.31449
1.31327
0.0733668
-0.0716769
-1.09535
1.09366
0.0700146
-0.0683426
-0.919105
0.917433
0.0664141
-0.0635595
-0.769608
0.766754
0.0592146
-0.0521931
-0.612427
0.605406
0.0439248
-0.0337529
-0.418098
0.407926
0.0245826
-0.0156139
-0.226301
0.217332
0.00903676
-0.00385075
-0.0887086
0.0835226
0.00105581
-0.0119407
0.0108849
-0.0370548
0.0389955
-0.00194073
0.0119303
-0.0179873
-0.246895
0.252952
0.024465
-0.0297358
-0.414207
0.419478
0.0347262
-0.0389176
-0.575367
0.579559
0.0433761
-0.0478051
-0.70851
0.712939
0.053161
-0.0582908
-0.836574
0.841704
0.0640183
-0.0692021
-0.984744
0.989928
0.0747001
-0.0793952
-1.16045
1.16515
0.0840016
-0.0875268
-1.36738
1.37091
0.090418
-0.0919568
-1.61107
1.61261
0.0922713
-0.0914944
-1.58689
1.58611
0.090139
-0.0882422
-1.31145
1.30956
0.0863582
-0.0841619
-1.09149
1.08929
0.0820686
-0.0797922
-0.915259
0.912983
0.0773063
-0.073479
-0.763205
0.759377
0.0678631
-0.059174
-0.598272
0.589583
0.0493024
-0.0375022
-0.397471
0.385671
0.0270867
-0.0170556
-0.208058
0.198027
0.00979078
-0.00413207
-0.0781872
0.0725285
0.00112019
-0.00982526
0.00870507
-0.0409125
0.0437262
-0.00281366
0.0168819
-0.0251915
-0.259289
0.267599
0.0338973
-0.0409053
-0.426349
0.433357
0.0475301
-0.053
-0.585711
0.591181
0.0587072
-0.0642238
-0.718262
0.723779
0.070692
-0.0766966
-0.846847
0.852852
0.083231
-0.0889995
-0.995044
1.00081
0.0949517
-0.0998659
-1.16967
1.17458
0.104477
-0.107782
-1.37411
1.37742
0.110177
-0.111033
-1.61367
1.61453
0.110532
-0.10885
-1.5848
1.58311
0.106701
-0.104006
-1.30701
1.30431
0.101462
-0.0986757
-1.08641
1.08362
0.0961124
-0.0931572
-0.910022
0.907067
0.0900244
-0.0849684
-0.754716
0.74966
0.0777603
-0.0670267
-0.580726
0.569993
0.0552239
-0.041494
-0.37359
0.35986
0.0296376
-0.0184303
-0.1877
0.176493
0.0104543
-0.00435177
-0.0667492
0.0606467
0.00116085
-0.00759327
0.00643242
-0.0464203
0.0507045
-0.00428416
0.0245555
-0.0359279
-0.276195
0.287567
0.0475197
-0.0568388
-0.442966
0.452285
0.0654721
-0.0724295
-0.599217
0.606174
0.0796701
-0.0866599
-0.730227
0.737217
0.0942862
-0.101084
-0.858805
0.865603
0.108258
-0.11439
-1.00641
1.01254
0.120479
-0.125273
-1.17915
1.18394
0.129479
-0.132173
-1.38019
1.38288
0.133641
-0.133433
-1.6147
1.61449
0.131785
-0.128925
-1.58075
1.57789
0.125795
-0.12214
-1.30087
1.29721
0.118843
-0.115381
-1.07996
1.07649
0.112285
-0.108576
-0.903202
0.899494
0.104544
-0.0978717
-0.743583
0.736911
0.088686
-0.0754714
-0.558982
0.545767
0.0613898
-0.0454453
-0.3459
0.329955
0.0319878
-0.0195536
-0.165087
0.152653
0.0109069
-0.00445443
-0.0545017
0.0480492
0.00116086
-0.0052979
0.00413704
-0.0546394
0.0619903
-0.00735094
0.0380006
-0.0538429
-0.299753
0.315595
0.0694884
-0.0820071
-0.465716
0.478235
0.0928169
-0.101138
-0.616322
0.624643
0.109894
-0.118132
-0.74477
0.753008
0.126638
-0.13381
-0.872157
0.879328
0.141041
-0.146938
-1.01823
1.02413
0.152491
-0.156533
-1.18807
1.19211
0.159668
-0.161138
-1.38473
1.3862
0.161085
-0.159329
-1.61332
1.61156
0.156155
-0.15182
-1.57418
1.56984
0.147481
-0.142678
-1.29271
1.28791
0.138511
-0.13432
-1.07193
1.06774
0.130567
-0.126021
-0.894615
0.890069
0.120682
-0.111895
-0.728927
0.72014
0.100187
-0.0839398
-0.532011
0.515764
0.0672573
-0.0489502
-0.313892
0.295585
0.0338551
-0.020271
-0.14029
0.126706
0.0110645
-0.00440595
-0.0417248
0.0350663
0.00110437
-0.00302491
0.00192054
-0.0688431
0.0729224
-0.00407931
0.0290657
-0.0428347
-0.333943
0.347712
0.0567278
-0.068234
-0.49603
0.507536
0.0784752
-0.0880038
-0.636608
0.646136
0.0985739
-0.108229
-0.760776
0.770431
0.118908
-0.128365
-0.885599
0.895056
0.138382
-0.147225
-1.02907
1.03792
0.15636
-0.164063
-1.19504
1.20275
0.171521
-0.177224
-1.38648
1.39218
0.181905
-0.184405
-1.60855
1.61105
0.184685
-0.1833
-1.56443
1.56305
0.180867
-0.177488
-1.28216
1.27878
0.174443
-0.170876
-1.06211
1.05854
0.167737
-0.163206
-0.883718
0.879187
0.15596
-0.14314
-0.709574
0.696753
0.125801
-0.102684
-0.498702
0.475585
0.0800766
-0.0562336
-0.277187
0.253344
0.0376281
-0.0217456
-0.113743
0.0978607
0.0114782
-0.00442741
-0.0289363
0.0218855
0.00108791
-0.000885947
-0.000201964
-0.0802012
0.0782316
0.00196961
0.00742276
-0.0165046
-0.364226
0.373308
0.0270714
-0.035219
-0.523702
0.531849
0.0433978
-0.0513902
-0.658157
0.666149
0.0611156
-0.0701362
-0.779695
0.788715
0.0797001
-0.0883887
-0.903942
0.912631
0.0975555
-0.105302
-1.04646
1.0542
0.113473
-0.119976
-1.21022
1.21673
0.126179
-0.130579
-1.39751
1.40191
0.133525
-0.134445
-1.61263
1.61355
0.133134
-0.130122
-1.5608
1.55779
0.126067
-0.120974
-1.2747
1.26961
0.116271
-0.111086
-1.05305
1.04787
0.106234
-0.100196
-0.869803
0.863765
0.0926246
-0.0814019
-0.680046
0.668824
0.0683557
-0.0527218
-0.45099
0.435356
0.0388991
-0.0259299
-0.229809
0.216839
0.0167257
-0.0094122
-0.0829121
0.0755986
0.00491127
-0.00189911
-0.0152309
0.0122187
0.000412206
0.00130469
-0.0017169
-0.0816171
0.0787016
0.00291542
-0.00169815
-0.00354867
-0.384697
0.389944
0.0107296
-0.0166224
-0.544122
0.550015
0.0226717
-0.029666
-0.676312
0.683306
0.0380802
-0.0459105
-0.796836
0.804667
0.0544301
-0.0620066
-0.920567
0.928143
0.0697443
-0.0766296
-1.06176
1.06865
0.0836591
-0.0893109
-1.22276
1.22841
0.0942038
-0.0973822
-1.40558
1.40875
0.0992842
-0.0990165
-1.61366
1.61339
0.0965343
-0.0923545
-1.55404
1.54986
0.0873663
-0.0814674
-1.26415
1.25826
0.0756009
-0.0692931
-1.04119
1.03488
0.0633704
-0.0565221
-0.854178
0.847329
0.0496583
-0.0404351
-0.654213
0.64499
0.0310835
-0.0212347
-0.417948
0.408099
0.0140478
-0.00851613
-0.203218
0.197686
0.00524214
-0.00303254
-0.0681672
0.0659576
0.00171089
-0.000745325
-0.00914607
0.0081805
0.00013152
0.00231506
-0.00244658
-0.0803623
0.0776086
0.00275372
-0.00530316
0.00278526
-0.398355
0.400873
0.00183385
-0.00629798
-0.559194
0.563658
0.0114268
-0.0172971
-0.691288
0.697158
0.0244868
-0.0311876
-0.811846
0.818547
0.0384603
-0.0449508
-0.935182
0.941673
0.0519507
-0.0577635
-1.07509
1.0809
0.063864
-0.0682871
-1.23362
1.23804
0.0723495
-0.0748037
-1.41166
1.41411
0.0757697
-0.0744784
-1.6126
1.61131
0.0714188
-0.0667023
-1.54504
1.54033
0.061244
-0.054482
-1.25197
1.2452
0.0481337
-0.04121
-1.02746
1.02053
0.034582
-0.0275871
-0.837688
0.830693
0.0210321
-0.0138199
-0.632698
0.625485
0.00755083
-0.00253189
-0.397065
0.392046
4.61157e-05
0.00102513
-0.190548
0.189477
-0.00113662
0.000695744
-0.0627
0.0631409
-0.000340254
0.000108886
-0.00686407
0.00709544
-7.36681e-05
0.00286273
-0.00278906
-0.0788626
0.0764303
0.00243236
-0.00640902
0.00549236
-0.407454
0.408371
-0.00211884
-0.00108246
-0.5713
0.574501
0.00527409
-0.0106212
-0.703843
0.70919
0.016669
-0.0225499
-0.82454
0.830421
0.0288453
-0.0344751
-0.947703
0.953333
0.0404618
-0.045613
-1.08656
1.09171
0.0507354
-0.0547444
-1.2423
1.24631
0.0581148
-0.0599924
-1.41616
1.41804
0.0603872
-0.0586246
-1.60978
1.60802
0.0551704
-0.0499099
-1.53486
1.5296
0.0441928
-0.0373294
-1.2383
1.23144
0.0307622
-0.023416
-1.01282
1.00547
0.0166864
-0.00955831
-0.821422
0.814293
0.00363496
0.00206157
-0.615524
0.609828
-0.00612678
0.00827744
-0.384668
0.382518
-0.0082787
0.00700631
-0.186162
0.187434
-0.00535587
0.00344315
-0.062749
0.0646618
-0.00195358
0.000776791
-0.00711629
0.00829308
-0.000241203
0.00296221
-0.00272101
-0.0774771
0.0753957
0.00208139
-0.00628435
0.00586984
-0.41369
0.414105
-0.0038665
0.00130256
-0.580607
0.583171
0.00276813
-0.00734663
-0.714489
0.719068
0.0125488
-0.0176551
-0.835505
0.840611
0.0232542
-0.0282829
-0.958605
0.963634
0.0337506
-0.0382461
-1.09658
1.10107
0.0428259
-0.0463909
-1.25001
1.25358
0.0492776
-0.0507729
-1.41962
1.42112
0.0507975
-0.049143
-1.60612
1.60447
0.0454947
-0.0403081
-1.52388
1.5187
0.0345652
-0.0276929
-1.22437
1.2175
0.0213433
-0.01385
-0.997687
0.990193
0.00704885
-0.000109404
-0.805643
0.798703
-0.00518737
0.00980523
-0.601473
0.596855
-0.0127636
0.0138137
-0.377455
0.376405
-0.012555
0.0102097
-0.186471
0.188816
-0.00785734
0.00517127
-0.0658239
0.06851
-0.00300704
0.00122945
-0.0092647
0.0110423
-0.000370602
0.00261923
-0.00224863
-0.076426
0.0748038
0.0016222
-0.00541079
0.0053278
-0.418326
0.418409
-0.00371901
0.0017918
-0.588708
0.590636
0.0020112
-0.00615426
-0.723697
0.727841
0.0110895
-0.0154847
-0.845309
0.849704
0.0204015
-0.0248565
-0.968621
0.973076
0.0300408
-0.0341182
-1.1056
1.10967
0.0381709
-0.0415246
-1.25695
1.2603
0.0445348
-0.0458463
-1.42261
1.42392
0.0458852
-0.0441438
-1.60241
1.60066
0.0408774
-0.0356099
-1.51333
1.50806
0.0302266
-0.0237499
-1.2105
1.20403
0.0175003
-0.0104869
-0.982637
0.975623
0.00393135
0.00278114
-0.790539
0.783826
-0.00775192
0.0118781
-0.589298
0.585172
-0.0143931
0.0150517
-0.372528
0.371869
-0.0138591
0.0114241
-0.188871
0.191306
-0.00889035
0.00597027
-0.0704408
0.0733609
-0.00356783
0.00154051
-0.0124783
0.0145057
-0.000442095
0.00199165
-0.00154956
-0.0758778
0.0746058
0.00127202
-0.00434518
0.0043887
-0.422009
0.421965
-0.00297355
0.00113715
-0.595758
0.597594
0.00252879
-0.00622565
-0.731963
0.73566
0.0104538
-0.0146905
-0.854031
0.858268
0.0192284
-0.0238161
-0.977327
0.981914
0.02827
-0.0321609
-1.11384
1.11773
0.0363357
-0.0394408
-1.26353
1.26663
0.0419686
-0.0436853
-1.42513
1.42685
0.0439002
-0.0424459
-1.59899
1.59753
0.0393507
-0.0346639
-1.50302
1.49834
0.0296146
-0.0235039
-1.19731
1.1912
0.0177056
-0.0111151
-0.968475
0.961884
0.005
0.0012104
-0.776397
0.770187
-0.00615193
0.010062
-0.578073
0.574163
-0.0122926
0.013308
-0.368645
0.367629
-0.0126426
0.0105684
-0.191356
0.19343
-0.00835267
0.00569985
-0.075249
0.0779018
-0.00347495
0.00154348
-0.0160234
0.0179549
-0.000444551
0.00121633
-0.000771778
-0.0758536
0.0747983
0.00105525
-0.00308333
0.00289798
-0.425315
0.4255
-0.00173938
-3.31472e-05
-0.602243
0.604016
0.00357258
-0.00715794
-0.739645
0.74323
0.0112107
-0.0150385
-0.862274
0.866102
0.0196873
-0.0234848
-0.985915
0.989712
0.0279049
-0.0316143
-1.12177
1.12548
0.0356729
-0.0389714
-1.26971
1.27301
0.041787
-0.0432944
-1.42832
1.42983
0.0438628
-0.0428223
-1.59602
1.59498
0.0403756
-0.0360158
-1.49357
1.48921
0.0314358
-0.0258016
-1.18527
1.17963
0.0205029
-0.0143925
-0.955137
0.949027
0.00886834
-0.00295432
-0.763286
0.757372
-0.00192789
0.00592855
-0.567672
0.563671
-0.00824724
0.00935912
-0.364395
0.363283
-0.00937196
0.00811417
-0.193102
0.19436
-0.00657469
0.00457688
-0.0793463
0.0813441
-0.00283689
0.00129158
-0.0192112
0.0207565
-0.00036602
0.000445934
-7.99138e-05
-0.0761117
0.0753845
0.000727158
-0.00194231
0.00132868
-0.428713
0.429326
-0.000357468
-0.00178348
-0.607837
0.609978
0.00487011
-0.00828341
-0.746819
0.750233
0.01216
-0.0161133
-0.869776
0.87373
0.0201438
-0.0241008
-0.993707
0.997664
0.0284841
-0.0319879
-1.12961
1.13311
0.03614
-0.0393994
-1.2761
1.27936
0.0422844
-0.0443343
-1.43175
1.4338
0.045411
-0.0446765
-1.59399
1.59325
0.0425044
-0.0389164
-1.48508
1.48149
0.0349659
-0.0298365
-1.17399
1.16887
0.0249416
-0.0195505
-0.942934
0.937543
0.0140984
-0.0086943
-0.750854
0.74545
0.00396511
0.000485861
-0.55785
0.553399
-0.0029882
0.00457963
-0.359517
0.357926
-0.00514003
0.00486362
-0.193592
0.193868
-0.00405842
0.00292347
-0.0820419
0.0831768
-0.00189544
0.000905286
-0.0215513
0.0225415
-0.000275402
-0.000173475
0.000448877
-0.0767926
0.0762306
0.000561951
-0.000977694
0.000470704
-0.432341
0.432848
0.00121223
-0.00318944
-0.613706
0.615683
0.00641174
-0.00969283
-0.753458
0.756739
0.0134193
-0.0169702
-0.877335
0.880886
0.0211232
-0.0247676
-1.00161
1.00526
0.0291037
-0.0330464
-1.13706
1.141
0.0368474
-0.0404452
-1.28266
1.28626
0.0437658
-0.0459273
-1.43575
1.43791
0.0474031
-0.0474802
-1.59275
1.59283
0.0458057
-0.0429342
-1.47784
1.47497
0.0393147
-0.0347921
-1.1639
1.15937
0.030445
-0.0253502
-0.931814
0.926719
0.0203924
-0.0151775
-0.739258
0.734043
0.0105438
-0.00590016
-0.547689
0.543045
0.00270306
-0.000462712
-0.353806
0.351566
-0.000843382
0.00142651
-0.192433
0.19185
-0.00146181
0.00118819
-0.0830397
0.0833133
-0.000841847
0.000448862
-0.0227912
0.0231842
-0.000155711
-0.000569293
0.000725004
-0.077749
0.0773777
0.000371247
2.42718e-05
-0.00083617
-0.436057
0.436869
0.00240186
-0.0046888
-0.619168
0.621455
0.00782775
-0.0109453
-0.759867
0.762984
0.014758
-0.0181597
-0.884401
0.887803
0.0221571
-0.0259264
-1.00937
1.01314
0.0301717
-0.0340858
-1.14479
1.1487
0.038118
-0.0417555
-1.28977
1.29341
0.0452803
-0.0482073
-1.44036
1.44328
0.0501525
-0.0505637
-1.59285
1.59327
0.0496381
-0.0471778
-1.47205
1.46959
0.0442024
-0.0403086
-1.15489
1.151
0.0361017
-0.0313208
-0.921392
0.916612
0.0266303
-0.0214402
-0.728193
0.723003
0.0168753
-0.0119096
-0.537473
0.532507