/*--------------------------------*- C++ -*----------------------------------*\
| =========                 |                                                 |
| \\      /  F ield         | OpenFOAM: The Open Source CFD Toolbox           |
|  \\    /   O peration     | Version:  2306                                  |
|   \\  /    A nd           | Website:  www.openfoam.com                      |
|    \\/     M anipulation  |                                                 |
\*---------------------------------------------------------------------------*/
FoamFile
{
    version     2.0;
    format      ascii;
    arch        "LSB;label=32;scalar=64";
    class       volVectorField;
    location    "56";
    object      U;
}
// * * * * * * * * * * * * * * * * * * * * * * * * * * * * * * * * * * * * * //

dimensions      [0 1 -1 0 0 0 0];

internalField   nonuniform List<vector> 
8800
(
(0.984956 -0.0884526 0)
(1.00213 -0.0568268 0)
(0.999647 -0.0305605 0)
(0.99999 -0.0158691 0)
(1.00007 -0.00872965 0)
(1.00008 -0.00509374 0)
(1.00005 -0.00300401 0)
(1.00002 -0.00169249 0)
(0.999998 -0.000788005 0)
(1.00006 -8.5998e-05 0)
(0.999987 0.000626321 0)
(0.999995 0.00138422 0)
(1.00002 0.00241137 0)
(1.00004 0.00400789 0)
(1.00004 0.00671591 0)
(1 0.0117402 0)
(0.999828 0.0220509 0)
(0.999164 0.0411666 0)
(1.00748 0.0768946 0)
(0.773653 0.0450712 0)
(0.361002 -0.0151715 0)
(1.04556 -0.074202 0)
(1.0871 -0.0678917 0)
(1.04774 -0.0523055 0)
(1.02457 -0.0384052 0)
(1.01239 -0.0261287 0)
(1.00649 -0.0167793 0)
(1.00362 -0.0102573 0)
(1.00219 -0.0056053 0)
(1.00152 -0.00199271 0)
(1.00139 0.00124062 0)
(1.00173 0.00456639 0)
(1.0027 0.00847525 0)
(1.00471 0.0138129 0)
(1.0088 0.0215358 0)
(1.01734 0.0323526 0)
(1.03444 0.0456906 0)
(1.06547 0.0597962 0)
(1.09408 0.0729215 0)
(0.842202 0.0557154 0)
(0.217078 -0.00164677 0)
(1.07585 -0.0503603 0)
(1.09982 -0.048724 0)
(1.06464 -0.0401785 0)
(1.03996 -0.0330198 0)
(1.02378 -0.0257223 0)
(1.014 -0.0183296 0)
(1.00852 -0.0115895 0)
(1.00566 -0.00577485 0)
(1.00448 -0.000447091 0)
(1.0048 0.00469751 0)
(1.00663 0.0100269 0)
(1.01055 0.016072 0)
(1.01786 0.0229764 0)
(1.0305 0.03023 0)
(1.05064 0.037228 0)
(1.08034 0.0445649 0)
(1.10617 0.0517779 0)
(0.942803 0.0413365 0)
(0.216454 0.00166806 0)
(0.1759 -0.000645641 0)
(1.01867 -0.0354173 0)
(1.10557 -0.0414312 0)
(1.07811 -0.036272 0)
(1.05285 -0.030251 0)
(1.03558 -0.0245266 0)
(1.02357 -0.01879 0)
(1.01564 -0.0127547 0)
(1.01099 -0.00660343 0)
(1.00893 -0.000320145 0)
(1.00946 0.00587809 0)
(1.01256 0.0118386 0)
(1.01859 0.0176495 0)
(1.02832 0.023213 0)
(1.04265 0.0286273 0)
(1.06336 0.0342832 0)
(1.09376 0.0402486 0)
(1.0941 0.0418766 0)
(0.828772 0.022788 0)
(0.174842 0.000668177 0)
(0.154349 -0.000487524 0)
(0.957293 -0.0255638 0)
(1.10408 -0.0351076 0)
(1.08793 -0.032671 0)
(1.06141 -0.0281264 0)
(1.04353 -0.023135 0)
(1.03112 -0.0178661 0)
(1.02242 -0.0123487 0)
(1.01679 -0.00642986 0)
(1.01409 5.02307e-05 0)
(1.01473 0.00653558 0)
(1.01856 0.012421 0)
(1.02543 0.017717 0)
(1.03565 0.022672 0)
(1.05032 0.0274729 0)
(1.072 0.0319497 0)
(1.10067 0.0358301 0)
(1.06908 0.0339736 0)
(0.741172 0.0143671 0)
(0.152756 0.000512638 0)
(0.139817 -0.000358807 0)
(0.900313 -0.0192215 0)
(1.09643 -0.0301671 0)
(1.09604 -0.0292938 0)
(1.06905 -0.0255506 0)
(1.05035 -0.0214583 0)
(1.03741 -0.0167332 0)
(1.02839 -0.011479 0)
(1.02239 -0.00575901 0)
(1.01936 0.000600078 0)
(1.01998 0.00697467 0)
(1.024 0.0126175 0)
(1.03106 0.0175818 0)
(1.04157 0.0220485 0)
(1.05686 0.0259987 0)
(1.07945 0.029484 0)
(1.10294 0.032159 0)
(1.03715 0.0281198 0)
(0.674516 0.0102521 0)
(0.13757 0.000388274 0)
(0.12916 -0.000274396 0)
(0.850535 -0.0148512 0)
(1.08403 -0.0260693 0)
(1.10171 -0.0264062 0)
(1.07588 -0.0231101 0)
(1.05667 -0.0194745 0)
(1.04328 -0.0152705 0)
(1.0339 -0.0103907 0)
(1.02764 -0.00488467 0)
(1.0244 0.00128207 0)
(1.0249 0.00742945 0)
(1.02891 0.0127918 0)
(1.0361 0.017349 0)
(1.04691 0.0212113 0)
(1.06257 0.024532 0)
(1.0856 0.027532 0)
(1.1021 0.0293279 0)
(1.00236 0.0235952 0)
(0.622591 0.0078718 0)
(0.126117 0.000309898 0)
(0.121027 -0.000211831 0)
(0.80815 -0.0116843 0)
(1.0687 -0.0224793 0)
(1.10521 -0.023791 0)
(1.08211 -0.020934 0)
(1.06247 -0.0175193 0)
(1.04881 -0.0136095 0)
(1.03915 -0.00906359 0)
(1.03263 -0.00383349 0)
(1.02916 0.00210085 0)
(1.02949 0.0079812 0)
(1.03345 0.0129923 0)
(1.04071 0.0170882 0)
(1.05162 0.0204644 0)
(1.06752 0.0233882 0)
(1.09091 0.0260837 0)
(1.0984 0.0269801 0)
(0.967203 0.0200367 0)
(0.580893 0.00632125 0)
(0.117016 0.000254817 0)
(0.114716 -0.000163802 0)
(0.772415 -0.00931472 0)
(1.05182 -0.0193205 0)
(1.10755 -0.0213743 0)
(1.08797 -0.0188989 0)
(1.06791 -0.0156412 0)
(1.054 -0.0118995 0)
(1.04416 -0.00756348 0)
(1.03741 -0.0025807 0)
(1.03368 0.00308951 0)
(1.0338 0.00865892 0)
(1.03764 0.0132893 0)
(1.04483 0.0169782 0)
(1.05576 0.0199767 0)
(1.07188 0.0225747 0)
(1.09495 0.0249292 0)
(1.0919 0.0250259 0)
(0.933 0.0172823 0)
(0.546423 0.00525818 0)
(0.10953 0.00021591 0)
(0.109785 -0.000125662 0)
(0.742397 -0.00747795 0)
(1.03448 -0.0165213 0)
(1.10892 -0.0191021 0)
(1.09352 -0.0169426 0)
(1.07317 -0.0137866 0)
(1.05899 -0.0101455 0)
(1.04896 -0.00593855 0)
(1.04199 -0.00113378 0)
(1.03798 0.00428028 0)
(1.03783 0.00952218 0)
(1.04145 0.0137892 0)
(1.04851 0.017119 0)
(1.05943 0.019775 0)
(1.07576 0.0220823 0)
(1.09773 0.0240688 0)
(1.08297 0.0234109 0)
(0.900342 0.0151799 0)
(0.517132 0.0045138 0)
(0.103171 0.000188737 0)
(0.105946 -9.41525e-05 0)
(0.717276 -0.00599904 0)
(1.0175 -0.01401 0)
(1.10944 -0.0169077 0)
(1.09895 -0.0150355 0)
(1.07834 -0.0119013 0)
(1.06385 -0.00830124 0)
(1.0536 -0.00416719 0)
(1.04639 0.000516104 0)
(1.04208 0.00571016 0)
(1.04158 0.0106429 0)
(1.04491 0.0145665 0)
(1.05179 0.0175513 0)
(1.06268 0.0198736 0)
(1.0792 0.0219191 0)
(1.09916 0.0235156 0)
(1.07201 0.0221296 0)
(0.86936 0.0136146 0)
(0.491568 0.00399745 0)
(0.0975971 0.000170764 0)
(0.103009 -6.6957e-05 0)
(0.696408 -0.00476088 0)
(1.00148 -0.01172 0)
(1.10927 -0.0147543 0)
(1.10422 -0.0130898 0)
(1.08349 -0.00993162 0)
(1.06868 -0.00631723 0)
(1.05818 -0.00219802 0)
(1.05067 0.00241072 0)
(1.04598 0.00743159 0)
(1.04505 0.012085 0)
(1.04802 0.0156792 0)
(1.05469 0.0183271 0)
(1.06553 0.0203165 0)
(1.0822 0.0221028 0)
(1.09963 0.0232965 0)
(1.05932 0.0211877 0)
(0.839912 0.0124954 0)
(0.468648 0.00365281 0)
(0.0925489 0.000160069 0)
(0.100851 -4.19917e-05 0)
(0.67932 -0.00367538 0)
(0.98689 -0.00958025 0)
(1.1086 -0.0125563 0)
(1.10929 -0.011022 0)
(1.0887 -0.00781943 0)
(1.07355 -0.00413461 0)
(1.06273 3.02217e-05 0)
(1.05486 0.00461518 0)
(1.0497 0.00951212 0)
(1.04826 0.0139133 0)
(1.0508 0.0171831 0)
(1.05721 0.0194917 0)
(1.06799 0.0211417 0)
(1.08472 0.0226574 0)
(1.0991 0.0234471 0)
(1.04507 0.0205989 0)
(0.811688 0.0117493 0)
(0.447528 0.00344133 0)
(0.0878259 0.000155101 0)
(0.0994108 -1.74276e-05 0)
(0.665709 -0.0026732 0)
(0.974082 -0.00751658 0)
(1.10774 -0.0102537 0)
(1.11428 -0.00876811 0)
(1.09405 -0.00548413 0)
(1.07851 -0.0016697 0)
(1.06732 0.00259668 0)
(1.05901 0.00721588 0)
(1.05327 0.0120336 0)
(1.05122 0.0162012 0)
(1.05325 0.0191473 0)
(1.05934 0.0211051 0)
(1.07002 0.0223915 0)
(1.08678 0.0236403 0)
(1.09736 0.023984 0)
(1.02935 0.020347 0)
(0.784297 0.0113218 0)
(0.42753 0.00333746 0)
(0.0832687 0.000154759 0)
(0.0986705 8.76993e-06 0)
(0.655419 -0.00170013 0)
(0.96337 -0.00545686 0)
(1.10703 -0.00778312 0)
(1.11932 -0.00625675 0)
(1.09962 -0.0028453 0)
(1.08366 0.00116152 0)
(1.07203 0.00559455 0)
(1.06316 0.0103117 0)
(1.05673 0.0150918 0)
(1.05392 0.019038 0)
(1.05534 0.0216514 0)
(1.06105 0.0232417 0)
(1.07162 0.0241404 0)
(1.08831 0.0250922 0)
(1.09437 0.0249411 0)
(1.01215 0.0204601 0)
(0.7573 0.0111807 0)
(0.408093 0.00332614 0)
(0.0787458 0.000158508 0)
(0.0986511 3.31792e-05 0)
(0.648423 -0.00070857 0)
(0.955055 -0.00332691 0)
(1.1068 -0.00506954 0)
(1.12457 -0.00339977 0)
(1.10549 0.000196168 0)
(1.08908 0.00446486 0)
(1.07691 0.00913708 0)
(1.06738 0.0140179 0)
(1.06009 0.0188027 0)
(1.05637 0.022537 0)
(1.05707 0.0248018 0)
(1.06232 0.0259935 0)
(1.07274 0.0264844 0)
(1.0891 0.0270698 0)
(1.08988 0.0263562 0)
(0.993355 0.0209614 0)
(0.730209 0.0113095 0)
(0.388706 0.0033994 0)
(0.0741375 0.000165947 0)
(0.0993872 7.09577e-05 0)
(0.6448 0.000309595 0)
(0.949457 -0.00105162 0)
(1.1074 -0.00202837 0)
(1.13024 -9.73628e-05 0)
(1.11179 0.00376113 0)
(1.09486 0.00837644 0)
(1.08205 0.0133671 0)
(1.0717 0.0184782 0)
(1.06338 0.0233076 0)
(1.05858 0.0268279 0)
(1.05839 0.0287146 0)
(1.0631 0.029476 0)
(1.07333 0.0295304 0)
(1.089 0.0296942 0)
(1.08379 0.02827 0)
(0.972748 0.0218805 0)
(0.702487 0.0116976 0)
(0.368892 0.00355034 0)
(0.0693357 0.000176655 0)
(0.101083 0.000104466 0)
(0.644927 0.00147161 0)
(0.946912 0.00145123 0)
(1.10926 0.00144105 0)
(1.13652 0.00374503 0)
(1.11864 0.007992 0)
(1.10112 0.0130489 0)
(1.08753 0.0184482 0)
(1.07618 0.0238642 0)
(1.06659 0.028777 0)
(1.06048 0.0320812 0)
(1.05925 0.0335344 0)
(1.0633 0.0338199 0)
(1.07331 0.033397 0)
(1.08782 0.0330709 0)
(1.07578 0.0307738 0)
(0.95001 0.0232427 0)
(0.673568 0.0123415 0)
(0.348205 0.00377397 0)
(0.0642442 0.000190103 0)
(0.103804 0.000153633 0)
(0.649171 0.0028936 0)
(0.947925 0.0043246 0)
(1.11287 0.00545062 0)
(1.14362 0.00830258 0)
(1.12618 0.0130795 0)
(1.10798 0.0186893 0)
(1.09344 0.0246003 0)
(1.08085 0.0303936 0)
(1.06972 0.0354131 0)
(1.06204 0.0384612 0)
(1.05961 0.0394069 0)
(1.06288 0.0391659 0)
(1.0726 0.0382028 0)
(1.08534 0.0373187 0)
(1.06556 0.0339633 0)
(0.924699 0.025104 0)
(0.642836 0.0132452 0)
(0.326204 0.00406754 0)
(0.0587739 0.000205923 0)
(0.107824 0.000218596 0)
(0.6581 0.00456783 0)
(0.952961 0.00772896 0)
(1.11873 0.0101855 0)
(1.15184 0.0137832 0)
(1.13464 0.0192601 0)
(1.1156 0.0255584 0)
(1.09988 0.0320965 0)
(1.08576 0.0383368 0)
(1.07276 0.0434563 0)
(1.06322 0.0461633 0)
(1.05939 0.046522 0)
(1.06172 0.0456807 0)
(1.07111 0.0440943 0)
(1.08157 0.0425985 0)
(1.0527 0.0379438 0)
(0.896252 0.0274883 0)
(0.609617 0.0144004 0)
(0.30246 0.00442174 0)
(0.0528493 0.000223061 0)
(0.113476 0.000306801 0)
(0.672435 0.00665574 0)
(0.962683 0.0118612 0)
(1.12742 0.015885 0)
(1.1615 0.0204431 0)
(1.14424 0.0268411 0)
(1.12415 0.033991 0)
(1.10695 0.0412788 0)
(1.09093 0.0480141 0)
(1.07567 0.0531904 0)
(1.06393 0.0554394 0)
(1.05845 0.0550803 0)
(1.05973 0.0535406 0)
(1.06871 0.0512592 0)
(1.07633 0.04902 0)
(1.03669 0.042798 0)
(0.863982 0.0304183 0)
(0.57321 0.0157884 0)
(0.276584 0.00482175 0)
(0.0464202 0.000240019 0)
(0.121272 0.00043261 0)
(0.693104 0.00938746 0)
(0.977962 0.0170311 0)
(1.13958 0.0228931 0)
(1.17308 0.0286795 0)
(1.1553 0.0362846 0)
(1.13382 0.0444711 0)
(1.1147 0.0526163 0)
(1.09629 0.059841 0)
(1.0783 0.0649464 0)
(1.06401 0.0665436 0)
(1.05663 0.0652843 0)
(1.05677 0.0629197 0)
(1.0653 0.0598529 0)
(1.06928 0.0567161 0)
(1.01686 0.0486108 0)
(0.827075 0.0338936 0)
(0.532896 0.0173676 0)
(0.24826 0.0052433 0)
(0.0394733 0.000254842 0)
(0.131933 0.000613232 0)
(0.721421 0.0131455 0)
(0.999952 0.0237101 0)
(1.156 0.0317613 0)
(1.18719 0.0391044 0)
(1.16814 0.0482761 0)
(1.14476 0.0576783 0)
(1.12313 0.0667222 0)
(1.10174 0.074311 0)
(1.08048 0.0790792 0)
(1.0633 0.0797264 0)
(1.05382 0.077331 0)
(1.05272 0.0739702 0)
(1.06062 0.0699675 0)
(1.05989 0.0657319 0)
(0.992346 0.055421 0)
(0.784625 0.0378545 0)
(0.488018 0.0190548 0)
(0.217316 0.00564647 0)
(0.0320516 0.000264647 0)
(0.146731 0.000904775 0)
(0.759391 0.0185323 0)
(1.03029 0.0326718 0)
(1.17764 0.0434136 0)
(1.20457 0.0527546 0)
(1.1831 0.0638336 0)
(1.15701 0.0745542 0)
(1.13208 0.0843712 0)
(1.10701 0.0919931 0)
(1.08195 0.0959636 0)
(1.06153 0.0952181 0)
(1.04983 0.0913906 0)
(1.04743 0.0868323 0)
(1.05428 0.0818026 0)
(1.04746 0.0762642 0)
(0.962098 0.0631531 0)
(0.735697 0.042166 0)
(0.438112 0.0207137 0)
(0.183836 0.00597389 0)
(0.024278 0.000265987 0)
(0.167829 0.00140468 0)
(0.810234 0.0267054 0)
(1.07152 0.0454614 0)
(1.20558 0.0596817 0)
(1.22588 0.0717724 0)
(1.20026 0.0845662 0)
(1.17033 0.0964131 0)
(1.14113 0.106497 0)
(1.11164 0.113481 0)
(1.08227 0.115954 0)
(1.05839 0.113228 0)
(1.04441 0.107588 0)
(1.04073 0.101628 0)
(1.04619 0.0955862 0)
(1.03122 0.0881535 0)
(0.9248 0.0715983 0)
(0.679502 0.0465735 0)
(0.38319 0.022149 0)
(0.148358 0.00615052 0)
(0.0163929 0.000254168 0)
(0.198583 0.00251271 0)
(0.879631 0.0403233 0)
(1.12729 0.0659001 0)
(1.24028 0.0841572 0)
(1.25082 0.0988727 0)
(1.21899 0.112829 0)
(1.18388 0.124862 0)
(1.14943 0.134097 0)
(1.11488 0.139335 0)
(1.08089 0.139295 0)
(1.05351 0.133835 0)
(1.03733 0.125943 0)
(1.03245 0.118353 0)
(1.03605 0.111182 0)
(1.00996 0.101308 0)
(0.878895 0.0803237 0)
(0.615768 0.0506543 0)
(0.324425 0.0231722 0)
(0.112359 0.00612845 0)
(0.00887507 0.000222739 0)
(0.240539 0.00870124 9.91913e-20)
(0.971618 0.0673973 8.84152e-20)
(1.19534 0.100262 -3.08828e-20)
(1.2786 0.120529 0)
(1.27663 0.13763 -7.81446e-34)
(1.23719 0.150928 1.14026e-20)
(1.19614 0.161389 -2.03594e-20)
(1.15595 0.168374 0)
(1.11599 0.170801 4.13779e-34)
(1.07708 0.167461 -2.47646e-20)
(1.04591 0.158789 0)
(1.02731 0.148423 -2.91729e-20)
(1.02121 0.139233 -8.58594e-20)
(1.02252 0.131387 -4.04719e-20)
(0.980514 0.11851 -1.2131e-20)
(0.819176 0.0912773 -7.19848e-21)
(0.538968 0.0551345 0)
(0.2599 0.0241964 5.01914e-21)
(0.0761171 0.00629068 5.90301e-21)
(0.00185054 0.000226583 1.04786e-19)
(0.269828 0.0239207 7.51544e-20)
(1.04765 0.109877 1.04035e-21)
(1.25146 0.149213 8.33189e-21)
(1.31279 0.169573 0)
(1.29919 0.186616 -4.00324e-20)
(1.25269 0.197716 -4.53151e-20)
(1.20571 0.205856 -2.0656e-20)
(1.15963 0.210334 -7.29807e-20)
(1.11394 0.209934 0)
(1.06957 0.203362 1.05809e-19)
(1.03398 0.191541 1.04554e-19)
(1.01247 0.178707 3.09842e-20)
(1.0042 0.167544 1.12536e-19)
(0.998685 0.157204 1.57708e-19)
(0.935259 0.139729 0)
(0.7399 0.104272 2.21071e-19)
(0.449538 0.0604348 3.16473e-19)
(0.192648 0.0250877 3.50464e-19)
(0.0408212 0.00550891 -3.98856e-19)
(-0.00496002 -0.000378356 -7.39106e-21)
(0.271114 0.0398501 0)
(1.09576 0.165065 1.39133e-20)
(1.28917 0.209371 0)
(1.33929 0.229259 -5.34343e-20)
(1.31679 0.243307 0)
(1.26435 0.250546 -8.97049e-20)
(1.21181 0.254983 4.23655e-20)
(1.16014 0.255882 -1.47553e-19)
(1.109 0.251832 -3.14098e-21)
(1.05939 0.241459 5.49016e-20)
(1.01951 0.226176 2.2981e-19)
(0.995118 0.210719 -5.17921e-22)
(0.984423 0.197511 -8.17596e-20)
(0.972403 0.184657 -1.48576e-19)
(0.894378 0.162129 1.75306e-19)
(0.684519 0.117789 -3.0973e-19)
(0.399756 0.0660719 -4.08264e-20)
(0.161171 0.0263047 0)
(0.0257151 0.00452889 -1.6257e-23)
(-0.00792968 -0.00114001 0)
(0.264879 0.053559 1.91263e-19)
(1.12174 0.223508 -9.28009e-20)
(1.31233 0.274087 -6.96286e-20)
(1.35674 0.294173 2.55792e-20)
(1.32807 0.304355 -4.29925e-20)
(1.27116 0.307105 1.8844e-19)
(1.21403 0.307169 8.86489e-20)
(1.1575 0.303865 0)
(1.10143 0.295653 -2.76798e-19)
(1.04697 0.281081 0)
(1.00304 0.262079 -1.20872e-19)
(0.975805 0.243859 -1.4853e-19)
(0.962643 0.228524 -8.90778e-20)
(0.945631 0.213025 -1.07934e-19)
(0.860165 0.18535 0)
(0.648899 0.133506 0)
(0.375565 0.0747497 -2.64807e-19)
(0.149924 0.0294674 5.23178e-20)
(0.0205766 0.00402106 -3.055e-20)
(-0.00946494 -0.00189075 -3.51993e-20)
(0.257444 0.0656384 -8.48405e-20)
(1.13317 0.281837 0)
(1.32501 0.339742 1.46574e-19)
(1.36611 0.360511 7.30868e-20)
(1.33309 0.366897 9.87917e-20)
(1.27292 0.365171 0)
(1.21216 0.360765 8.73465e-20)
(1.15162 0.353096 1.63853e-19)
(1.0913 0.340526 1.4223e-19)
(1.0325 0.321565 2.58743e-19)
(0.984794 0.29867 0)
(0.95483 0.277553 -3.20603e-19)
(0.939312 0.260024 -1.9264e-19)
(0.918509 0.241985 -1.13723e-19)
(0.830806 0.209784 6.93583e-19)
(0.625873 0.151375 8.20974e-20)
(0.366329 0.0865805 3.83603e-19)
(0.151463 0.0348653 -1.81827e-18)
(0.0228012 0.00482977 1.07385e-18)
(-0.0094078 -0.0023654 -1.2747e-18)
(0.250357 0.0765733 -5.10071e-20)
(1.13539 0.338238 1.59089e-20)
(1.33009 0.404455 -1.6845e-20)
(1.36901 0.426377 -7.73315e-20)
(1.3328 0.429198 -8.53794e-20)
(1.27019 0.423181 3.58246e-21)
(1.20658 0.414473 -9.45959e-20)
(1.14274 0.402536 1.69965e-19)
(1.07878 0.385657 -3.06206e-19)
(1.01609 0.362308 0)
(0.964909 0.335518 -1.45546e-19)
(0.932325 0.311529 -3.23401e-21)
(0.914485 0.291799 -2.10779e-19)
(0.890812 0.271255 0)
(0.804301 0.234953 -1.50603e-19)
(0.609262 0.171295 -3.55627e-19)
(0.364999 0.100653 9.42577e-19)
(0.158777 0.0425193 -9.29251e-19)
(0.0298152 0.0074094 1.31817e-18)
(-0.00785654 -0.00238699 -1.34898e-18)
(0.244436 0.0866967 -8.08899e-22)
(1.1319 0.392043 -8.46616e-21)
(1.3297 0.467228 -5.14933e-20)
(1.36685 0.490568 3.24191e-20)
(1.32829 0.490209 -4.32882e-20)
(1.26382 0.480185 0)
(1.1979 0.467441 -8.89521e-20)
(1.13129 0.45145 -1.78283e-19)
(1.06417 0.430435 -1.5947e-19)
(0.998019 0.402832 0)
(0.943668 0.37226 -1.51413e-19)
(0.908606 0.345437 -1.86833e-19)
(0.888545 0.323561 2.28754e-19)
(0.862701 0.300634 -1.38572e-19)
(0.778719 0.260647 -6.59324e-19)
(0.594697 0.192627 3.89661e-19)
(0.365994 0.115984 1.15643e-19)
(0.168099 0.0518072 0)
(0.0387869 0.0114221 -1.27655e-18)
(-0.00555273 -0.00198245 -4.6133e-20)
(0.239774 0.0963322 -1.10574e-21)
(1.12499 0.443057 3.66549e-21)
(1.32534 0.527589 2.49464e-20)
(1.36087 0.552361 1.13983e-19)
(1.32047 0.54926 -1.62315e-19)
(1.25458 0.535602 1.84024e-19)
(1.18679 0.519131 1.91579e-19)
(1.11783 0.499354 -2.85002e-19)
(1.04794 0.47444 9.77199e-20)
(0.978661 0.442778 -6.36911e-19)
(0.921404 0.408521 -1.70872e-19)
(0.884036 0.378875 0)
(0.861958 0.354906 2.48173e-19)
(0.834454 0.329841 2.97059e-19)
(0.752587 0.286644 3.55147e-19)
(0.579867 0.214488 -4.24059e-19)
(0.365373 0.132217 -1.25309e-19)
(0.176155 0.0624393 1.47049e-19)
(0.047585 0.0164684 0)
(-0.00297095 -0.00123312 -1.0024e-19)
(0.236266 0.105627 -3.16708e-20)
(1.11625 0.491375 6.7173e-21)
(1.3183 0.585526 -2.34043e-20)
(1.3521 0.611417 7.08034e-20)
(1.31015 0.60596 -7.46264e-20)
(1.24317 0.589033 -8.10315e-21)
(1.17385 0.569189 -2.09064e-19)
(1.10287 0.545936 -1.03036e-19)
(1.0305 0.517388 -2.77003e-19)
(0.958358 0.481884 6.0443e-22)
(0.898384 0.444011 -5.35864e-19)
(0.85892 0.411606 4.50151e-19)
(0.835086 0.385622 -2.72609e-19)
(0.806105 0.358444 3.2736e-19)
(0.726094 0.311954 0)
(0.56352 0.236025 -2.30596e-19)
(0.361752 0.148494 1.49444e-23)
(0.181258 0.0732558 -6.41813e-19)
(0.0545901 0.0218114 -9.38132e-20)
(-0.000617441 -0.000324818 0)
(0.233792 0.114722 0)
(1.10661 0.537237 1.39943e-20)
(1.30931 0.64092 -2.73843e-20)
(1.3413 0.66764 -6.62742e-20)
(1.29802 0.660102 -9.28556e-20)
(1.23019 0.640255 0)
(1.1596 0.617384 -9.60841e-20)
(1.08686 0.59098 -2.13742e-21)
(1.01224 0.559099 5.9359e-19)
(0.937419 0.519975 -8.76534e-20)
(0.874865 0.478606 -3.86696e-19)
(0.83347 0.443555 2.34309e-19)
(0.808065 0.415613 -4.40623e-21)
(0.777677 0.386027 3.48174e-19)
(0.699182 0.336162 2.14295e-19)
(0.545337 0.256014 -4.98733e-19)
(0.354711 0.163717 5.88494e-19)
(0.182284 0.0831982 1.73809e-19)
(0.0587484 0.026596 7.13945e-19)
(0.00111473 0.000489227 -1.87809e-18)
(0.232288 0.123771 -2.22901e-20)
(1.09673 0.580817 2.30514e-20)
(1.29921 0.693399 -9.48454e-21)
(1.32905 0.720974 5.47178e-20)
(1.28462 0.711576 0)
(1.21613 0.689136 -8.68816e-20)
(1.14447 0.663578 3.21692e-19)
(1.07018 0.634351 2.26368e-19)
(0.993489 0.59945 0)
(0.916107 0.556955 -1.25999e-18)
(0.851063 0.512267 1.04526e-18)
(0.807846 0.474636 0)
(0.780956 0.444543 3.18237e-19)
(0.749191 0.412314 -4.42053e-21)
(0.671629 0.35856 -6.85101e-19)
(0.524978 0.273846 2.6753e-19)
(0.344464 0.177014 0)
(0.179426 0.0913628 9.36344e-19)
(0.0597348 0.0301923 0)
(0.00210949 0.00107233 -8.88391e-19)
(0.231578 0.132826 3.01976e-20)
(1.08707 0.622261 4.00292e-20)
(1.28822 0.743058 -6.64799e-21)
(1.31584 0.771443 0)
(1.2704 0.760356 -8.16461e-20)
(1.20138 0.73563 0)
(1.12884 0.707694 -3.19294e-19)
(1.05315 0.675972 -1.06013e-19)
(0.974534 0.638373 1.05084e-19)
(0.894668 0.592788 -6.2298e-19)
(0.82716 0.544972 1.08049e-19)
(0.782145 0.504691 0)
(0.753803 0.47212 -6.79342e-19)
(0.720677 0.436949 4.37576e-21)
(0.643526 0.378816 0)
(0.502716 0.289163 3.00219e-21)
(0.330985 0.187777 8.58918e-19)
(0.173134 0.0972205 -8.08706e-19)
(0.0581377 0.0322516 2.37388e-19)
(0.00240088 0.00133412 0)
(0.231352 0.141772 0)
(1.07795 0.66163 5.47821e-20)
(1.27667 0.790054 2.53822e-20)
(1.3021 0.819097 -4.90981e-21)
(1.25573 0.806473 -2.93949e-20)
(1.18629 0.779731 -1.95536e-19)
(1.11299 0.749713 1.19197e-19)
(1.03605 0.715808 -1.24281e-19)
(0.955621 0.67583 4.67694e-19)
(0.873308 0.627471 -9.95395e-19)
(0.803298 0.576692 -7.64472e-21)
(0.75642 0.533585 -2.98007e-19)
(0.726622 0.498256 1.10136e-18)
(0.692055 0.459839 -5.1412e-21)
(0.614724 0.396726 -5.3077e-19)
(0.478554 0.301786 -9.44402e-19)
(0.314838 0.195724 0)
(0.163803 0.10056 0)
(0.0544422 0.0328262 2.55418e-19)
(0.00214742 0.00126838 -1.48019e-19)
(0.231713 0.150768 4.98829e-20)
(1.0693 0.698806 -1.31769e-19)
(1.26487 0.834451 -2.75741e-20)
(1.2881 0.864013 0)
(1.24088 0.849983 -3.04265e-21)
(1.17112 0.821467 -1.82029e-19)
(1.09719 0.789641 2.89877e-19)
(1.01912 0.753849 4.91546e-19)
(0.936959 0.711815 6.08371e-19)
(0.85222 0.661017 -8.13279e-19)
(0.779596 0.607421 -8.96694e-19)
(0.730695 0.561323 7.96556e-19)
(0.699396 0.523062 0)
(0.663227 0.480943 -2.41272e-19)
(0.585241 0.412072 -5.73475e-19)
(0.452875 0.311491 -6.77835e-19)
(0.296302 0.200613 -7.99763e-19)
(0.151826 0.1013 2.35519e-19)
(0.0489634 0.0319752 -1.3779e-19)
(0.00154616 0.000995906 5.39637e-22)
(0.232239 0.159656 0)
(1.0613 0.73434 0)
(1.25305 0.87635 4.98219e-21)
(1.27406 0.9063 0)
(1.22608 0.890973 7.20757e-20)
(1.15608 0.860894 1.26073e-19)
(1.08162 0.827507 0)
(1.00253 0.790108 5.87721e-20)
(0.918731 0.746332 1.01576e-18)
(0.831572 0.693441 -1.86815e-18)
(0.756163 0.637196 0)
(0.705013 0.588061 -5.12159e-19)
(0.672067 0.546708 -6.08088e-21)
(0.634026 0.500111 -4.81789e-21)
(0.555117 0.424586 6.12667e-19)
(0.426149 0.318119 -4.10034e-22)
(0.275749 0.202332 -1.72094e-18)
(0.137862 0.0994528 5.06223e-19)
(0.0422818 0.0297789 1.48915e-19)
(0.000722602 0.000525544 0)
(0.23282 0.168408 -2.17382e-19)
(1.0537 0.768212 -1.0024e-19)
(1.24127 0.915829 -1.11469e-19)
(1.26015 0.946053 4.5459e-20)
(1.2115 0.929518 9.72729e-20)
(1.14134 0.898078 0)
(1.06644 0.863356 1.76833e-19)
(0.986426 0.824608 -1.30436e-19)
(0.901081 0.779396 7.72301e-21)
(0.811515 0.72477 1.37291e-19)
(0.73312 0.666105 1.15962e-18)
(0.679423 0.614047 -1.79641e-19)
(0.644516 0.569344 -6.77123e-19)
(0.604213 0.517113 -2.80419e-19)
(0.524415 0.434004 3.32389e-19)
(0.398835 0.3215 -3.57184e-23)
(0.253913 0.200764 4.6298e-19)
(0.122829 0.0951933 -1.08786e-18)
(0.0352039 0.0265879 1.27995e-18)
(-0.000201138 -7.11852e-05 1.8386e-19)
(0.233272 0.176898 8.53595e-20)
(1.04649 0.800521 -5.84276e-20)
(1.22967 0.952984 1.22201e-20)
(1.2465 0.983381 4.77158e-20)
(1.19727 0.965727 -7.35022e-21)
(1.12701 0.93309 -2.21881e-19)
(1.05176 0.897239 5.22004e-20)
(0.970934 0.857371 -5.44017e-19)
(0.884135 0.81101 -1.11944e-18)
(0.792176 0.755004 -1.11247e-18)
(0.710607 0.694261 0)
(0.653985 0.639538 -7.87123e-19)
(0.616609 0.591068 9.74599e-19)
(0.573519 0.531758 0)
(0.493105 0.440109 -7.11121e-19)
(0.371266 0.321224 4.22796e-19)
(0.231907 0.195685 -4.97065e-19)
(0.108059 0.0889099 -5.84569e-19)
(0.0284903 0.0228308 -1.02971e-18)
(-0.00104396 -0.000706051 -7.90828e-19)
(0.234053 0.185247 -9.8841e-20)
(1.03954 0.83125 6.2483e-20)
(1.21832 0.987887 1.37777e-19)
(1.2332 1.01837 8.12096e-20)
(1.18348 0.999695 2.35497e-20)
(1.11318 0.96602 -1.22031e-19)
(1.03768 0.929207 1.73278e-19)
(0.956133 0.888439 -5.59634e-19)
(0.867976 0.841197 -6.62675e-19)
(0.773668 0.784162 1.16391e-18)
(0.688759 0.721777 2.54244e-18)
(0.628789 0.664744 0)
(0.588235 0.611962 0)
(0.541642 0.544071 -3.22232e-19)
(0.460875 0.442728 0)
(0.34348 0.316417 9.07953e-19)
(0.210929 0.186342 1.06752e-18)
(0.0954944 0.0806601 0)
(0.0233564 0.018966 0)
(-0.0017119 -0.00125662 8.48656e-19)
(0.234484 0.193154 1.15477e-19)
(1.03285 0.860385 9.45904e-20)
(1.20726 1.02066 1.01443e-19)
(1.22031 1.05114 -9.18475e-20)
(1.17019 1.03153 1.0687e-20)
(1.09993 0.996944 1.28075e-19)
(1.02426 0.959323 -2.38145e-19)
(0.942086 0.91784 -5.51586e-22)
(0.85268 0.869961 -9.99484e-21)
(0.756086 0.812244 -9.85495e-21)
(0.66773 0.74874 1.30803e-18)
(0.603954 0.68979 0)
(0.559369 0.632145 9.84022e-19)
(0.508317 0.554372 6.86656e-19)
(0.426993 0.441905 1.65387e-18)
(0.314836 0.305851 4.88186e-19)
(0.192169 0.170411 -5.73864e-19)
(0.0890572 0.0679447 -3.36023e-19)
(0.0250565 0.0139074 0)
(-0.000482236 -0.00112859 9.10691e-19)
(0.235201 0.201066 -2.65468e-19)
(1.02641 0.888018 0)
(1.19649 1.05135 1.26455e-19)
(1.20785 1.08179 -8.30373e-20)
(1.15746 1.06132 1.09219e-20)
(1.08727 1.02595 -1.41018e-19)
(1.01152 0.987643 4.65105e-19)
(0.928828 0.945608 -4.5311e-20)
(0.838287 0.897314 0)
(0.739506 0.83923 -1.28252e-18)
(0.647666 0.775188 -2.84085e-18)
(0.579636 0.71474 1.15832e-19)
(0.530122 0.651799 1.355e-18)
(0.47342 0.56328 0)
(0.390349 0.438279 1.11399e-18)
(0.28309 0.288662 0)
(0.174031 0.142848 0)
(0.0929977 0.037662 -3.62831e-19)
(0.0544626 -0.00310077 0)
(0.0277853 0.0111821 2.4365e-19)
(0.235544 0.208369 -3.01929e-19)
(1.02017 0.91449 0)
(1.18602 1.08016 2.15972e-19)
(1.19577 1.11056 0)
(1.14525 1.08934 -1.48284e-20)
(1.07516 1.05332 0)
(0.999419 1.01448 2.34019e-20)
(0.916263 0.972084 7.66587e-20)
(0.824678 0.923619 8.26043e-20)
(0.723768 0.865514 -1.4041e-18)
(0.628396 0.80157 8.5252e-20)
(0.555604 0.740149 9.29355e-19)
(0.500146 0.671632 1.31917e-18)
(0.436192 0.571657 1.77645e-19)
(0.349061 0.43347 8.7127e-19)
(0.243528 0.265922 0)
(0.145114 0.10008 1.20683e-18)
(0.0789311 -0.0105005 -7.02921e-19)
(0.0417472 0.0471953 8.06807e-19)
(-0.0595953 0.43481 -9.57473e-19)
(0.235853 0.215471 2.53159e-19)
(1.01386 0.939576 3.90815e-19)
(1.17575 1.10742 0)
(1.18395 1.13788 9.89706e-21)
(1.13336 1.11617 5.93822e-20)
(1.06333 1.07975 1.74734e-19)
(0.987633 1.04063 1.62345e-19)
(0.903983 0.998206 0)
(0.811323 0.949967 5.50022e-19)
(0.708204 0.892411 -7.35967e-20)
(0.609011 0.829373 0)
(0.530622 0.76765 0)
(0.467604 0.69316 1.18161e-18)
(0.394461 0.580388 -5.48707e-19)
(0.299998 0.429636 -8.82089e-19)
(0.191494 0.241425 0)
(0.0840544 0.103009 6.01153e-19)
(0.00676799 0.442232 -6.89942e-19)
(0.0319687 1.89306 -3.80423e-19)
(0.0628448 2.81002 -5.012e-19)
(0.235923 0.221798 -1.92841e-19)
(1.0076 0.963438 -5.06951e-19)
(1.16571 1.1331 1.31871e-19)
(1.17237 1.16363 9.68734e-20)
(1.12183 1.14158 0)
(1.05186 1.10494 9.90412e-20)
(0.976365 1.06578 2.23217e-19)
(0.892176 1.02354 -3.7262e-20)
(0.79849 0.975841 8.18948e-20)
(0.693195 0.919319 1.33933e-18)
(0.590104 0.857907 1.43392e-18)
(0.505625 0.79674 1.04112e-18)
(0.433408 0.716387 1.18762e-18)
(0.349912 0.588639 -1.28706e-18)
(0.249085 0.430385 -1.3305e-18)
(0.127216 0.280492 0)
(0.0454319 0.833739 0)
(0.0996463 2.55349 3.32028e-19)
(0.102304 3.20165 0)
(0.104789 3.38795 7.34207e-19)
(0.239035 0.227632 0)
(1.00197 0.98634 0)
(1.15563 1.15706 0)
(1.16081 1.18763 3.15476e-20)
(1.11032 1.16532 5.95719e-20)
(1.04053 1.12876 4.56359e-20)
(0.965515 1.08983 1.43765e-19)
(0.880786 1.04798 -3.64285e-20)
(0.786129 1.00109 6.88228e-19)
(0.678757 0.946096 -1.8384e-20)
(0.571795 0.887001 2.83358e-18)
(0.480943 0.827171 -1.1989e-19)
(0.397733 0.742327 1.43922e-19)
(0.305012 0.594459 1.86145e-19)
(0.187977 0.444218 -6.40438e-21)
(0.102111 0.965287 3.53803e-21)
(0.140367 2.72314 -1.74864e-18)
(0.147776 3.29337 -6.50299e-19)
(0.13669 3.42606 3.29749e-19)
(0.124107 3.44799 -3.63021e-19)
(0.158342 0.179231 1.12265e-19)
(0.991849 1.01119 0)
(1.14523 1.17949 -2.70022e-19)
(1.1497 1.21029 -2.7299e-19)
(1.09956 1.18809 1.79392e-19)
(1.03017 1.15182 -3.72205e-20)
(0.954997 1.11279 -1.4816e-19)
(0.86991 1.0716 4.08474e-19)
(0.774377 1.02586 -5.6216e-19)
(0.665158 0.972903 0)
(0.554442 0.916788 1.38851e-18)
(0.457108 0.858602 -8.49462e-19)
(0.361379 0.774133 0)
(0.25346 0.600612 1.67571e-19)
(0.14728 0.764504 4.08728e-19)
(0.155831 2.49717 -4.79583e-19)
(0.21157 3.32378 5.30643e-19)
(0.191953 3.43898 2.88571e-19)
(0.159208 3.4604 3.19165e-19)
(0.137695 3.47057 5.15949e-19)
(0.279483 0.266492 -1.9659e-19)
(0.97601 1.02123 0)
(1.1273 1.20522 3.04058e-19)
(1.1353 1.2416 3.15717e-19)
(1.08257 1.22138 -2.21087e-19)
(1.01253 1.18555 -1.0836e-20)
(0.936363 1.14811 1.44374e-19)
(0.850782 1.10818 3.19225e-20)
(0.753976 1.06465 5.40207e-19)
(0.642118 1.01575 1.15948e-18)
(0.526435 0.966203 7.88146e-20)
(0.418335 0.911551 7.55491e-19)
(0.297341 0.816333 1.33698e-19)
(0.214729 0.940789 -1.69462e-19)
(0.229045 2.34976 -3.80908e-19)
(0.288439 3.32736 3.6078e-19)
(0.272082 3.46814 -4.0845e-19)
(0.236539 3.48988 -2.37718e-19)
(0.199876 3.51708 -1.96332e-19)
(0.149243 3.51064 -1.88205e-20)
(0.268714 0.264113 0)
(0.974033 1.04444 9.30693e-20)
(1.11918 1.2289 -6.46874e-20)
(1.12496 1.26537 -3.97276e-20)
(1.07196 1.24469 -1.64201e-19)
(1.00191 1.20907 2.17796e-20)
(0.925458 1.17182 -7.68705e-20)
(0.839692 1.13272 2.88098e-20)
(0.742388 1.09067 -5.64854e-19)
(0.629316 1.04469 -2.74998e-20)
(0.510954 0.999824 -2.52481e-18)
(0.397844 0.948028 1.07716e-19)
(0.283851 0.883447 -1.25889e-19)
(0.254677 1.49213 -1.58043e-19)
(0.327697 3.10375 3.47224e-20)
(0.347543 3.46691 1.26667e-21)
(0.306762 3.52186 6.08648e-19)
(0.269811 3.54813 2.99955e-19)
(0.221352 3.57105 -7.87993e-20)
(0.164027 3.56672 -9.17754e-20)
(0.252987 0.262183 2.38857e-19)
(0.970593 1.07024 6.44107e-19)
(1.11062 1.25466 -1.86941e-19)
(1.11401 1.29051 -1.50428e-19)
(1.06077 1.26937 0)
(0.990886 1.2338 9.48392e-20)
(0.914416 1.19681 -8.16695e-20)
(0.828735 1.15849 2.5471e-20)
(0.731248 1.11801 -6.28106e-20)
(0.617493 1.07521 -1.05576e-18)
(0.497262 1.03516 -1.1681e-18)
(0.381278 0.986377 -8.8095e-19)
(0.28208 1.01413 -9.61435e-19)
(0.32315 2.2105 9.84605e-19)
(0.413332 3.37863 8.13334e-19)
(0.391235 3.52456 0)
(0.344982 3.56851 0)
(0.306867 3.60806 -6.45306e-20)
(0.25689 3.66621 0)
(0.176064 3.64257 -7.13938e-20)
(0.242484 0.26411 -3.64721e-19)
(0.965029 1.09696 -5.56183e-19)
(1.10065 1.28167 0)
(1.10174 1.31641 1.17855e-20)
(1.04835 1.29468 -1.99154e-19)
(0.978762 1.25905 1.86496e-19)
(0.902605 1.22234 -3.49178e-20)
(0.817218 1.18471 1.54953e-20)
(0.719791 1.14574 -4.04714e-19)
(0.60577 1.10611 5.32636e-20)
(0.484531 1.07072 0)