0.490941 	0.837608 	0.00612426 	3.00281 	0
0.561075 	0.837608 	0.00612426 	3.00281 	0
0.63121 	0.837608 	0.00612426 	3.00281 	0
0.701344 	0.837608 	0.00612426 	3.00281 	0
0.771478 	0.837608 	0.00612426 	3.00281 	0
0.841613 	0.837608 	0.00612426 	3.00281 	0
0.911747 	0.837608 	0.00612426 	3.00281 	0
0.981881 	0.837608 	0.00612426 	3.00281 	0
1.05202 	0.837608 	0.00612426 	3.00281 	0
1.12215 	0.837608 	0.00612426 	3.00281 	0
1.19228 	0.837608 	0.00612426 	3.00281 	0
1.26242 	0.811465 	0.0115095 	3.00795 	0
1.33255 	0.811465 	0.0115095 	3.00795 	0
1.40269 	0.811465 	0.0115095 	3.00795 	0
1.47282 	0.811465 	0.0115095 	3.00795 	0
1.54296 	0.811465 	0.0115095 	3.00795 	0
1.61309 	0.811465 	0.0115095 	3.00795 	0
1.68323 	0.811465 	0.0115095 	3.00795 	0
1.75336 	0.811465 	0.0115095 	3.00795 	0
1.82349 	0.761795 	0.0148059 	3.02399 	2.90502e-19
1.89363 	0.761795 	0.0148059 	3.02399 	2.90502e-19
1.96376 	0.761795 	0.0148059 	3.02399 	2.90502e-19
2.0339 	0.761795 	0.0148059 	3.02399 	2.90502e-19
2.10403 	0.761795 	0.0148059 	3.02399 	2.90502e-19
2.17417 	0.761795 	0.0148059 	3.02399 	2.90502e-19
2.2443 	0.761795 	0.0148059 	3.02399 	2.90502e-19
2.31443 	0.761795 	0.0148059 	3.02399 	2.90502e-19
2.38457 	0.761795 	0.0148059 	3.02399 	2.90502e-19
2.4547 	0.761795 	0.0148059 	3.02399 	2.90502e-19
2.52484 	0.761795 	0.0148059 	3.02399 	2.90502e-19
2.59497 	0.727044 	0.00730399 	3.03671 	-4.53258e-19
2.66511 	0.727044 	0.00730399 	3.03671 	-4.53258e-19
2.73524 	0.727044 	0.00730399 	3.03671 	-4.53258e-19
2.80538 	0.727044 	0.00730399 	3.03671 	-4.53258e-19
2.87551 	0.727044 	0.00730399 	3.03671 	-4.53258e-19
2.94564 	0.727044 	0.00730399 	3.03671 	-4.53258e-19
3.01578 	0.727044 	0.00730399 	3.03671 	-4.53258e-19
3.08591 	0.727044 	0.00730399 	3.03671 	-4.53258e-19
3.15605 	0.727044 	0.00730399 	3.03671 	-4.53258e-19
3.22618 	0.727044 	0.00730399 	3.03671 	-4.53258e-19
3.29632 	0.694461 	0.0200676 	3.04351 	4.58971e-19
3.36645 	0.694461 	0.0200676 	3.04351 	4.58971e-19
3.43659 	0.694461 	0.0200676 	3.04351 	4.58971e-19
3.50672 	0.694461 	0.0200676 	3.04351 	4.58971e-19
3.57685 	0.694461 	0.0200676 	3.04351 	4.58971e-19
3.64699 	0.694461 	0.0200676 	3.04351 	4.58971e-19
3.71712 	0.694461 	0.0200676 	3.04351 	4.58971e-19
3.78726 	0.694461 	0.0200676 	3.04351 	4.58971e-19
3.85739 	0.694461 	0.0200676 	3.04351 	4.58971e-19
3.92753 	0.694461 	0.0200676 	3.04351 	4.58971e-19
3.99766 	0.694461 	0.0200676 	3.04351 	4.58971e-19
4.06779 	0.676124 	0.00375778 	3.05016 	-1.27463e-20
4.13793 	0.676124 	0.00375778 	3.05016 	-1.27463e-20
4.20806 	0.676124 	0.00375778 	3.05016 	-1.27463e-20
4.2782 	0.676124 	0.00375778 	3.05016 	-1.27463e-20
4.34833 	0.676124 	0.00375778 	3.05016 	-1.27463e-20
4.41847 	0.676124 	0.00375778 	3.05016 	-1.27463e-20
4.4886 	0.651065 	0.0165534 	3.05802 	0
4.55874 	0.651065 	0.0165534 	3.05802 	0
4.62887 	0.651065 	0.0165534 	3.05802 	0
4.699 	0.651065 	0.0165534 	3.05802 	0
4.76914 	0.651065 	0.0165534 	3.05802 	0
4.83927 	0.651065 	0.0165534 	3.05802 	0
4.90941 	0.651065 	0.0165534 	3.05802 	0
4.97954 	0.651065 	0.0165534 	3.05802 	0
5.04968 	0.651065 	0.0165534 	3.05802 	0
5.11981 	0.651065 	0.0165534 	3.05802 	0
5.18994 	0.62879 	0.00572404 	3.06475 	-5.89081e-21
5.26008 	0.62879 	0.00572404 	3.06475 	-5.89081e-21
5.33021 	0.62879 	0.00572404 	3.06475 	-5.89081e-21
5.40035 	0.62879 	0.00572404 	3.06475 	-5.89081e-21
5.47048 	0.62879 	0.00572404 	3.06475 	-5.89081e-21
5.54062 	0.62879 	0.00572404 	3.06475 	-5.89081e-21
5.61075 	0.62879 	0.00572404 	3.06475 	-5.89081e-21
5.68089 	0.599801 	0.0110616 	3.07452 	0
5.75102 	0.599801 	0.0110616 	3.07452 	0
5.82115 	0.599801 	0.0110616 	3.07452 	0
5.89129 	0.599801 	0.0110616 	3.07452 	0
5.96142 	0.599801 	0.0110616 	3.07452 	0
6.03156 	0.599801 	0.0110616 	3.07452 	0
6.10169 	0.599801 	0.0110616 	3.07452 	0
6.17183 	0.599801 	0.0110616 	3.07452 	0
6.24196 	0.599801 	0.0110616 	3.07452 	0
6.3121 	0.570786 	0.00736408 	3.08269 	0
6.38223 	0.570786 	0.00736408 	3.08269 	0
6.45236 	0.570786 	0.00736408 	3.08269 	0
6.5225 	0.570786 	0.00736408 	3.08269 	0
6.59263 	0.570786 	0.00736408 	3.08269 	0
6.66277 	0.570786 	0.00736408 	3.08269 	0
6.7329 	0.570786 	0.00736408 	3.08269 	0
6.80304 	0.570786 	0.00736408 	3.08269 	0
6.87317 	0.545359 	0.00612461 	3.09106 	1.85209e-19
6.9433 	0.545359 	0.00612461 	3.09106 	1.85209e-19
7.01344 	0.545359 	0.00612461 	3.09106 	1.85209e-19
7.08357 	0.545359 	0.00612461 	3.09106 	1.85209e-19
7.15371 	0.545359 	0.00612461 	3.09106 	1.85209e-19
7.22384 	0.545359 	0.00612461 	3.09106 	1.85209e-19
7.29398 	0.545359 	0.00612461 	3.09106 	1.85209e-19
7.36411 	0.545359 	0.00612461 	3.09106 	1.85209e-19
7.43425 	0.545359 	0.00612461 	3.09106 	1.85209e-19
7.50438 	0.513141 	0.00873944 	3.09966 	-1.35505e-18
7.57451 	0.513141 	0.00873944 	3.09966 	-1.35505e-18
7.64465 	0.513141 	0.00873944 	3.09966 	-1.35505e-18
7.71478 	0.513141 	0.00873944 	3.09966 	-1.35505e-18
7.78492 	0.513141 	0.00873944 	3.09966 	-1.35505e-18
7.85505 	0.513141 	0.00873944 	3.09966 	-1.35505e-18
7.92519 	0.513141 	0.00873944 	3.09966 	-1.35505e-18
7.99532 	0.513141 	0.00873944 	3.09966 	-1.35505e-18
8.06545 	0.495223 	0.0024642 	3.10623 	1.31811e-18
8.13559 	0.495223 	0.0024642 	3.10623 	1.31811e-18
8.20572 	0.495223 	0.0024642 	3.10623 	1.31811e-18
8.27586 	0.495223 	0.0024642 	3.10623 	1.31811e-18
8.34599 	0.495223 	0.0024642 	3.10623 	1.31811e-18
8.41613 	0.495223 	0.0024642 	3.10623 	1.31811e-18
8.48626 	0.495223 	0.0024642 	3.10623 	1.31811e-18
8.5564 	0.495223 	0.0024642 	3.10623 	1.31811e-18
8.62653 	0.495223 	0.0024642 	3.10623 	1.31811e-18
8.69666 	0.464478 	0.016819 	3.11784 	1.16423e-18
8.7668 	0.464478 	0.016819 	3.11784 	1.16423e-18
8.83693 	0.464478 	0.016819 	3.11784 	1.16423e-18
8.90707 	0.464478 	0.016819 	3.11784 	1.16423e-18
8.9772 	0.464478 	0.016819 	3.11784 	1.16423e-18
9.04734 	0.464478 	0.016819 	3.11784 	1.16423e-18
9.11747 	0.464478 	0.016819 	3.11784 	1.16423e-18
9.18761 	0.464478 	0.016819 	3.11784 	1.16423e-18
9.25774 	0.433477 	0.00209133 	3.1186 	-1.08752e-18
9.32787 	0.433477 	0.00209133 	3.1186 	-1.08752e-18
9.39801 	0.433477 	0.00209133 	3.1186 	-1.08752e-18
9.46814 	0.433477 	0.00209133 	3.1186 	-1.08752e-18
9.53828 	0.433477 	0.00209133 	3.1186 	-1.08752e-18
9.60841 	0.433477 	0.00209133 	3.1186 	-1.08752e-18
9.67855 	0.433477 	0.00209133 	3.1186 	-1.08752e-18
9.74868 	0.433477 	0.00209133 	3.1186 	-1.08752e-18
9.81881 	0.416745 	0.0166353 	3.12979 	-3.28045e-19
9.88895 	0.416745 	0.0166353 	3.12979 	-3.28045e-19
9.95908 	0.416745 	0.0166353 	3.12979 	-3.28045e-19
10.0292 	0.416745 	0.0166353 	3.12979 	-3.28045e-19
10.0994 	0.416745 	0.0166353 	3.12979 	-3.28045e-19
10.1695 	0.416745 	0.0166353 	3.12979 	-3.28045e-19
10.2396 	0.416745 	0.0166353 	3.12979 	-3.28045e-19
10.3098 	0.416745 	0.0166353 	3.12979 	-3.28045e-19
10.3799 	0.416745 	0.0166353 	3.12979 	-3.28045e-19
10.45 	0.416745 	0.0166353 	3.12979 	-3.28045e-19
10.5202 	0.416745 	0.0166353 	3.12979 	-3.28045e-19
10.5903 	0.416745 	0.0166353 	3.12979 	-3.28045e-19
10.6604 	0.440742 	0.0149682 	3.12576 	4.82827e-19
10.7306 	0.386314 	0.0371059 	3.14015 	0
10.8007 	0.386314 	0.0371059 	3.14015 	0
10.8708 	0.386314 	0.0371059 	3.14015 	0
10.941 	0.386314 	0.0371059 	3.14015 	0
11.0111 	0.386314 	0.0371059 	3.14015 	0
11.0812 	0.386314 	0.0371059 	3.14015 	0
11.1514 	0.386314 	0.0371059 	3.14015 	0
11.2215 	0.386314 	0.0371059 	3.14015 	0
11.2916 	0.386314 	0.0371059 	3.14015 	0
11.3618 	0.386314 	0.0371059 	3.14015 	0
11.4319 	0.386314 	0.0371059 	3.14015 	0
11.502 	0.386314 	0.0371059 	3.14015 	0
11.5722 	0.386314 	0.0371059 	3.14015 	0
11.6423 	0.386314 	0.0371059 	3.14015 	0
11.7124 	0.394794 	0.0244393 	3.12915 	0
11.7826 	0.332431 	0.0794657 	3.16149 	4.89715e-19
11.8527 	0.332431 	0.0794657 	3.16149 	4.89715e-19
11.9228 	0.332431 	0.0794657 	3.16149 	4.89715e-19
11.993 	0.332431 	0.0794657 	3.16149 	4.89715e-19
12.0631 	0.332431 	0.0794657 	3.16149 	4.89715e-19
12.1332 	0.332431 	0.0794657 	3.16149 	4.89715e-19
12.2034 	0.231891 	0.0720958 	3.18835 	-2.10001e-19
12.2735 	0.231891 	0.0720958 	3.18835 	-2.10001e-19
12.3437 	0.231891 	0.0720958 	3.18835 	-2.10001e-19
12.4138 	0.231891 	0.0720958 	3.18835 	-2.10001e-19
12.4839 	0.231891 	0.0720958 	3.18835 	-2.10001e-19
12.5541 	0.231891 	0.0720958 	3.18835 	-2.10001e-19
12.6242 	0.231891 	0.0720958 	3.18835 	-2.10001e-19
12.6943 	0.231891 	0.0720958 	3.18835 	-2.10001e-19
12.7645 	0.231891 	0.0720958 	3.18835 	-2.10001e-19
12.8346 	0.11517 	0.0383728 	3.18166 	1.07722e-19
12.9047 	0.0995605 	0.140426 	3.22484 	2.62579e-21
12.9749 	0.0995605 	0.140426 	3.22484 	2.62579e-21
13.045 	0.0995605 	0.140426 	3.22484 	2.62579e-21
13.1151 	0.0995605 	0.140426 	3.22484 	2.62579e-21
13.1853 	0.0995605 	0.140426 	3.22484 	2.62579e-21
13.2554 	0.0995605 	0.140426 	3.22484 	2.62579e-21
13.3255 	0.0995605 	0.140426 	3.22484 	2.62579e-21
13.3957 	0.328325 	0.145812 	3.19542 	8.07369e-19
13.4658 	0.328325 	0.145812 	3.19542 	8.07369e-19
13.5359 	0.328325 	0.145812 	3.19542 	8.07369e-19
13.6061 	0.328325 	0.145812 	3.19542 	8.07369e-19
13.6762 	0.328325 	0.145812 	3.19542 	8.07369e-19
13.7463 	0.328325 	0.145812 	3.19542 	8.07369e-19
13.8165 	0.407426 	0.120722 	2.86974 	-6.56626e-19
13.8866 	0.605304 	0.142343 	2.96418 	1.36921e-19
13.9567 	0.605304 	0.142343 	2.96418 	1.36921e-19
14.0269 	0.0219278 	0.251598 	3.0375 	-7.64032e-19
14.097 	0.0219278 	0.251598 	3.0375 	-7.64032e-19
14.1671 	0.0219278 	0.251598 	3.0375 	-7.64032e-19
14.2373 	0.0219278 	0.251598 	3.0375 	-7.64032e-19
14.3074 	0.0219278 	0.251598 	3.0375 	-7.64032e-19
14.3776 	0.0219278 	0.251598 	3.0375 	-7.64032e-19
14.4477 	0.0219278 	0.251598 	3.0375 	-7.64032e-19
14.5178 	0.0219278 	0.251598 	3.0375 	-7.64032e-19
14.588 	0.0219278 	0.251598 	3.0375 	-7.64032e-19
14.6581 	0.0219278 	0.251598 	3.0375 	-7.64032e-19
14.7282 	0.0219278 	0.251598 	3.0375 	-7.64032e-19
14.7984 	0.0219278 	0.251598 	3.0375 	-7.64032e-19
14.8685 	0.0219278 	0.251598 	3.0375 	-7.64032e-19
14.9386 	-0.157359 	0.346213 	3.19722 	0
15.0088 	-0.157359 	0.346213 	3.19722 	0
15.0789 	-0.157359 	0.346213 	3.19722 	0
15.149 	-0.157359 	0.346213 	3.19722 	0
15.2192 	-0.157359 	0.346213 	3.19722 	0
15.2893 	-0.668286 	0.344403 	3.42765 	-4.41274e-19
15.3594 	-0.668286 	0.344403 	3.42765 	-4.41274e-19
15.4296 	-0.668286 	0.344403 	3.42765 	-4.41274e-19
15.4997 	-0.668286 	0.344403 	3.42765 	-4.41274e-19
15.5698 	-0.668286 	0.344403 	3.42765 	-4.41274e-19
15.64 	-0.668286 	0.344403 	3.42765 	-4.41274e-19
15.7101 	-1.16886 	0.399743 	3.49906 	0
15.7802 	-1.16886 	0.399743 	3.49906 	0
15.8504 	-1.06807 	0.65404 	3.55948 	1.65937e-18
15.9205 	-1.06807 	0.65404 	3.55948 	1.65937e-18
15.9906 	-1.06807 	0.65404 	3.55948 	1.65937e-18
16.0608 	-1.06807 	0.65404 	3.55948 	1.65937e-18
16.1309 	-1.06807 	0.65404 	3.55948 	1.65937e-18
16.201 	-1.06807 	0.65404 	3.55948 	1.65937e-18
16.2712 	-1.06807 	0.65404 	3.55948 	1.65937e-18
16.3413 	-1.06807 	0.65404 	3.55948 	1.65937e-18
16.4114 	-1.06807 	0.65404 	3.55948 	1.65937e-18
16.4816 	-1.06807 	0.65404 	3.55948 	1.65937e-18
16.5517 	-1.06807 	0.65404 	3.55948 	1.65937e-18
16.6219 	-1.06807 	0.65404 	3.55948 	1.65937e-18
16.692 	-1.06807 	0.65404 	3.55948 	1.65937e-18
16.7621 	-1.06807 	0.65404 	3.55948 	1.65937e-18
16.8323 	-0.622549 	0.882215 	3.12459 	3.7486e-19
16.9024 	-0.622549 	0.882215 	3.12459 	3.7486e-19
16.9725 	-0.622549 	0.882215 	3.12459 	3.7486e-19
17.0427 	-0.622549 	0.882215 	3.12459 	3.7486e-19
17.1128 	-0.622549 	0.882215 	3.12459 	3.7486e-19
17.1829 	-0.622549 	0.882215 	3.12459 	3.7486e-19
17.2531 	-0.622549 	0.882215 	3.12459 	3.7486e-19
17.3232 	-0.622549 	0.882215 	3.12459 	3.7486e-19
17.3933 	-0.622549 	0.882215 	3.12459 	3.7486e-19
17.4635 	-0.622549 	0.882215 	3.12459 	3.7486e-19
17.5336 	-0.539533 	0.919312 	3.04207 	-4.25511e-19
17.6037 	-0.539533 	0.919312 	3.04207 	-4.25511e-19
17.6739 	-0.539533 	0.919312 	3.04207 	-4.25511e-19
17.744 	-0.632599 	1.04824 	3.17345 	4.81063e-19
17.8141 	-0.632599 	1.04824 	3.17345 	4.81063e-19
17.8843 	-0.632599 	1.04824 	3.17345 	4.81063e-19
17.9544 	-0.632599 	1.04824 	3.17345 	4.81063e-19
18.0245 	-0.632599 	1.04824 	3.17345 	4.81063e-19
18.0947 	-0.632599 	1.04824 	3.17345 	4.81063e-19
18.1648 	-0.632599 	1.04824 	3.17345 	4.81063e-19
18.2349 	-0.632599 	1.04824 	3.17345 	4.81063e-19
18.3051 	-0.632599 	1.04824 	3.17345 	4.81063e-19
18.3752 	-0.342963 	1.00856 	2.77974 	-3.65726e-19
18.4453 	-0.342963 	1.00856 	2.77974 	-3.65726e-19
18.5155 	-0.342963 	1.00856 	2.77974 	-3.65726e-19
18.5856 	-0.342963 	1.00856 	2.77974 	-3.65726e-19
18.6557 	-0.342963 	1.00856 	2.77974 	-3.65726e-19
18.7259 	-0.342963 	1.00856 	2.77974 	-3.65726e-19
18.796 	-0.342963 	1.00856 	2.77974 	-3.65726e-19
18.8662 	-0.268909 	1.04164 	2.83492 	2.87579e-19
18.9363 	-0.268909 	1.04164 	2.83492 	2.87579e-19
19.0064 	-0.268909 	1.04164 	2.83492 	2.87579e-19
19.0766 	-0.268909 	1.04164 	2.83492 	2.87579e-19
19.1467 	-0.268909 	1.04164 	2.83492 	2.87579e-19
19.2168 	-0.268909 	1.04164 	2.83492 	2.87579e-19
19.287 	-0.268909 	1.04164 	2.83492 	2.87579e-19
19.3571 	-0.268909 	1.04164 	2.83492 	2.87579e-19
19.4272 	-0.268909 	1.04164 	2.83492 	2.87579e-19
19.4974 	-0.268909 	1.04164 	2.83492 	2.87579e-19
19.5675 	-0.268909 	1.04164 	2.83492 	2.87579e-19
19.6376 	-0.268909 	1.04164 	2.83492 	2.87579e-19
19.7078 	-0.268909 	1.04164 	2.83492 	2.87579e-19
19.7779 	-0.120776 	0.992852 	2.46264 	-6.80437e-20
19.848 	-0.120776 	0.992852 	2.46264 	-6.80437e-20
19.9182 	-0.120776 	0.992852 	2.46264 	-6.80437e-20
19.9883 	-0.120776 	0.992852 	2.46264 	-6.80437e-20
20.0584 	-0.120776 	0.992852 	2.46264 	-6.80437e-20
20.1286 	-0.120776 	0.992852 	2.46264 	-6.80437e-20
20.1987 	-0.120776 	0.992852 	2.46264 	-6.80437e-20
20.2688 	-0.125536 	0.995469 	2.45991 	-1.63788e-19
20.339 	-0.125536 	0.995469 	2.45991 	-1.63788e-19
20.4091 	-0.125536 	0.995469 	2.45991 	-1.63788e-19
20.4792 	-0.125536 	0.995469 	2.45991 	-1.63788e-19
20.5494 	-0.125536 	0.995469 	2.45991 	-1.63788e-19
20.6195 	-0.125536 	0.995469 	2.45991 	-1.63788e-19
20.6896 	-0.125536 	0.995469 	2.45991 	-1.63788e-19
20.7598 	-0.125536 	0.995469 	2.45991 	-1.63788e-19
20.8299 	-0.125536 	0.995469 	2.45991 	-1.63788e-19
20.9 	-0.125536 	0.995469 	2.45991 	-1.63788e-19
20.9702 	-0.125536 	0.995469 	2.45991 	-1.63788e-19
21.0403 	-0.125536 	0.995469 	2.45991 	-1.63788e-19
21.1105 	-0.125536 	0.995469 	2.45991 	-1.63788e-19
21.1806 	-0.125536 	0.995469 	2.45991 	-1.63788e-19
21.2507 	-0.125536 	0.995469 	2.45991 	-1.63788e-19
21.3209 	-0.125536 	0.995469 	2.45991 	-1.63788e-19
21.391 	-0.125536 	0.995469 	2.45991 	-1.63788e-19
21.4611 	-0.113838 	0.704635 	1.92575 	1.12102e-19
21.5313 	-0.113838 	0.704635 	1.92575 	1.12102e-19
21.6014 	-0.113838 	0.704635 	1.92575 	1.12102e-19
21.6715 	-0.220323 	0.618142 	1.43529 	1.97693e-19
21.7417 	-0.220323 	0.618142 	1.43529 	1.97693e-19
21.8118 	-0.220323 	0.618142 	1.43529 	1.97693e-19
21.8819 	-0.220323 	0.618142 	1.43529 	1.97693e-19
21.9521 	-0.220323 	0.618142 	1.43529 	1.97693e-19
22.0222 	-0.352024 	0.934644 	2.3672 	-2.85244e-19
22.0923 	-0.352024 	0.934644 	2.3672 	-2.85244e-19
22.1625 	-0.352024 	0.934644 	2.3672 	-2.85244e-19
22.2326 	-0.352024 	0.934644 	2.3672 	-2.85244e-19
22.3027 	-0.352024 	0.934644 	2.3672 	-2.85244e-19
22.3729 	-0.352024 	0.934644 	2.3672 	-2.85244e-19
22.443 	-0.352024 	0.934644 	2.3672 	-2.85244e-19
22.5131 	-0.352024 	0.934644 	2.3672 	-2.85244e-19
22.5833 	-0.352024 	0.934644 	2.3672 	-2.85244e-19
22.6534 	-0.352024 	0.934644 	2.3672 	-2.85244e-19
22.7235 	-0.352024 	0.934644 	2.3672 	-2.85244e-19
22.7937 	-0.352024 	0.934644 	2.3672 	-2.85244e-19
22.8638 	-0.352024 	0.934644 	2.3672 	-2.85244e-19
22.9339 	-0.352024 	0.934644 	2.3672 	-2.85244e-19
23.0041 	-0.352024 	0.934644 	2.3672 	-2.85244e-19
23.0742 	-0.352024 	0.934644 	2.3672 	-2.85244e-19
23.1443 	-0.352024 	0.934644 	2.3672 	-2.85244e-19
23.2145 	-0.352024 	0.934644 	2.3672 	-2.85244e-19
23.2846 	-0.352024 	0.934644 	2.3672 	-2.85244e-19
23.3548 	-0.352024 	0.934644 	2.3672 	-2.85244e-19
23.4249 	-0.352024 	0.934644 	2.3672 	-2.85244e-19
23.495 	-0.168955 	0.901179 	2.34228 	3.62095e-20
23.5652 	-0.168955 	0.901179 	2.34228 	3.62095e-20
23.6353 	-0.168955 	0.901179 	2.34228 	3.62095e-20
23.7054 	-0.168955 	0.901179 	2.34228 	3.62095e-20
23.7756 	-0.168955 	0.901179 	2.34228 	3.62095e-20
23.8457 	-0.168955 	0.901179 	2.34228 	3.62095e-20
23.9158 	-0.168955 	0.901179 	2.34228 	3.62095e-20
23.986 	-0.0387856 	0.844514 	2.2254 	-1.79341e-21
24.0561 	-0.0387856 	0.844514 	2.2254 	-1.79341e-21
24.1262 	-0.0387856 	0.844514 	2.2254 	-1.79341e-21
24.1964 	-0.0387856 	0.844514 	2.2254 	-1.79341e-21
24.2665 	-0.0387856 	0.844514 	2.2254 	-1.79341e-21
24.3366 	-0.0387856 	0.844514 	2.2254 	-1.79341e-21
24.4068 	-0.0387856 	0.844514 	2.2254 	-1.79341e-21
24.4769 	-0.0387856 	0.844514 	2.2254 	-1.79341e-21
24.547 	-0.0387856 	0.844514 	2.2254 	-1.79341e-21
24.6172 	-0.0387856 	0.844514 	2.2254 	-1.79341e-21
24.6873 	-0.0387856 	0.844514 	2.2254 	-1.79341e-21
24.7574 	-0.0387856 	0.844514 	2.2254 	-1.79341e-21
24.8276 	-0.0387856 	0.844514 	2.2254 	-1.79341e-21
24.8977 	-0.0387856 	0.844514 	2.2254 	-1.79341e-21
24.9678 	-0.0387856 	0.844514 	2.2254 	-1.79341e-21
25.038 	-0.0387856 	0.844514 	2.2254 	-1.79341e-21
25.1081 	-0.0387856 	0.844514 	2.2254 	-1.79341e-21
25.1782 	-0.091245 	0.495241 	1.37083 	0
25.2484 	-0.091245 	0.495241 	1.37083 	0
25.3185 	-0.091245 	0.495241 	1.37083 	0
25.3886 	-0.091245 	0.495241 	1.37083 	0
25.4588 	-0.091245 	0.495241 	1.37083 	0
25.5289 	-0.091245 	0.495241 	1.37083 	0
25.5991 	-0.091245 	0.495241 	1.37083 	0
25.6692 	-0.091245 	0.495241 	1.37083 	0
25.7393 	-0.091245 	0.495241 	1.37083 	0
25.8095 	-0.091245 	0.495241 	1.37083 	0
25.8796 	-0.091245 	0.495241 	1.37083 	0
25.9497 	-0.091245 	0.495241 	1.37083 	0
26.0199 	-0.091245 	0.495241 	1.37083 	0
26.09 	-0.091245 	0.495241 	1.37083 	0
26.1601 	-0.091245 	0.495241 	1.37083 	0
26.2303 	-0.185373 	0.490098 	1.38085 	4.25599e-19
26.3004 	-0.185373 	0.490098 	1.38085 	4.25599e-19
26.3705 	-0.185373 	0.490098 	1.38085 	4.25599e-19
26.4407 	-0.185373 	0.490098 	1.38085 	4.25599e-19
26.5108 	-0.185373 	0.490098 	1.38085 	4.25599e-19
26.5809 	-0.185373 	0.490098 	1.38085 	4.25599e-19
26.6511 	-0.185373 	0.490098 	1.38085 	4.25599e-19
26.7212 	-0.185373 	0.490098 	1.38085 	4.25599e-19
26.7913 	-0.185373 	0.490098 	1.38085 	4.25599e-19
26.8615 	-0.185373 	0.490098 	1.38085 	4.25599e-19
26.9316 	-0.185373 	0.490098 	1.38085 	4.25599e-19
27.0017 	-0.185373 	0.490098 	1.38085 	4.25599e-19
27.0719 	-0.185373 	0.490098 	1.38085 	4.25599e-19
27.142 	-0.185373 	0.490098 	1.38085 	4.25599e-19
27.2121 	-0.185373 	0.490098 	1.38085 	4.25599e-19
27.2823 	-0.185373 	0.490098 	1.38085 	4.25599e-19
27.3524 	-0.240877 	0.482161 	1.38627 	-4.57236e-19
27.4225 	-0.240877 	0.482161 	1.38627 	-4.57236e-19
27.4927 	-0.240877 	0.482161 	1.38627 	-4.57236e-19
27.5628 	-0.240877 	0.482161 	1.38627 	-4.57236e-19
27.6329 	-0.240877 	0.482161 	1.38627 	-4.57236e-19
27.7031 	-0.240877 	0.482161 	1.38627 	-4.57236e-19
27.7732 	-0.240877 	0.482161 	1.38627 	-4.57236e-19
27.8434 	-0.240877 	0.482161 	1.38627 	-4.57236e-19
27.9135 	-0.240877 	0.482161 	1.38627 	-4.57236e-19
27.9836 	-0.240877 	0.482161 	1.38627 	-4.57236e-19
28.0538 	-0.240877 	0.482161 	1.38627 	-4.57236e-19
28.1239 	-0.240877 	0.482161 	1.38627 	-4.57236e-19
28.194 	-0.240877 	0.482161 	1.38627 	-4.57236e-19
28.2642 	-0.240877 	0.482161 	1.38627 	-4.57236e-19
28.3343 	-0.240877 	0.482161 	1.38627 	-4.57236e-19
28.4044 	-0.240877 	0.482161 	1.38627 	-4.57236e-19
28.4746 	-0.240877 	0.482161 	1.38627 	-4.57236e-19
28.5447 	-0.240877 	0.482161 	1.38627 	-4.57236e-19
28.6148 	-0.240877 	0.482161 	1.38627 	-4.57236e-19
28.685 	-0.240877 	0.482161 	1.38627 	-4.57236e-19
28.7551 	-0.240877 	0.482161 	1.38627 	-4.57236e-19
28.8252 	-0.240877 	0.482161 	1.38627 	-4.57236e-19
28.8954 	-0.240877 	0.482161 	1.38627 	-4.57236e-19
28.9655 	-0.282275 	0.421829 	1.29444 	-2.6179e-20
29.0356 	-0.282275 	0.421829 	1.29444 	-2.6179e-20
29.1058 	-0.282275 	0.421829 	1.29444 	-2.6179e-20
29.1759 	-0.282275 	0.421829 	1.29444 	-2.6179e-20
29.246 	-0.282275 	0.421829 	1.29444 	-2.6179e-20
29.3162 	-0.282275 	0.421829 	1.29444 	-2.6179e-20
29.3863 	-0.282275 	0.421829 	1.29444 	-2.6179e-20
29.4564 	-0.282275 	0.421829 	1.29444 	-2.6179e-20
29.5266 	-0.282275 	0.421829 	1.29444 	-2.6179e-20
29.5967 	-0.282275 	0.421829 	1.29444 	-2.6179e-20
29.6668 	-0.282275 	0.421829 	1.29444 	-2.6179e-20
29.737 	-0.282275 	0.421829 	1.29444 	-2.6179e-20
29.8071 	-0.282275 	0.421829 	1.29444 	-2.6179e-20
29.8773 	-0.282275 	0.421829 	1.29444 	-2.6179e-20
29.9474 	-0.282275 	0.421829 	1.29444 	-2.6179e-20
30.0175 	-0.282275 	0.421829 	1.29444 	-2.6179e-20
30.0877 	-0.282275 	0.421829 	1.29444 	-2.6179e-20
30.1578 	-0.282275 	0.421829 	1.29444 	-2.6179e-20
30.2279 	-0.282275 	0.421829 	1.29444 	-2.6179e-20
30.2981 	-0.282275 	0.421829 	1.29444 	-2.6179e-20
30.3682 	-0.282275 	0.421829 	1.29444 	-2.6179e-20
30.4383 	-0.282275 	0.421829 	1.29444 	-2.6179e-20
30.5085 	-0.282275 	0.421829 	1.29444 	-2.6179e-20
30.5786 	-0.282275 	0.421829 	1.29444 	-2.6179e-20
30.6487 	-0.282275 	0.421829 	1.29444 	-2.6179e-20
30.7189 	-0.282275 	0.421829 	1.29444 	-2.6179e-20
30.789 	-0.283478 	0.362588 	1.28047 	6.52026e-19
30.8591 	-0.283478 	0.362588 	1.28047 	6.52026e-19
30.9293 	-0.283478 	0.362588 	1.28047 	6.52026e-19
30.9994 	-0.283478 	0.362588 	1.28047 	6.52026e-19
31.0695 	-0.283478 	0.362588 	1.28047 	6.52026e-19
31.1397 	-0.283478 	0.362588 	1.28047 	6.52026e-19
31.2098 	-0.283478 	0.362588 	1.28047 	6.52026e-19
31.2799 	-0.283478 	0.362588 	1.28047 	6.52026e-19
31.3501 	-0.283478 	0.362588 	1.28047 	6.52026e-19
31.4202 	-0.283478 	0.362588 	1.28047 	6.52026e-19
31.4903 	-0.283478 	0.362588 	1.28047 	6.52026e-19
31.5605 	-0.283478 	0.362588 	1.28047 	6.52026e-19
31.6306 	-0.283478 	0.362588 	1.28047 	6.52026e-19
31.7007 	-0.283478 	0.362588 	1.28047 	6.52026e-19
31.7709 	-0.283478 	0.362588 	1.28047 	6.52026e-19
31.841 	-0.283478 	0.362588 	1.28047 	6.52026e-19
31.9111 	-0.283478 	0.362588 	1.28047 	6.52026e-19
31.9813 	-0.283478 	0.362588 	1.28047 	6.52026e-19
32.0514 	-0.283478 	0.362588 	1.28047 	6.52026e-19
32.1216 	-0.283478 	0.362588 	1.28047 	6.52026e-19
32.1917 	-0.283478 	0.362588 	1.28047 	6.52026e-19
32.2618 	-0.283478 	0.362588 	1.28047 	6.52026e-19
32.332 	-0.283478 	0.362588 	1.28047 	6.52026e-19
32.4021 	-0.283478 	0.362588 	1.28047 	6.52026e-19
32.4722 	-0.283478 	0.362588 	1.28047 	6.52026e-19
32.5424 	-0.283478 	0.362588 	1.28047 	6.52026e-19
32.6125 	-0.283478 	0.362588 	1.28047 	6.52026e-19
32.6826 	-0.283478 	0.362588 	1.28047 	6.52026e-19
32.7528 	-0.283478 	0.362588 	1.28047 	6.52026e-19
32.8229 	-0.283478 	0.362588 	1.28047 	6.52026e-19
32.893 	-0.283478 	0.362588 	1.28047 	6.52026e-19
32.9632 	-0.283478 	0.362588 	1.28047 	6.52026e-19
33.0333 	-0.283478 	0.362588 	1.28047 	6.52026e-19
33.1034 	-0.283478 	0.362588 	1.28047 	6.52026e-19
33.1736 	-0.283478 	0.362588 	1.28047 	6.52026e-19
33.2437 	-0.283478 	0.362588 	1.28047 	6.52026e-19
33.3138 	-0.283478 	0.362588 	1.28047 	6.52026e-19
33.384 	-0.283478 	0.362588 	1.28047 	6.52026e-19
33.4541 	-0.283478 	0.362588 	1.28047 	6.52026e-19
33.5242 	-0.283478 	0.362588 	1.28047 	6.52026e-19
33.5944 	-0.283478 	0.362588 	1.28047 	6.52026e-19
33.6645 	-0.283478 	0.362588 	1.28047 	6.52026e-19
33.7346 	-0.318844 	0.362579 	1.35198 	-3.96779e-19
33.8048 	-0.318844 	0.362579 	1.35198 	-3.96779e-19
33.8749 	-0.318844 	0.362579 	1.35198 	-3.96779e-19
33.945 	-0.318844 	0.362579 	1.35198 	-3.96779e-19
34.0152 	-0.318844 	0.362579 	1.35198 	-3.96779e-19
34.0853 	-0.318844 	0.362579 	1.35198 	-3.96779e-19
34.1554 	-0.325521 	0.27971 	1.30213 	3.20263e-19
34.2256 	-0.325521 	0.27971 	1.30213 	3.20263e-19
34.2957 	-0.325521 	0.27971 	1.30213 	3.20263e-19
34.3659 	-0.325521 	0.27971 	1.30213 	3.20263e-19
34.436 	-0.325521 	0.27971 	1.30213 	3.20263e-19
34.5061 	-0.325521 	0.27971 	1.30213 	3.20263e-19
34.5763 	-0.325521 	0.27971 	1.30213 	3.20263e-19
34.6464 	-0.325521 	0.27971 	1.30213 	3.20263e-19
34.7165 	-0.122014 	0.252043 	1.62324 	-2.11981e-19
34.7867 	-0.122014 	0.252043 	1.62324 	-2.11981e-19
34.8568 	-0.122014 	0.252043 	1.62324 	-2.11981e-19
34.9269 	-0.122014 	0.252043 	1.62324 	-2.11981e-19
34.9971 	-0.122014 	0.252043 	1.62324 	-2.11981e-19
35.0672 	-0.122014 	0.252043 	1.62324 	-2.11981e-19
35.1373 	-0.122014 	0.252043 	1.62324 	-2.11981e-19
35.2075 	-0.122014 	0.252043 	1.62324 	-2.11981e-19
35.2776 	-0.122014 	0.252043 	1.62324 	-2.11981e-19
35.3477 	-0.122014 	0.252043 	1.62324 	-2.11981e-19
35.4179 	-0.122014 	0.252043 	1.62324 	-2.11981e-19
35.488 	-0.122014 	0.252043 	1.62324 	-2.11981e-19
35.5581 	-0.122014 	0.252043 	1.62324 	-2.11981e-19
35.6283 	-0.122014 	0.252043 	1.62324 	-2.11981e-19
35.6984 	-0.122014 	0.252043 	1.62324 	-2.11981e-19
35.7685 	-0.122014 	0.252043 	1.62324 	-2.11981e-19
35.8387 	-0.122014 	0.252043 	1.62324 	-2.11981e-19
35.9088 	-0.122014 	0.252043 	1.62324 	-2.11981e-19
35.9789 	-0.122014 	0.252043 	1.62324 	-2.11981e-19
36.0491 	-0.142543 	0.252015 	1.58276 	0
36.1192 	-0.142543 	0.252015 	1.58276 	0
36.1893 	-0.142543 	0.252015 	1.58276 	0
36.2595 	-0.142543 	0.252015 	1.58276 	0
36.3296 	-0.142543 	0.252015 	1.58276 	0
36.3997 	-0.142543 	0.252015 	1.58276 	0
36.4699 	-0.142543 	0.252015 	1.58276 	0
36.54 	-0.142543 	0.252015 	1.58276 	0
36.6102 	-0.142543 	0.252015 	1.58276 	0
36.6803 	-0.142543 	0.252015 	1.58276 	0
36.7504 	-0.142543 	0.252015 	1.58276 	0
36.8206 	-0.142543 	0.252015 	1.58276 	0
36.8907 	-0.273104 	0.173307 	1.45042 	-2.47833e-19
36.9608 	-0.273104 	0.173307 	1.45042 	-2.47833e-19
37.031 	-0.273104 	0.173307 	1.45042 	-2.47833e-19
37.1011 	-0.273104 	0.173307 	1.45042 	-2.47833e-19
37.1712 	-0.273104 	0.173307 	1.45042 	-2.47833e-19
37.2414 	-0.273104 	0.173307 	1.45042 	-2.47833e-19
37.3115 	-0.273104 	0.173307 	1.45042 	-2.47833e-19
37.3816 	-0.273104 	0.173307 	1.45042 	-2.47833e-19
37.4518 	-0.273104 	0.173307 	1.45042 	-2.47833e-19
37.5219 	-0.273104 	0.173307 	1.45042 	-2.47833e-19
37.592 	-0.273104 	0.173307 	1.45042 	-2.47833e-19
37.6622 	-0.273104 	0.173307 	1.45042 	-2.47833e-19
37.7323 	-0.273104 	0.173307 	1.45042 	-2.47833e-19
37.8024 	-0.273104 	0.173307 	1.45042 	-2.47833e-19
37.8726 	-0.273104 	0.173307 	1.45042 	-2.47833e-19
37.9427 	-0.273104 	0.173307 	1.45042 	-2.47833e-19
38.0128 	-0.273104 	0.173307 	1.45042 	-2.47833e-19
38.083 	-0.273104 	0.173307 	1.45042 	-2.47833e-19
38.1531 	-0.273104 	0.173307 	1.45042 	-2.47833e-19
38.2232 	-0.243647 	0.129404 	1.60278 	2.8386e-19
38.2934 	-0.243647 	0.129404 	1.60278 	2.8386e-19
38.3635 	-0.243647 	0.129404 	1.60278 	2.8386e-19
38.4336 	-0.243647 	0.129404 	1.60278 	2.8386e-19
38.5038 	-0.243647 	0.129404 	1.60278 	2.8386e-19
38.5739 	-0.243647 	0.129404 	1.60278 	2.8386e-19
38.644 	-0.243647 	0.129404 	1.60278 	2.8386e-19
38.7142 	-0.243647 	0.129404 	1.60278 	2.8386e-19
38.7843 	-0.243647 	0.129404 	1.60278 	2.8386e-19
38.8545 	-0.243647 	0.129404 	1.60278 	2.8386e-19
38.9246 	-0.243647 	0.129404 	1.60278 	2.8386e-19
38.9947 	-0.243647 	0.129404 	1.60278 	2.8386e-19
39.0649 	-0.243647 	0.129404 	1.60278 	2.8386e-19
39.135 	-0.243647 	0.129404 	1.60278 	2.8386e-19
39.2051 	-0.278519 	0.0892725 	1.56387 	0
39.2753 	-0.278519 	0.0892725 	1.56387 	0
39.3454 	-0.278519 	0.0892725 	1.56387 	0
39.4155 	-0.278519 	0.0892725 	1.56387 	0
39.4857 	-0.278519 	0.0892725 	1.56387 	0
39.5558 	-0.278519 	0.0892725 	1.56387 	0
39.6259 	-0.278519 	0.0892725 	1.56387 	0
39.6961 	-0.278519 	0.0892725 	1.56387 	0
39.7662 	-0.278519 	0.0892725 	1.56387 	0
39.8363 	-0.278519 	0.0892725 	1.56387 	0
39.9065 	-0.278519 	0.0892725 	1.56387 	0
39.9766 	-0.278519 	0.0892725 	1.56387 	0
40.0467 	-0.278519 	0.0892725 	1.56387 	0
40.1169 	-0.278519 	0.0892725 	1.56387 	0
40.187 	-0.278519 	0.0892725 	1.56387 	0
40.2571 	-0.278519 	0.0892725 	1.56387 	0
40.3273 	-0.278519 	0.0892725 	1.56387 	0
40.3974 	-0.278519 	0.0892725 	1.56387 	0
40.4675 	-0.278519 	0.0892725 	1.56387 	0
40.5377 	-0.278519 	0.0892725 	1.56387 	0
40.6078 	-0.278519 	0.0892725 	1.56387 	0
40.6779 	-0.283721 	0.100791 	1.48621 	1.60708e-19
40.7481 	-0.283721 	0.100791 	1.48621 	1.60708e-19
40.8182 	-0.283721 	0.100791 	1.48621 	1.60708e-19
40.8883 	-0.283721 	0.100791 	1.48621 	1.60708e-19
40.9585 	-0.283721 	0.100791 	1.48621 	1.60708e-19
41.0286 	-0.283721 	0.100791 	1.48621 	1.60708e-19
41.0988 	-0.283721 	0.100791 	1.48621 	1.60708e-19
41.1689 	-0.283721 	0.100791 	1.48621 	1.60708e-19
41.239 	-0.272111 	0.0882464 	1.50702 	-2.92681e-19
41.3092 	-0.272111 	0.0882464 	1.50702 	-2.92681e-19
41.3793 	-0.272111 	0.0882464 	1.50702 	-2.92681e-19
41.4494 	-0.272111 	0.0882464 	1.50702 	-2.92681e-19
41.5196 	-0.272111 	0.0882464 	1.50702 	-2.92681e-19
41.5897 	-0.272111 	0.0882464 	1.50702 	-2.92681e-19
41.6598 	-0.272111 	0.0882464 	1.50702 	-2.92681e-19
41.73 	-0.272111 	0.0882464 	1.50702 	-2.92681e-19
41.8001 	-0.272111 	0.0882464 	1.50702 	-2.92681e-19
41.8702 	-0.272111 	0.0882464 	1.50702 	-2.92681e-19
41.9404 	-0.272111 	0.0882464 	1.50702 	-2.92681e-19
42.0105 	-0.272111 	0.0882464 	1.50702 	-2.92681e-19
42.0806 	-0.272111 	0.0882464 	1.50702 	-2.92681e-19
42.1508 	-0.272111 	0.0882464 	1.50702 	-2.92681e-19
42.2209 	-0.272111 	0.0882464 	1.50702 	-2.92681e-19
42.291 	-0.272111 	0.0882464 	1.50702 	-2.92681e-19
42.3612 	-0.272111 	0.0882464 	1.50702 	-2.92681e-19
42.4313 	-0.272111 	0.0882464 	1.50702 	-2.92681e-19
42.5014 	-0.272111 	0.0882464 	1.50702 	-2.92681e-19
42.5716 	-0.272111 	0.0882464 	1.50702 	-2.92681e-19
42.6417 	-0.272111 	0.0882464 	1.50702 	-2.92681e-19
42.7118 	-0.292158 	0.120452 	1.51033 	0
42.782 	-0.292158 	0.120452 	1.51033 	0
42.8521 	-0.292158 	0.120452 	1.51033 	0
42.9222 	-0.292158 	0.120452 	1.51033 	0
42.9924 	-0.279612 	0.0836897 	1.60213 	0
43.0625 	-0.279612 	0.0836897 	1.60213 	0
43.1327 	-0.279612 	0.0836897 	1.60213 	0