/*--------------------------------*- C++ -*----------------------------------*\
| =========                 |                                                 |
| \\      /  F ield         | OpenFOAM: The Open Source CFD Toolbox           |
|  \\    /   O peration     | Version:  2306                                  |
|   \\  /    A nd           | Website:  www.openfoam.com                      |
|    \\/     M anipulation  |                                                 |
\*---------------------------------------------------------------------------*/
FoamFile
{
    version     2.0;
    format      ascii;
    arch        "LSB;label=32;scalar=64";
    class       surfaceScalarField;
    location    "72";
    object      phi;
}
// * * * * * * * * * * * * * * * * * * * * * * * * * * * * * * * * * * * * * //

dimensions      [0 3 -1 0 0 0 0];

oriented        oriented;

internalField   nonuniform List<scalar> 
17370
(
-0.0910979
0.0935439
0.286565
-0.0749523
0.0569517
0.364776
-0.0409343
0.0299499
0.427153
-0.0211947
0.0155944
0.504852
-0.0113446
0.0086453
0.602101
-0.0065129
0.00505993
0.72051
-0.00384066
0.00296905
0.863778
-0.00220126
0.00162574
1.03603
-0.00109577
0.000675548
1.24292
-0.000264619
-0.000130628
1.49159
0.000517535
-0.000931396
1.4916
0.00133639
-0.00183952
1.24319
0.00238516
-0.00311905
1.03637
0.00396451
-0.00516409
0.864106
0.00660627
-0.00873074
0.721182
0.0114226
-0.0156621
0.603454
0.0212514
-0.0299938
0.508182
0.040966
-0.0569732
0.432175
0.0749691
-0.0935536
0.36536
0.0911122
0.197899
-0.127349
0.0881493
0.0392001
-0.36474
0.353795
-0.0726228
0.0835669
-0.446567
0.454373
-0.0816982
0.0738927
-0.520973
0.529529
-0.0657816
0.0572255
-0.612852
0.621021
-0.0494719
0.0413029
-0.727003
0.733795
-0.0343729
0.0275813
-0.867517
0.872457
-0.0222358
0.0172958
-1.03855
1.04191
-0.0135733
0.0102177
-1.24472
1.24713
-0.0076596
0.0052445
-1.49284
1.49486
-0.00327428
0.00125488
-1.49269
1.49451
0.000567661
-0.0023904
-1.2441
1.24602
0.00436903
-0.00628606
-1.0376
1.04008
0.00862772
-0.0111083
-0.866158
0.869802
0.0143732
-0.0180171
-0.724477
0.729767
0.0228836
-0.0281738
-0.608885
0.615769
0.0349127
-0.0417967
-0.514987
0.522692
0.0499144
-0.0576187
-0.439772
0.447824
0.0661136
-0.0741657
-0.375152
0.376999
0.0818985
-0.0837462
-0.256912
0.223412
0.0727477
-0.0392481
-0.0686606
0.0589337
0.00972698
-0.0520585
0.0587492
-0.374551
0.36786
-0.0578579
0.054027
-0.453836
0.457666
-0.0486647
0.0443211
-0.527751
0.532095
-0.0400929
0.0363055
-0.621113
0.6249
-0.0320756
0.0279975
-0.734888
0.738966
-0.0235169
0.0195168
-0.87406
0.87806
-0.015372
0.0118488
-1.04341
1.04693
-0.0082739
0.00520336
-1.24867
1.25174
-0.00196237
-0.0010428
-1.49695
1.49996
0.00402582
-0.00720443
-1.49743
1.5006
0.0101836
-0.0136317
-1.25009
1.25354
0.0170228
-0.021013
-1.04572
1.04971
0.0248771
-0.0292248
-0.877307
0.881654
0.0331963
-0.0373212
-0.739301
0.743425
0.0410202
-0.0451592
-0.626331
0.63047
0.049427
-0.0547157
-0.534927
0.540216
0.0584652
-0.0592545
-0.457911
0.4587
0.0524341
-0.0320493
-0.336381
0.315996
0.00978988
-0.0684919
0.0587021
-0.053178
0.0491322
0.00404572
-0.0331423
0.0436239
-0.358397
0.347916
-0.0473312
0.046737
-0.459528
0.460123
-0.043753
0.0404765
-0.536043
0.53932
-0.0367576
0.0334138
-0.628467
0.63181
-0.0298384
0.0266772
-0.742284
0.745445
-0.0233152
0.0201361
-0.881605
0.884784
-0.0165257
0.0131352
-1.05043
1.05382
-0.00938743
0.00593835
-1.25505
1.2585
-0.0021025
-0.00155324
-1.50334
1.507
0.00517657
-0.00891806
-1.50413
1.50787
0.0122381
-0.0158065
-1.25714
1.26071
0.0190088
-0.022399
-1.05347
1.05686
0.0253841
-0.0285555
-0.885258
0.888429
0.0315629
-0.0349861
-0.746909
0.750332
0.0382012
-0.0417869
-0.634478
0.638064
0.0449482
-0.0478026
-0.544438
0.547292
0.0482611
-0.0443637
-0.456859
0.452961
0.0336543
-0.0162771
-0.296611
0.279234
0.00412239
-0.0528777
0.0487553
-0.0460146
0.0434941
0.0025205
-0.0228941
0.0332441
-0.33729
0.32694
-0.0390099
0.0399838
-0.459842
0.458868
-0.0387556
0.0364467
-0.541999
0.544308
-0.0337942
0.0312201
-0.634815
0.637389
-0.0281998
0.0253284
-0.74852
0.751391
-0.02208
0.0190712
-0.887798
0.890807
-0.0157393
0.0126162
-1.057
1.06012
-0.00905496
0.00563547
-1.26193
1.26535
-0.00169561
-0.0021319
-1.51077
1.51459
0.00591727
-0.0097285
-1.51168
1.51549
0.0129753
-0.0163001
-1.26417
1.2675
0.0191774
-0.0222225
-1.06003
1.06307
0.0249761
-0.0279687
-0.891563
0.894556
0.03063
-0.0334404
-0.753508
0.756319
0.0358375
-0.0383107
-0.641057
0.64353
0.0404667
-0.0414938
-0.549098
0.550126
0.0403097
-0.0342371
-0.447748
0.441676
0.0235515
-0.0103096
-0.264031
0.250789
0.00261493
-0.045552
0.042937
-0.0414009
0.0396201
0.00178075
-0.0168209
0.0260754
-0.317091
0.307837
-0.0326634
0.0347827
-0.457298
0.455179
-0.0343448
0.0326495
-0.546321
0.548016
-0.030433
0.0283129
-0.6397
0.64182
-0.0258719
0.023476
-0.75402
0.756416
-0.0206297
0.0178568
-0.893681
0.896454
-0.0146478
0.0115977
-1.06317
1.06622
-0.00812157
0.0047981
-1.26868
1.272
-0.000949763
-0.0028074
-1.51838
1.52214
0.00650932
-0.0101956
-1.51923
1.52292
0.0133003
-0.0164771
-1.27074
1.27392
0.0192149
-0.0220575
-1.06609
1.06893
0.0245009
-0.027015
-0.89734
0.899855
0.0291386
-0.0313096
-0.758754
0.760925
0.0332039
-0.0351898
-0.645712
0.647698
0.0366626
-0.0368264
-0.550669
0.550833
0.0343846
-0.0273477
-0.435032
0.427995
0.0176416
-0.00745708
-0.239221
0.229037
0.00189613
-0.0407391
0.038843
-0.0380869
0.0367499
0.00133706
-0.0128397
0.0207951
-0.299235
0.29128
-0.0275361
0.0304439
-0.452633
0.449725
-0.0306367
0.0295022
-0.549459
0.550593
-0.0274936
0.0255592
-0.643876
0.64581
-0.023339
0.0211885
-0.758664
0.760814
-0.0186668
0.0161798
-0.899028
0.901515
-0.0132333
0.0103535
-1.06914
1.07202
-0.00699918
0.0037653
-1.27525
1.27848
-2.01058e-05
-0.0036133
-1.52581
1.52944
0.00717883
-0.0107199
-1.52652
1.53006
0.0136802
-0.0166606
-1.27702
1.28
0.0191486
-0.0216341
-1.07166
1.07414
0.0237089
-0.0258146
-0.902145
0.904251
0.0276214
-0.0294983
-0.762928
0.764804
0.031147
-0.0328776
-0.649535
0.651266
0.0336876
-0.0331117
-0.55063
0.550054
0.0297426
-0.0223867
-0.420741
0.413385
0.0138507
-0.00578048
-0.22001
0.211939
0.00147754
-0.0371821
0.0357046
-0.0355825
0.0345542
0.00102832
-0.0100227
0.016746
-0.283965
0.277241
-0.0232227
0.0265826
-0.44657
0.44321
-0.0273475
0.0266379
-0.551506
0.552215
-0.02486
0.0230623
-0.647714
0.649512
-0.0209808
0.0189558
-0.762899
0.764925
-0.0165744
0.0142385
-0.903861
0.906197
-0.0114908
0.00879498
-1.07474
1.07744
-0.00562259
0.00252847
-1.28161
1.2847
0.00107946
-0.00458229
-1.53299
1.53649
0.00800042
-0.0113567
-1.5335
1.53685
0.014111
-0.0168205
-1.28286
1.28557
0.0190337
-0.0212139
-1.07652
1.0787
0.0230409
-0.024907
-0.90624
0.908106
0.0265059
-0.0281612
-0.766561
0.768217
0.0296044
-0.0309989
-0.65285
0.654245
0.031305
-0.0299962
-0.549126
0.547817
0.0260008
-0.0187145
-0.406038
0.398752
0.0112616
-0.00466977
-0.204678
0.198086
0.00119915
-0.0343821
0.0331829
-0.0336518
0.0328526
0.000799187
-0.00793166
0.0135769
-0.271085
0.26544
-0.0195664
0.0231215
-0.439741
0.436185
-0.0243612
0.0238961
-0.552832
0.553297
-0.0223854
0.0206953
-0.651303
0.652993
-0.0187077
0.0167687
-0.766902
0.768841
-0.0144824
0.012236
-0.908425
0.910672
-0.0095916
0.00700802
-1.08001
1.08259
-0.00398259
0.00102981
-1.28768
1.29063
0.00241471
-0.00575463
-1.53989
1.54323
0.00899157
-0.0121272
-1.54008
1.54321
0.0146621
-0.017124
-1.28815
1.29061
0.0191176
-0.0210653
-1.08084
1.08279
0.0226867
-0.0243403
-0.909876
0.911529
0.0257559
-0.0272188
-0.769768
0.77123
0.0284665
-0.0294796
-0.655433
0.656446
0.0294116
-0.0274301
-0.546174
0.544193
0.023026
-0.0159978
-0.391589
0.384561
0.00944621
-0.00390304
-0.192068
0.186525
0.00100681
-0.0320919
0.0310851
-0.0321511
0.0315294
0.000621654
-0.0063175
0.0110407
-0.260283
0.25556
-0.0164361
0.0199888
-0.432629
0.429076
-0.021549
0.0213071
-0.553684
0.553925
-0.0200263
0.0183954
-0.654698
0.656329
-0.0164621
0.014571
-0.77075
0.772641
-0.012342
0.0101535
-0.912817
0.915005
-0.00757818
0.00506506
-1.08506
1.08758
-0.00213017
-0.000710479
-1.29347
1.29631
0.00400903
-0.00718167
-1.54645
1.54962
0.0102268
-0.0131453
-1.54621
1.54913
0.0154829
-0.0177315
-1.29297
1.29522
0.0195263
-0.0212521
-1.08472
1.08645
0.0226778
-0.024134
-0.91309
0.914546
0.0253842
-0.0266719
-0.772598
0.773886
0.0277727
-0.0283631
-0.657247
0.657837
0.0279218
-0.0253711
-0.54194
0.539389
0.0207126
-0.0140071
-0.377703
0.370998
0.00816548
-0.00336972
-0.181393
0.176597
0.000873794
-0.0301546
0.0292808
-0.0309875
0.0305098
0.000477692
-0.00501698
0.00894413
-0.25126
0.247333
-0.0137002
0.0171009
-0.425605
0.422205
-0.0188409
0.0187866
-0.554112
0.554166
-0.0176985
0.016101
-0.658006
0.659603
-0.0141886
0.0123108
-0.774515
0.776393
-0.0100983
0.00793137
-0.917099
0.919266
-0.00539091
0.00292308
-1.08998
1.09245
-5.83912e-05
-0.00271274
-1.29906
1.30183
0.00589398
-0.00891911
-1.55268
1.55571
0.0117895
-0.0145084
-1.55192
1.55464
0.0166597
-0.0187002
-1.29736
1.2994
0.0202984
-0.0218066
-1.08818
1.08969
0.023047
-0.0243226
-0.915914
0.917189
0.0254241
-0.026552
-0.775084
0.776212
0.0274571
-0.0276724
-0.658237
0.658452
0.0268199
-0.023786
-0.536609
0.533575
0.0189694
-0.0125765
-0.364466
0.358073
0.00727268
-0.00300469
-0.172097
0.167829
0.000784319
-0.0284607
0.0276764
-0.0300999
0.0297442
0.000355751
-0.00392609
0.00715305
-0.243779
0.240552
-0.0112574
0.0143959
-0.418947
0.415809
-0.0161889
0.0162844
-0.554191
0.554096
-0.0152761
0.0137485
-0.661239
0.662766
-0.0118292
0.00993202
-0.778266
0.780163
-0.0076973
0.00551639
-0.921344
0.923524
-0.00297301
0.000517071
-1.09482
1.09728
0.00232374
-0.00503898
-1.3045
1.30722
0.00813039
-0.0110346
-1.55863
1.56154
0.0137517
-0.0162842
-1.55723
1.55976
0.018255
-0.0200913
-1.30133
1.30317
0.0214962
-0.0227902
-1.09124
1.09253
0.0238503
-0.0249524
-0.918375
0.919477
0.0259104
-0.0268711
-0.777246
0.778207
0.0275143
-0.0274392
-0.658537
0.658462
0.0261393
-0.0226672
-0.530332
0.52686
0.017733
-0.0115951
-0.351833
0.345695
0.0066773
-0.00276797
-0.163769
0.15986
0.000728385
-0.0269289
0.0262005
-0.0294491
0.0292023
0.000246816
-0.0029685
0.00556268
-0.237662
0.235068
-0.00901524
0.0118081
-0.412861
0.410068
-0.0135395
0.0137122
-0.554013
0.55384
-0.0127428
0.0112556
-0.664355
0.665842
-0.00930618
0.00736016
-0.782063
0.784009
-0.00506738
0.00283822
-0.925619
0.927848
-0.000255422
-0.00223123
-1.09964
1.10213
0.00507839
-0.00777491
-1.30985
1.31255
0.0108089
-0.0136172
-1.56435
1.56716
0.0161994
-0.0185575
-1.56217
1.56452
0.0203553
-0.0219927
-1.30489
1.30653
0.0232043
-0.0242792
-1.09389
1.09497
0.0251535
-0.0260787
-0.920483
0.921408
0.0268918
-0.0276859
-0.779053
0.779847
0.0280391
-0.0276659
-0.658241
0.657868
0.0259071
-0.0220089
-0.523198
0.519299
0.0169557
-0.0109875
-0.339676
0.333708
0.00632044
-0.00263329
-0.15609
0.152403
0.000699187
-0.0254957
0.0247966
-0.0290131
0.0288698
0.000143291
-0.00208062
0.00408014
-0.23279
0.23079
-0.00687595
0.00925305
-0.407505
0.405128
-0.0108144
0.0109848
-0.553731
0.553561
-0.0100198
0.00853402
-0.667427
0.668913
-0.00652679
0.00450145
-0.785962
0.787987
-0.00211419
-0.000194898
-0.929993
0.932302
0.00286781
-0.00541467
-1.10453
1.10708
0.00830772
-0.011018
-1.31517
1.31788
0.014026
-0.0167611
-1.56988
1.57261
0.0192234
-0.021416
-1.56675
1.56895
0.0230445
-0.0244834
-1.30805
1.30949
0.0254947
-0.0263369
-1.09615
1.09699
0.027013
-0.0277443
-0.922223
0.922954
0.0284028
-0.0290542
-0.780502
0.781153
0.0290897
-0.0283242
-0.657292
0.656526
0.0261051
-0.0217845
-0.515237
0.510916
0.0165855
-0.0106913
-0.327816
0.321922
0.00615666
-0.00258037
-0.148799
0.145222
0.00069134
-0.0241106
0.0234192
-0.0287843
0.0287455
3.88152e-05
-0.00121483
0.0026342
-0.229097
0.227678
-0.00475958
0.00665713
-0.403017
0.401119
-0.00794395
0.00802893
-0.553508
0.553423
-0.00702086
0.00549859
-0.670536
0.672058
-0.00339423
0.00125547
-0.790024
0.792163
0.00126803
-0.00370334
-0.934535
0.93697
0.00649839
-0.0091453
-1.10955
1.11219
0.0121257
-0.0148854
-1.32053
1.32329
0.0179007
-0.0205861
-1.57527
1.57795
0.0229426
-0.0249755
-1.57101
1.57304
0.0264351
-0.0276711
-1.31079
1.31203
0.0284763
-0.0290828
-1.09798
1.09858
0.0295544
-0.0300801
-0.923571
0.924097
0.0305683
-0.0310017
-0.781582
0.782016
0.0307473
-0.0295077
-0.655561
0.654321
0.0267937
-0.0220165
-0.506435
0.501657
0.0166112
-0.0106791
-0.316056
0.310124
0.00616399
-0.00259943
-0.141681
0.138117
0.000702396
-0.0227323
0.0220299
-0.0287659
0.0288348
-6.88877e-05
-0.000332511
0.00116376
-0.226565
0.225734
-0.00258866
0.00393983
-0.39952
0.398169
-0.00484788
0.00476159
-0.553517
0.553603
-0.00365168
0.00203961
-0.673769
0.675381
0.000197457
-0.00248988
-0.794317
0.796609
0.00519633
-0.00779855
-0.939323
0.941926
0.0107685
-0.01356
-1.11477
1.11756
0.0166731
-0.019519
-1.32599
1.32884
0.0225753
-0.0252334
-1.58056
1.58322
0.0274967
-0.029372
-1.57493
1.57681
0.0306583
-0.0316839
-1.31311
1.31413
0.0322778
-0.0326411
-1.09936
1.09972
0.0328989
-0.0332061
-0.924499
0.924806
0.0334995
-0.033633
-0.782128
0.782261
0.0330663
-0.0312746
-0.652893
0.651102
0.0280104
-0.0227171
-0.496713
0.49142
0.0170232
-0.0109318
-0.304168
0.298076
0.00632733
-0.00268317
-0.134543
0.130899
0.000730191
-0.0213241
0.0205939
-0.0289732
0.029161
-0.000187731
0.000592621
-0.000383788
-0.225216
0.225007
-0.000288403
0.00101528
-0.397141
0.396414
-0.0014377
0.00109923
-0.553937
0.554275
0.000163457
-0.00194481
-0.67724
0.679021
0.00438132
-0.00688116
-0.798928
0.801428
0.00982438
-0.0126423
-0.944448
0.947266
0.0158408
-0.0188251
-1.1203
1.12328
0.0221199
-0.0250913
-1.33164
1.33461
0.0282226
-0.0308736
-1.58581
1.58846
0.0330504
-0.0347633
-1.57854
1.58025
0.035871
-0.0366735
-1.31497
1.31577
0.0370455
-0.0371508
-1.10026
1.10036
0.0371776
-0.0372503
-0.92497
0.925043
0.0373468
-0.0370926
-0.782031
0.781777
0.0361324
-0.0337138
-0.649142
0.646723
0.0298218
-0.0239178
-0.485933
0.480029
0.0178261
-0.0114405
-0.291899
0.285514
0.00663699
-0.00282622
-0.127204
0.123393
0.00077302
-0.0198533
0.0190803
-0.0294335
0.0297709
-0.000337449
0.00164115
-0.00207251
-0.22514
0.225572
0.00225005
-0.00225429
-0.396016
0.396021
0.00245339
-0.00316026
-0.554991
0.555698
0.00466637
-0.00665008
-0.681098
0.683082
0.00933181
-0.0120885
-0.803946
0.806702
0.0153303
-0.0184221
-0.950009
0.953101
0.0219118
-0.0251423
-1.12621
1.12944
0.0286715
-0.031808
-1.33754
1.34068
0.0350464
-0.0377064
-1.59104
1.5937
0.0397976
-0.0413339
-1.5818
1.58334
0.0422405
-0.0428098
-1.31634
1.31691
0.0429493
-0.042773
-1.10062
1.10044
0.0425445
-0.0423662
-0.92493
0.924751
0.0422517
-0.0415117
-0.781123
0.780383
0.0400688
-0.0369131
-0.644152
0.640996
0.0322824
-0.0256378
-0.473894
0.467249
0.0190163
-0.0121918
-0.278978
0.272154
0.00708041
-0.00302135
-0.119493
0.115434
0.000828377
-0.018291
0.0174627
-0.0301791
0.0306961
-0.000516999
0.00293983
-0.00414298
-0.226409
0.227613
0.00519425
-0.00600419
-0.396364
0.397174
0.00692924
-0.00810774
-0.556906
0.558085
0.00994734
-0.0122162
-0.685444
0.687713
0.0152341
-0.0183248
-0.809484
0.812574
0.0219441
-0.0253777
-0.956124
0.959558
0.0292282
-0.0327628
-1.13263
1.13617
0.03658
-0.0399193
-1.34378
1.34712
0.04329
-0.0459647
-1.59629
1.59896
0.0479598
-0.0493019
-1.58469
1.58604
0.0499759
-0.050295
-1.31718
1.3175
0.0501808
-0.049701
-1.1004
1.09992
0.0491987
-0.0487525
-0.924323
0.923877
0.0483025
-0.0470971
-0.779281
0.778076
0.0450118
-0.0409739
-0.63769
0.633652
0.0354578
-0.0279037
-0.460319
0.452765
0.0205951
-0.0131743
-0.26511
0.257689
0.00764523
-0.00326093
-0.111248
0.106864
0.000893542
-0.0166135
0.01572
-0.0312837
0.0320249
-0.00074115
0.00445684
-0.00655123
-0.229228
0.231323
0.00868021
-0.0104055
-0.398394
0.400119
0.012164
-0.0139329
-0.559938
0.561707
0.0162417
-0.0188987
-0.690446
0.693103
0.0223641
-0.0258742
-0.815696
0.819206
0.0299615
-0.0338158
-0.962933
0.966788
0.0381061
-0.0420063
-1.13967
1.14357
0.0461635
-0.0497352
-1.35042
1.354
0.0532485
-0.0559263
-1.60155
1.60423
0.0577966
-0.058904
-1.58718
1.58828
0.0593081
-0.0593362
-1.31743
1.31745
0.0589441
-0.0581369
-1.09953
1.09872
0.0573357
-0.0565915
-0.923103
0.922359
0.0557283
-0.0539843
-0.776548
0.774804
0.0511142
-0.0459963
-0.629453
0.624335
0.039398
-0.0307199
-0.444854
0.436176
0.0225417
-0.0143589
-0.249975
0.241792
0.00830676
-0.00353114
-0.102321
0.0975453
0.000963801
-0.0148032
0.0138394
-0.0328307
0.0338642
-0.00103355
0.0063611
-0.00952082
-0.23384
0.237
0.0129228
-0.015714
-0.402374
0.405165
0.0184478
-0.0209353
-0.564365
0.566853
0.0238605
-0.0270293
-0.696322
0.69949
0.0310747
-0.0351165
-0.822754
0.826796
0.039781
-0.0441441
-0.970597
0.974961
0.0489561
-0.0532787
-1.14745
1.15177
0.0578137
-0.0616272
-1.35752
1.36134
0.0652646
-0.0679035
-1.60679
1.60943
0.0695939
-0.0704039
-1.58915
1.58996
0.0704769
-0.0701564
-1.31695
1.31663
0.0694641
-0.0682895
-1.09794
1.09677
0.0671525
-0.0661159
-0.921223
0.920187
0.064718
-0.062339
-0.772753
0.770374
0.0584981
-0.0520413
-0.619038
0.612582
0.0441104
-0.0340491
-0.427059
0.416998
0.0247994
-0.0156891
-0.233244
0.224134
0.00902251
-0.00380985
-0.0925885
0.0873758
0.00103202
-0.0128532
0.0118211
-0.0349472
0.0363844
-0.00143723
0.0088484
-0.0133689
-0.240571
0.245092
0.0182694
-0.0223005
-0.408671
0.412702
0.0261732
-0.0295313
-0.570519
0.573877
0.0332512
-0.0370943
-0.70334
0.707183
0.0418867
-0.0465927
-0.830878
0.835584
0.0519557
-0.0569177
-0.979295
0.984257
0.0623233
-0.0671032
-1.15607
1.16085
0.0720173
-0.0760401
-1.36507
1.3691
0.0797315
-0.0822413
-1.6119
1.61441
0.0836528
-0.0840658
-1.59048
1.59089
0.0837476
-0.0829934
-1.31566
1.3149
0.0819416
-0.0803822
-1.09554
1.09398
0.0789255
-0.0774599
-0.918648
0.917182
0.0755469
-0.0722899
-0.767648
0.764391
0.0672376
-0.0591109
-0.605909
0.597782
0.0495332
-0.0377844
-0.406407
0.394659
0.0272516
-0.0170666
-0.214597
0.204412
0.0097249
-0.00406449
-0.0819758
0.0763154
0.00108838
-0.010772
0.00968361
-0.0378341
0.0398445
-0.0020104
0.0123048
-0.018557
-0.249941
0.256193
0.0252574
-0.0307348
-0.417783
0.42326
0.0359572
-0.0403824
-0.578792
0.583217
0.0451061
-0.0498272
-0.711845
0.716566
0.0555784
-0.0610986
-0.840325
0.845845
0.0672801
-0.0729096
-0.989199
0.994829
0.0789358
-0.084151
-1.16558
1.17079
0.0893704
-0.0934951
-1.37298
1.3771
0.0970876
-0.0993063
-1.61666
1.61888
0.100281
-0.10015
-1.59092
1.59079
0.0993491
-0.0980481
-1.31341
1.31211
0.0965859
-0.0946246
-1.09227
1.09031
0.0928065
-0.090795
-0.915064
0.913052
0.0883337
-0.0839446
-0.760705
0.756316
0.0773458
-0.0671122
-0.589365
0.579132
0.0554989
-0.0417208
-0.382297
0.368518
0.0297033
-0.0183423
-0.193767
0.182406
0.0103181
-0.00425176
-0.0704868
0.0644205
0.00112055
-0.00858899
0.00746844
-0.0418152
0.0447107
-0.00289554
0.0173301
-0.0258454
-0.262691
0.271206
0.0347739
-0.041995
-0.430379
0.4376
0.0488449
-0.0545516
-0.589674
0.59538
0.0606005
-0.0664865
-0.722262
0.728148
0.0733985
-0.0798441
-0.851374
0.85782
0.0868984
-0.0931783
-1.00042
1.0067
0.0997355
-0.105246
-1.17587
1.18138
0.110563
-0.114565
-1.38096
1.38496
0.117785
-0.119452
-1.6207
1.62237
0.119754
-0.118877
-1.59017
1.5893
0.117435
-0.1155
-1.31
1.30806
0.113573
-0.111178
-1.08804
1.08565
0.108974
-0.106312
-0.910212
0.90755
0.103125
-0.0972239
-0.751347
0.745446
0.0886273
-0.0757463
-0.568499
0.555618
0.0616507
-0.0455002
-0.354082
0.337932
0.0318493
-0.0193039
-0.170608
0.158063
0.0106753
-0.00431831
-0.0582434
0.0518863
0.00111421
-0.00635852
0.00524432
-0.0474708
0.0518649
-0.00439412
0.025098
-0.0366924
-0.279984
0.291578
0.0485239
-0.0580718
-0.447497
0.457045
0.0669561
-0.0741669
-0.603765
0.610976
0.0817862
-0.0892051
-0.734965
0.742384
0.0973363
-0.104631
-0.864229
0.871524
0.11239
-0.119096
-1.01284
1.01954
0.125863
-0.131327
-1.18658
1.19205
0.136328
-0.139812
-1.38849
1.39197
0.142222
-0.142956
-1.62344
1.62417
0.142262
-0.140391
-1.5878
1.58593
0.138141
-0.135459
-1.30524
1.30255
0.132982
-0.130127
-1.08273
1.07987
0.127403
-0.124098
-0.903951
0.900645
0.119819
-0.111849
-0.738733
0.730764
0.100627
-0.0844499
-0.542163
0.525986
0.0674119
-0.0486191
-0.321171
0.302378
0.0333012
-0.0197085
-0.145214
0.131622
0.0106626
-0.00421169
-0.0455266
0.0390757
0.00105544
-0.00416159
0.00310615
-0.0558871
0.0634121
-0.00752498
0.0387201
-0.0548081
-0.303988
0.320076
0.0707115
-0.083481
-0.470783
0.483552
0.0945564
-0.103169
-0.621512
0.630124
0.112322
-0.121031
-0.750348
0.759057
0.130107
-0.137826
-0.878582
0.886301
0.145693
-0.15221
-1.02583
1.03235
0.158498
-0.163267
-1.19688
1.20165
0.167274
-0.169624
-1.39467
1.39702
0.17065
-0.169996
-1.62404
1.62338
0.167947
-0.164785
-1.58329
1.58012
0.161513
-0.157916
-1.29887
1.29527
0.154806
-0.151473
-1.07619
1.07286
0.148196
-0.143967
-0.895986
0.891757
0.138043
-0.127171
-0.721595
0.710724
0.11247
-0.0922491
-0.508926
0.488706
0.0719837
-0.0505235
-0.283195
0.261735
0.0337261
-0.0194148
-0.118056
0.103745
0.0102287
-0.00392321
-0.0328003
0.0264949
0.000941396
-0.00210276
0.00116136
-0.0704098
0.0745798
-0.00417001
0.0296001
-0.0435853
-0.338712
0.352698
0.0577314
-0.069463
-0.501672
0.513404
0.0799929
-0.0898451
-0.64254
0.652393
0.10089
-0.111041
-0.767257
0.777408
0.122333
-0.13241
-0.893108
0.903185
0.143184
-0.152807
-1.03793
1.04755
0.162911
-0.171625
-1.20535
1.21406
0.180364
-0.187431
-1.39823
1.4053
0.193876
-0.198289
-1.62157
1.62598
0.200657
-0.201583
-1.57598
1.57691
0.201344
-0.200545
-1.29056
1.28976
0.199956
-0.19888
-1.06818
1.06711
0.197282
-0.192963
-0.885476
0.881157
0.184479
-0.167734
-0.698063
0.681318
0.144967
-0.11503
-0.467369
0.437433
0.0867783
-0.0584904
-0.240293
0.212005
0.0376973
-0.020952
-0.0901332
0.0733879
0.0106757
-0.00394343
-0.0206837
0.0139514
0.000905609
-0.000285951
-0.000619658
-0.0820052
0.0799987
0.00200654
0.00760815
-0.0168818
-0.369463
0.378737
0.0276802
-0.0360406
-0.529842
0.538203
0.0445104
-0.0528192
-0.664856
0.673165
0.0629711
-0.0724556
-0.787154
0.796639
0.0825947
-0.0918675
-0.912695
0.921968
0.101749
-0.110231
-1.05689
1.06538
0.119325
-0.126803
-1.22259
1.23007
0.134256
-0.140011
-1.41208
1.41783
0.144739
-0.147647
-1.62964
1.63255
0.148564
-0.148067
-1.57723
1.57673
0.146399
-0.144075
-1.2881
1.28577
0.142047
-0.139849
-1.06343
1.06123
0.137155
-0.131581
-0.872348
0.866774
0.122319
-0.106872
-0.66049
0.645043
0.0885594
-0.0667558
-0.405791
0.383987
0.0481581
-0.0313604
-0.184396
0.167598
0.0198326
-0.0109693
-0.0577568
0.0488935
0.00562205
-0.0020883
-0.00752481
0.00399106
0.000417161
0.00161998
-0.00203714
-0.083444
0.0804489
0.0029951
-0.00173315
-0.00364314
-0.390297
0.395673
0.0110109
-0.0170887
-0.550739
0.556817
0.0233589
-0.0306454
-0.683723
0.691009
0.0394481
-0.0476862
-0.805189
0.813427
0.0567067
-0.0647913
-0.930471
0.938555
0.0731544
-0.0806955
-1.07367
1.08121
0.0885567
-0.0950955
-1.23709
1.24363
0.101134
-0.105567
-1.42289
1.42732
0.109142
-0.110766
-1.63474
1.63636
0.110436
-0.10873
-1.57564
1.57393
0.10611
-0.102932
-1.28303
1.27985
0.0996497
-0.0962074
-1.05647
1.05303
0.0924782
-0.0867036
-0.857211
0.851436
0.0781975
-0.065294
-0.626637
0.613733
0.0517493
-0.0372434
-0.360636
0.34613
0.0263145
-0.0172612
-0.150625
0.141572
0.0112458
-0.00658782
-0.0401663
0.0355083
0.00358272
-0.00133415
-0.000524815
-0.00172375
0.000306819
0.00268853
-0.00299535
-0.0821092
0.0792632
0.00284602
-0.00551388
0.00294998
-0.404205
0.406769
0.0018034
-0.00641887
-0.566185
0.570801
0.0117184
-0.0178252
-0.699285
0.705392
0.0253273
-0.0323627
-0.820987
0.828022
0.0400508
-0.0469636
-0.946083
0.952996
0.0544887
-0.0608499
-1.08829
1.09465
0.0676518
-0.0728206
-1.24971
1.25488
0.0778585
-0.0813884
-1.43147
1.435
0.0837991
-0.0841536
-1.63747
1.63783
0.0829897
-0.08048
-1.5716
1.56909
0.0771523
-0.0728308
-1.27619
1.27187
0.0687736
-0.0643446
-1.04761
1.04318
0.0596534
-0.0539142
-0.841306
0.835567
0.0464475
-0.0367154
-0.598267
0.588535
0.0276018
-0.0191386
-0.330603
0.32214
0.0135059
-0.00924139
-0.131797
0.127533
0.00644264
-0.00415141
-0.0303657
0.0280745
0.00240363
-0.00101819
0.00409976
-0.0054852
0.000268911
0.00354913
-0.00381804
-0.0804853
0.0779416
0.00254367
-0.006771
0.00588737
-0.413409
0.414293
-0.00242756
-0.000836157
-0.578586
0.58185
0.00515125
-0.0106947
-0.712301
0.717844
0.0169744
-0.0231138
-0.83432
0.84046
0.0297317
-0.0356899
-0.959421
0.965379
0.0420849
-0.0476652
-1.10083
1.10641
0.0533334
-0.0579292
-1.25984
1.26444
0.0620674
-0.064796
-1.43809
1.44081
0.0663422
-0.0659025
-1.6379
1.63746
0.0639899
-0.0605363
-1.56576
1.5623
0.0565667
-0.051681
-1.26726
1.26237
0.0469255
-0.0415052
-1.03721
1.03179
0.0363238
-0.0305981
-0.825661
0.819936
0.0244576
-0.0172451
-0.57652
0.569308
0.0115931
-0.0073416
-0.312376
0.308125
0.00511021
-0.00382306
-0.122186
0.120899
0.00305349
-0.00229639
-0.025138
0.0243809
0.00145603
-0.000705062
0.00718028
-0.00793125
0.000216943
0.00430191
-0.00451885
-0.078929
0.0767244
0.0022046
-0.00677227
0.00645983
-0.419607
0.419919
-0.0044304
0.00181473
-0.588023
0.590639
0.00226075
-0.00697843
-0.723281
0.727998
0.0123379
-0.0176329
-0.845774
0.851069
0.0234682
-0.0287346
-0.97095
0.976217
0.0344973
-0.0392979
-1.11167
1.11647
0.0442664
-0.048249
-1.26868
1.27266
0.0516815
-0.0537837
-1.44318
1.44528
0.0546349
-0.0539411
-1.6368
1.63611
0.0514068
-0.0475265
-1.55825
1.55437
0.043041
-0.0375886
-1.25707
1.25162
0.0325414
-0.0264197
-1.02538
1.01926
0.0207988
-0.0151633
-0.810732
0.805097
0.00986776
-0.00447573
-0.560158
0.554766
0.00113694
0.000533024
-0.301917
0.300247
-0.000574447
0.000138934
-0.118214
0.11865
0.000253041
-0.000572709
-0.023137
0.0234567
0.000491151
-0.00033843
0.00887286
-0.00902558
0.000135468
0.0048691
-0.00500457
-0.0776718
0.0759224
0.00174932
-0.00599552
0.00607849
-0.424068
0.423985
-0.00449793
0.00258076
-0.596163
0.59808
0.00115024
-0.00539888
-0.73269
0.736938
0.0104325
-0.0149469
-0.855929
0.860443
0.0200156
-0.0246213
-0.981414
0.98602
0.0299929
-0.0342562
-1.12126
1.12552
0.0385424
-0.0421499
-1.27639
1.28
0.045496
-0.0471757
-1.44731
1.44899
0.0477209
-0.046564
-1.63489
1.63373
0.0439793
-0.0395008
-1.55012
1.54564
0.0348867
-0.0292679
-1.24581
1.2402
0.0237702
-0.0175146
-1.01258
1.00632
0.0116229
-0.00565088
-0.796402
0.79043
0.00116495
0.00300563
-0.547128
0.542957
-0.00526913
0.0055287
-0.296115
0.295856
-0.00466555
0.00341237
-0.117894
0.119148
-0.00221496
0.00107766
-0.0234176
0.0245549
-0.000464091
6.5476e-05
0.00927215
-0.00887353
3.31871e-05
0.0051837
-0.00521689
-0.0768947
0.0754968
0.00139798
-0.00499311
0.00525158
-0.42745
0.427192
-0.00391592
0.00212478
-0.603139
0.60493
0.0014093
-0.00515693
-0.741062
0.74481
0.00941722
-0.0137158
-0.864867
0.869166
0.0183319
-0.0229978
-0.99039
0.995056
0.0275324
-0.0315028
-1.12984
1.13381
0.0357791
-0.0389885
-1.28342
1.28663
0.0416515
-0.0435271
-1.4505
1.45237
0.0439548
-0.0427478
-1.63252
1.63131
0.0399473
-0.0356193
-1.54123
1.53691
0.0309207
-0.0251775
-1.23411
1.22836
0.0196553
-0.013272
-0.999526
0.993142
0.00732742
-0.00140702
-0.782564
0.776644
-0.00281726
0.00630271
-0.536178
0.532693
-0.00811626
0.00810568
-0.292888
0.292899
-0.00692952
0.00524606
-0.11919
0.120874
-0.00374571
0.00220245
-0.0252703
0.0268135
-0.0011607
0.000396245
0.0085283
-0.00776385
-6.24995e-05
0.0052217
-0.0051592
-0.0766333
0.0754541
0.00117914
-0.00376273
0.0038247
-0.430366
0.430304
-0.00281311
0.00108434
-0.609441
0.61117
0.00228144
-0.00584901
-0.748739
0.752306
0.00988264
-0.0137203
-0.873211
0.877049
0.0183866
-0.0221852
-0.999098
1.0029
0.0266013
-0.0302978
-1.13789
1.14159
0.0343405
-0.0376197
-1.28976
1.29304
0.0404067
-0.0418797
-1.45393
1.4554
0.0424115
-0.0413409
-1.62994
1.62887
0.0388902
-0.0345483
-1.53236
1.52801
0.0299981
-0.0243505
-1.22263
1.21698
0.0189486
-0.0126027
-0.986303
0.979957
0.00685972
-0.000852189
-0.769189
0.763181
-0.00339426
0.00666841
-0.526487
0.523213
-0.00849721
0.008604
-0.290454
0.290347
-0.00766131
0.00607351
-0.121164
0.122752
-0.0045613
0.00287701
-0.0278866
0.0295709
-0.00162737
0.000642188
0.00706028
-0.00607509
-0.000148225
0.0050444
-0.00489618
-0.0766461
0.0758074
0.000838683
-0.00263188
0.00225293
-0.433289
0.433668
-0.0014148
-0.000350353
-0.614931
0.616696
0.00340694
-0.00680027
-0.755827
0.75922
0.0106183
-0.0145408
-0.880709
0.884631
0.018527
-0.0224316
-1.00687
1.01077
0.0267398
-0.0301526
-1.14567
1.14909
0.0341925
-0.0373246
-1.29607
1.2992
0.0400402
-0.0419087
-1.45722
1.45909
0.0427511
-0.0417677
-1.62776
1.62678
0.0393492
-0.0355103
-1.52378
1.51994
0.0313239
-0.025867
-1.21117
1.20571
0.0205767
-0.0146656
-0.973413
0.967502
0.00875416
-0.0030606
-0.755968
0.750274
-0.00142463
0.0048254
-0.517311
0.51391
-0.00661355
0.00729611
-0.287854
0.287172
-0.00687994
0.00580986
-0.122961
0.124031
-0.00452857
0.00300934
-0.0306469
0.0321662
-0.00179047
0.000768859
0.00520729
-0.00418569
-0.000200417
0.00469671
-0.00449629
-0.0770748
0.0764143
0.000660512
-0.00166815
0.00136706
-0.436383
0.436684
-0.000114758
-0.00174624
-0.62033
0.622191
0.00489305
-0.00810483
-0.762343
0.765555
0.0117307
-0.015211
-0.888182
0.891663
0.01928
-0.0228237
-1.01465
1.01819
0.0270273
-0.0308248
-1.15292
1.15672
0.0344292
-0.037819
-1.30233
1.30572
0.0408643
-0.0427207
-1.4608
1.46266
0.0438049
-0.0434663
-1.62596
1.62562
0.0413478
-0.0379953
-1.51592
1.51257
0.0339216
-0.0288598
-1.20028
1.19522
0.0239636
-0.0182076
-0.96113
0.955374
0.0126735
-0.00700465
-0.7433
0.737631
0.00232038
0.00151144
-0.507943
0.504111
-0.00365737
0.00480594
-0.284487
0.283338
-0.00505623
0.00455782
-0.123812
0.12431
-0.00373831
0.00262183
-0.0329827
0.0340992
-0.00163124
0.000750833
0.00335111
-0.00247071
-0.000213839
0.00426984
-0.004056
-0.0777966
0.0773232
0.000473414
-0.000617947
0.000210624
-0.439638
0.440045
0.0011705
-0.00325767
-0.625508
0.627595
0.00627289
-0.00930014
-0.76855
0.771577
0.0129889
-0.0162902
-0.89509
0.898391
0.0201671
-0.0238026
-1.02219
1.02582
0.0278704
-0.0315923
-1.16033
1.16405
0.0353707
-0.038734
-1.30898
1.31235
0.0418977
-0.0444344
-1.46475
1.46729
0.0458658
-0.0457181
-1.62516
1.62502
0.0441873
-0.0410629
-1.50907
1.50595
0.0374926
-0.0329613
-1.19011
1.18558
0.0281465
-0.022674
-0.949331
0.943858
0.0173698
-0.0116669
-0.73098
0.725277
0.00698395
-0.00262947
-0.4984