/*--------------------------------*- C++ -*----------------------------------*\
| =========                 |                                                 |
| \\      /  F ield         | OpenFOAM: The Open Source CFD Toolbox           |
|  \\    /   O peration     | Version:  2306                                  |
|   \\  /    A nd           | Website:  www.openfoam.com                      |
|    \\/     M anipulation  |                                                 |
\*---------------------------------------------------------------------------*/
FoamFile
{
    version     2.0;
    format      ascii;
    arch        "LSB;label=32;scalar=64";
    class       volVectorField;
    location    "72";
    object      U;
}
// * * * * * * * * * * * * * * * * * * * * * * * * * * * * * * * * * * * * * //

dimensions      [0 1 -1 0 0 0 0];

internalField   nonuniform List<vector> 
8800
(
(0.984956 -0.0884514 0)
(1.00212 -0.0568239 0)
(0.999653 -0.0305564 0)
(1.00001 -0.0158627 0)
(1.0001 -0.0087218 0)
(1.00012 -0.00508586 0)
(1.00007 -0.00299631 0)
(1.00003 -0.00168507 0)
(0.999998 -0.000779981 0)
(1.00007 -7.69365e-05 0)
(0.999974 0.000637329 0)
(0.999985 0.00139925 0)
(1.00003 0.00242201 0)
(1.00006 0.00401209 0)
(1.00004 0.00671893 0)
(1.00001 0.0117426 0)
(0.999851 0.0220514 0)
(0.999173 0.0411647 0)
(1.00748 0.0768941 0)
(0.773655 0.0450715 0)
(0.361016 -0.0151703 0)
(1.04557 -0.0741948 0)
(1.08711 -0.0678798 0)
(1.04776 -0.0522885 0)
(1.02461 -0.0383831 0)
(1.01244 -0.026102 0)
(1.00653 -0.0167488 0)
(1.00364 -0.0102238 0)
(1.00219 -0.00556805 0)
(1.00151 -0.00195147 0)
(1.00137 0.00128296 0)
(1.00171 0.00461283 0)
(1.0027 0.00851981 0)
(1.00473 0.0138434 0)
(1.00881 0.0215604 0)
(1.01734 0.0323735 0)
(1.03445 0.0457074 0)
(1.06549 0.0598092 0)
(1.09407 0.0729145 0)
(0.84219 0.0557172 0)
(0.217108 -0.00164573 0)
(1.07588 -0.0503423 0)
(1.09985 -0.0486979 0)
(1.06467 -0.0401448 0)
(1.04002 -0.0329778 0)
(1.02384 -0.0256714 0)
(1.01404 -0.0182709 0)
(1.00854 -0.0115238 0)
(1.00567 -0.00570213 0)
(1.00447 -0.000369036 0)
(1.00477 0.00477772 0)
(1.00661 0.0101093 0)
(1.01056 0.0161403 0)
(1.01786 0.0230271 0)
(1.03048 0.030275 0)
(1.05063 0.0372659 0)
(1.08035 0.0445968 0)
(1.10617 0.0518015 0)
(0.942768 0.0413472 0)
(0.216419 0.0016691 0)
(0.175952 -0.000644529 0)
(1.01874 -0.0353924 0)
(1.10562 -0.0413909 0)
(1.07816 -0.0362209 0)
(1.05293 -0.0301881 0)
(1.03566 -0.0244503 0)
(1.02362 -0.0187012 0)
(1.01567 -0.0126545 0)
(1.011 -0.00649291 0)
(1.00892 -0.000201857 0)
(1.00943 0.00599873 0)
(1.01252 0.01196 0)
(1.01858 0.0177524 0)
(1.02831 0.0232925 0)
(1.04262 0.0286998 0)
(1.06334 0.0343453 0)
(1.09376 0.0403001 0)
(1.09408 0.0419146 0)
(0.828673 0.0228047 0)
(0.174785 0.0006694 0)
(0.154426 -0.00048631 0)
(0.957441 -0.0255314 0)
(1.10416 -0.0350513 0)
(1.08802 -0.0325995 0)
(1.06152 -0.028039 0)
(1.04363 -0.0230283 0)
(1.03119 -0.0177418 0)
(1.02247 -0.0122085 0)
(1.01681 -0.0062752 0)
(1.01408 0.000215465 0)
(1.01469 0.00670322 0)
(1.01852 0.0125873 0)
(1.02542 0.01786 0)
(1.03562 0.022786 0)
(1.05026 0.0275788 0)
(1.07195 0.0320411 0)
(1.10064 0.0359055 0)
(1.069 0.0340285 0)
(0.74098 0.0143896 0)
(0.152667 0.00051399 0)
(0.139926 -0.000357397 0)
(0.900563 -0.0191809 0)
(1.09657 -0.030093 0)
(1.09616 -0.029198 0)
(1.06919 -0.0254331 0)
(1.05048 -0.0213155 0)
(1.03751 -0.0165672 0)
(1.02846 -0.0112917 0)
(1.02243 -0.00555196 0)
(1.01935 0.000821012 0)
(1.01992 0.00719828 0)
(1.02393 0.0128381 0)
(1.03103 0.0177746 0)
(1.04152 0.022206 0)
(1.05677 0.0261457 0)
(1.07936 0.029612 0)
(1.10287 0.0322653 0)
(1.03698 0.028194 0)
(0.674199 0.0102811 0)
(0.137442 0.000389852 0)
(0.129307 -0.000272707 0)
(0.850917 -0.0148011 0)
(1.08426 -0.0259746 0)
(1.10187 -0.0262809 0)
(1.07605 -0.0229564 0)
(1.05683 -0.01929 0)
(1.04342 -0.0150568 0)
(1.034 -0.0101484 0)
(1.0277 -0.00461592 0)
(1.02441 0.00156944 0)
(1.02484 0.00772096 0)
(1.02882 0.013079 0)
(1.03605 0.017603 0)
(1.04682 0.0214233 0)
(1.06245 0.0247311 0)
(1.08547 0.0277068 0)
(1.10198 0.0294724 0)
(1.00206 0.0236926 0)
(0.622113 0.00790853 0)
(0.125939 0.000311819 0)
(0.121219 -0.000209836 0)
(0.808698 -0.0116241 0)
(1.06904 -0.0223616 0)
(1.10544 -0.0236309 0)
(1.08234 -0.0207378 0)
(1.06268 -0.0172863 0)
(1.04899 -0.0133399 0)
(1.03929 -0.00875693 0)
(1.03272 -0.00349183 0)
(1.02918 0.00246776 0)
(1.02943 0.00835403 0)
(1.03335 0.0133604 0)
(1.04063 0.017418 0)
(1.05149 0.0207459 0)
(1.06734 0.0236534 0)
(1.09073 0.0263176 0)
(1.0982 0.0271742 0)
(0.966707 0.0201626 0)
(0.580207 0.00636746 0)
(0.116777 0.000257165 0)
(0.114961 -0.000161454 0)
(0.773165 -0.00924322 0)
(1.05232 -0.0191767 0)
(1.10786 -0.0211734 0)
(1.08824 -0.0186539 0)
(1.06818 -0.0153525 0)
(1.05424 -0.0115658 0)
(1.04435 -0.00718241 0)
(1.03753 -0.00215356 0)
(1.03371 0.00355154 0)
(1.03373 0.00913218 0)
(1.03751 0.0137583 0)
(1.04472 0.0174032 0)
(1.05558 0.0203465 0)
(1.07165 0.0229254 0)
(1.09471 0.0252382 0)
(1.09156 0.025279 0)
(0.932244 0.017443 0)
(0.545474 0.00531586 0)
(0.109213 0.000218768 0)
(0.110093 -0.000122906 0)
(0.74339 -0.00739395 0)
(1.03517 -0.0163486 0)
(1.10933 -0.0188553 0)
(1.09387 -0.0166413 0)
(1.07351 -0.0134329 0)
(1.05929 -0.00973602 0)
(1.04921 -0.00546898 0)
(1.04216 -0.000604975 0)
(1.03804 0.00485676 0)
(1.03775 0.0101189 0)
(1.0413 0.0143828 0)
(1.04837 0.0176606 0)
(1.05919 0.0202546 0)
(1.07546 0.0225412 0)
(1.09739 0.0244733 0)
(1.08246 0.023739 0)
(0.899236 0.0153851 0)
(0.515846 0.00458617 0)
(0.102759 0.000192267 0)
(0.106327 -9.09255e-05 0)
(0.718555 -0.00590111 0)
(1.01843 -0.0138055 0)
(1.10999 -0.0166099 0)
(1.09939 -0.014669 0)
(1.07877 -0.0114721 0)
(1.06424 -0.00780381 0)
(1.05393 -0.00359418 0)
(1.04662 0.00116501 0)
(1.04217 0.00642418 0)
(1.0415 0.0113898 0)
(1.04473 0.0153152 0)
(1.05161 0.0182413 0)
(1.06237 0.0204961 0)
(1.07883 0.0225175 0)
(1.0987 0.0240378 0)
(1.07125 0.0225532 0)
(0.867793 0.0138753 0)
(0.489856 0.00408784 0)
(0.0970662 0.000175058 0)
(0.103475 -6.31881e-05 0)
(0.698021 -0.00464742 0)
(1.00272 -0.0114805 0)
(1.10999 -0.0144002 0)
(1.10477 -0.0126512 0)
(1.08403 -0.0094171 0)
(1.06918 -0.0057179 0)
(1.0586 -0.0015035 0)
(1.05097 0.00320224 0)
(1.04611 0.00831037 0)
(1.04497 0.0130122 0)
(1.04783 0.0166153 0)
(1.05447 0.0191957 0)
(1.06514 0.0211161 0)
(1.08174 0.0228776 0)
(1.09897 0.0240024 0)
(1.05821 0.0217348 0)
(0.837744 0.0128255 0)
(0.4664 0.00376479 0)
(0.0918729 0.000165195 0)
(0.101417 -3.76104e-05 0)
(0.681317 -0.00354497 0)
(0.988485 -0.00930321 0)
(1.10953 -0.0121399 0)
(1.10998 -0.0105012 0)
(1.08938 -0.0072064 0)
(1.07418 -0.00341598 0)
(1.06327 0.000868751 0)
(1.05526 0.00557783 0)
(1.04989 0.0105885 0)
(1.0482 0.0150572 0)
(1.05059 0.0183486 0)
(1.05695 0.0205827 0)
(1.06751 0.0221641 0)
(1.08415 0.0236527 0)
(1.09823 0.024354 0)
(1.04348 0.0212957 0)
(0.808745 0.012164 0)
(0.444608 0.0035791 0)
(0.0869725 0.000161161 0)
(0.10009 -1.23673e-05 0)
(0.668141 -0.00252456 0)
(0.976096 -0.00719943 0)
(1.10895 -0.00977041 0)
(1.11515 -0.00815845 0)
(1.0949 -0.00476451 0)
(1.07931 -0.00081849 0)
(1.06802 0.00359965 0)
(1.05954 0.00837924 0)
(1.05355 0.0133448 0)
(1.05118 0.0176081 0)
(1.05302 0.0205937 0)
(1.05904 0.0224699 0)
(1.06945 0.0236976 0)
(1.08609 0.0249121 0)
(1.09624 0.0251513 0)
(1.0271 0.0212266 0)
(0.780353 0.011838 0)
(0.423772 0.00350549 0)
(0.0821999 0.000161804 0)
(0.0994795 1.51968e-05 0)
(0.658339 -0.00153287 0)
(0.965872 -0.00509852 0)
(1.10857 -0.00722807 0)
(1.12043 -0.00554884 0)
(1.10068 -0.00200523 0)
(1.08467 0.00216602 0)
(1.07292 0.0067864 0)
(1.06387 0.0117078 0)
(1.05713 0.0166813 0)
(1.05394 0.020764 0)
(1.05512 0.0234464 0)
(1.06073 0.0249487 0)
(1.07096 0.0258131 0)
(1.0875 0.0267093 0)
(1.09298 0.0264007 0)
(1.00902 0.0215721 0)
(0.752073 0.0118214 0)
(0.403292 0.00353016 0)
(0.0774181 0.000166633 0)
(0.0996039 3.7231e-05 0)
(0.651883 -0.000526015 0)
(0.958116 -0.00292899 0)
(1.10873 -0.00443952 0)
(1.12597 -0.0025858 0)
(1.10681 0.00117104 0)
(1.09034 0.00564159 0)
(1.07804 0.0105475 0)
(1.06829 0.0156847 0)
(1.06064 0.020721 0)
(1.05648 0.0246441 0)
(1.05687 0.0270174 0)
(1.06199 0.0281426 0)
(1.07199 0.0286158 0)
(1.08813 0.0291394 0)
(1.08811 0.0281753 0)
(0.989049 0.0223556 0)
(0.723346 0.0120974 0)
(0.382622 0.00364313 0)
(0.0725035 0.000175056 0)
(0.100525 7.52304e-05 0)
(0.648881 0.00051546 0)
(0.953147 -0.000610754 0)
(1.10981 -0.00132208 0)
(1.13199 0.000826579 0)
(1.11342 0.00487917 0)
(1.09643 0.00974425 0)
(1.08348 0.0150253 0)
(1.07287 0.0204578 0)
(1.06413 0.0256124 0)
(1.05879 0.029392 0)
(1.05825 0.0314395 0)
(1.06279 0.0321728 0)
(1.0725 0.0322296 0)
(1.08785 0.0323261 0)
(1.08139 0.0305661 0)
(0.966885 0.0236227 0)
(0.693552 0.0126592 0)
(0.361246 0.00383783 0)
(0.0673459 0.000186571 0)
(0.102419 0.000113534 0)
(0.649687 0.00169895 0)
(0.951317 0.00193827 0)
(1.11224 0.00222674 0)
(1.13869 0.0047803 0)
(1.12065 0.00927141 0)
(1.10307 0.0146351 0)
(1.08932 0.0203906 0)
(1.07768 0.0262044 0)
(1.06761 0.03153 0)
(1.06087 0.035173 0)
(1.05922 0.0368504 0)
(1.06307 0.0371783 0)
(1.07243 0.0367841 0)
(1.08637 0.0363882 0)
(1.07253 0.0336598 0)
(0.942093 0.025404 0)
(0.662027 0.0134982 0)
(0.338681 0.00410519 0)
(0.0618501 0.000200371 0)
(0.105363 0.00016481 0)
(0.654761 0.00316492 0)
(0.953115 0.00487694 0)
(1.1165 0.00631913 0)
(1.1463 0.00944865 0)
(1.12866 0.0145327 0)
(1.1104 0.0205131 0)
(1.09569 0.0268584 0)
(1.08277 0.0331431 0)
(1.0711 0.0386824 0)
(1.06269 0.0421688 0)
(1.05976 0.0434378 0)
(1.06277 0.0433282 0)
(1.0717 0.0424319 0)
(1.08358 0.041516 0)
(1.06115 0.0375682 0)
(0.91409 0.0277429 0)
(0.628051 0.0146068 0)
(0.314471 0.00443613 0)
(0.0559383 0.000215537 0)
(0.109639 0.000231908 0)
(0.664497 0.00486347 0)
(0.958986 0.00833861 0)
(1.12309 0.0111316 0)
(1.1551 0.0150329 0)
(1.13768 0.0208924 0)
(1.11858 0.0276382 0)
(1.10267 0.034703 0)
(1.08819 0.0415439 0)
(1.07458 0.0473166 0)
(1.06422 0.0506 0)
(1.0598 0.0513971 0)
(1.06183 0.0508071 0)
(1.07025 0.0493373 0)
(1.07955 0.0478219 0)
(1.0467 0.0424025 0)
(0.882131 0.0306592 0)
(0.590849 0.0159589 0)
(0.288197 0.00481287 0)
(0.0495572 0.000230544 0)
(0.115591 0.000322184 0)
(0.679698 0.00698083 0)
(0.969587 0.0125275 0)
(1.13258 0.0169047 0)
(1.16547 0.0218003 0)
(1.14796 0.0286718 0)
(1.12781 0.0363581 0)
(1.1104 0.0442773 0)
(1.09397 0.0517382 0)
(1.07803 0.0577194 0)
(1.06538 0.0607073 0)
(1.05915 0.0609139 0)
(1.06016 0.0597991 0)
(1.06805 0.0577107 0)
(1.07397 0.0554996 0)
(1.02849 0.0482383 0)
(0.845309 0.034142 0)
(0.549631 0.0175014 0)
(0.259536 0.00520675 0)
(0.042695 0.000243252 0)
(0.123729 0.000451984 0)
(0.701317 0.00975302 0)
(0.985787 0.0177533 0)
(1.14563 0.0239854 0)
(1.17791 0.0301465 0)
(1.15983 0.0383304 0)
(1.13828 0.0471517 0)
(1.11894 0.0560448 0)
(1.1001 0.0641346 0)
(1.08135 0.0702164 0)
(1.06605 0.072743 0)
(1.05781 0.0722207 0)
(1.05769 0.0704506 0)
(1.065 0.0676715 0)
(1.06648 0.0644885 0)
(1.0056 0.055125 0)
(0.802558 0.0381187 0)
(0.503661 0.0191347 0)
(0.22832 0.00557456 0)
(0.0353981 0.00025098 0)
(0.134791 0.000637926 0)
(0.730592 0.0135584 0)
(1.00875 0.0244856 0)
(1.16304 0.032924 0)
(1.19301 0.0406737 0)
(1.17363 0.0505472 0)
(1.15017 0.0606956 0)
(1.1283 0.0706162 0)
(1.10644 0.0792238 0)
(1.08438 0.085164 0)
(1.06609 0.0869589 0)
(1.05567 0.0855283 0)
(1.05435 0.0830251 0)
(1.06073 0.0793681 0)
(1.0563 0.0750604 0)
(0.976835 0.0630267 0)
(0.752702 0.0424214 0)
(0.452372 0.0207007 0)
(0.194642 0.00585727 0)
(0.0277903 0.000250668 0)
(0.150029 0.00093313 0)
(0.769537 0.019016 0)
(1.04013 0.0335164 0)
(1.18574 0.0446659 0)
(1.21159 0.0545826 0)
(1.18971 0.0663692 0)
(1.16352 0.0779514 0)
(1.13833 0.0887733 0)
(1.11275 0.0975703 0)
(1.08684 0.102925 0)
(1.06526 0.103583 0)
(1.05256 0.100977 0)
(1.05003 0.097613 0)
(1.05497 0.0931894 0)
(1.04256 0.0872455 0)
(0.940667 0.0717283 0)
(0.694582 0.0467342 0)
(0.395591 0.0219647 0)
(0.158986 0.00598092 0)
(0.0200903 0.000239064 0)
(0.171665 0.00144426 0)
(0.821439 0.0272788 0)
(1.08258 0.0464169 0)
(1.21488 0.0611 0)
(1.23418 0.0738319 0)
(1.20813 0.0874212 0)
(1.17808 0.10024 0)
(1.14859 0.111454 0)
(1.11856 0.119767 0)
(1.08834 0.123825 0)
(1.06329 0.122779 0)
(1.04831 0.118655 0)
(1.04459 0.114245 0)
(1.04771 0.108932 0)
(1.02402 0.100899 0)
(0.8952 0.0807838 0)
(0.627389 0.0505787 0)
(0.333921 0.0226449 0)
(0.122385 0.00587198 0)
(0.0126242 0.000212968 0)
(0.20313 0.0025788 0)
(0.892087 0.0410517 0)
(1.13966 0.0670518 0)
(1.25084 0.0858041 0)
(1.26054 0.10123 0)
(1.22828 0.116071 0)
(1.19301 0.129164 0)
(1.15825 0.139631 0)
(1.12317 0.146337 0)
(1.08836 0.148091 0)
(1.05985 0.144601 0)
(1.04273 0.13857 0)
(1.03792 0.132917 0)
(1.03837 0.126577 0)
(0.998884 0.115593 0)
(0.838228 0.0894046 0)
(0.551369 0.0533377 0)
(0.269481 0.0225424 0)
(0.0867288 0.00551472 0)
(0.00589631 0.000171644 0)
(0.246013 0.00890042 7.58825e-20)
(0.985507 0.0684771 6.81287e-20)
(1.20903 0.101803 -2.40746e-20)
(1.29054 0.1224 0)
(1.28781 0.140406 -6.37305e-34)
(1.24798 0.15465 9.3708e-21)
(1.20674 0.166228 -1.71372e-20)
(1.16623 0.174515 0)
(1.12578 0.178526 3.57974e-34)
(1.08614 0.177175 -2.17347e-20)
(1.05401 0.170777 0)
(1.03471 0.162727 -2.60563e-20)
(1.02917 0.156131 -7.70117e-20)
(1.02557 0.149433 -3.63686e-20)
(0.962647 0.133736 -1.09661e-20)
(0.763114 0.0987813 -6.51992e-21)
(0.461361 0.0551682 0)
(0.200949 0.0220108 4.54237e-21)
(0.0520881 0.00516617 5.34057e-21)
(-0.000125394 0.000116943 9.48897e-20)
(0.275908 0.0244581 5.15205e-20)
(1.06278 0.111574 1.08156e-21)
(1.26624 0.151331 6.20705e-21)
(1.32617 0.172046 0)
(1.31178 0.189891 -3.163e-20)
(1.26493 0.201959 -3.63539e-20)
(1.21781 0.211224 -1.71325e-20)
(1.1715 0.217043 -6.18557e-20)
(1.12551 0.21832 0)
(1.08073 0.213945 9.24357e-20)
(1.04463 0.204781 9.2132e-20)
(1.02298 0.194797 2.74376e-20)
(1.01518 0.18663 1.00605e-19)
(1.00198 0.177848 1.41604e-19)
(0.904753 0.15448 0)
(0.660333 0.107946 1.99649e-19)
(0.355439 0.0562415 2.85597e-19)
(0.129954 0.0206866 3.15999e-19)
(0.0175538 0.00360995 -3.59513e-19)
(-0.00611765 -0.000507899 -6.67326e-21)
(0.277145 0.0407391 0)
(1.11179 0.167496 8.14104e-21)
(1.30495 0.212182 0)
(1.35394 0.232362 -3.81553e-20)
(1.33067 0.247095 0)
(1.27793 0.255242 -7.00736e-20)
(1.22529 0.260755 3.46508e-20)
(1.17352 0.262974 -1.23185e-19)
(1.12228 0.260615 -3.18176e-21)
(1.07265 0.252538 4.75026e-20)
(1.03285 0.24012 2.02487e-19)
(1.00906 0.22786 -3.84309e-22)
(0.998813 0.217829 -7.30311e-20)
(0.976029 0.205755 -1.33207e-19)
(0.85168 0.174018 1.5758e-19)
(0.58495 0.115701 -2.7859e-19)
(0.291556 0.0570253 -3.66471e-20)
(0.0914863 0.0190807 0)
(-0.000995851 0.00127075 -3.08556e-23)
(-0.00956725 -0.00134499 0)
(0.270561 0.0546975 7.7649e-20)
(1.13829 0.22662 -4.25944e-20)
(1.32887 0.277576 -3.85976e-20)
(1.37242 0.297879 1.72597e-20)
(1.34304 0.308596 -2.9439e-20)
(1.2859 0.312163 1.45725e-19)
(1.22873 0.313216 7.17522e-20)
(1.17224 0.311152 0)
(1.11634 0.304558 -2.35134e-19)
(1.0623 0.292239 0)
(1.01911 0.276144 -1.05737e-19)
(0.993246 0.261227 -1.31537e-19)
(0.980538 0.248959 -7.93594e-20)
(0.94935 0.232867 -9.66506e-20)
(0.808189 0.192475 0)
(0.535017 0.124173 0)
(0.255818 0.0593244 -2.37875e-19)
(0.0697319 0.0176776 4.68062e-20)
(-0.0131624 -0.00153876 -2.72924e-20)
(-0.0124031 -0.00240704 -3.14458e-20)
(0.262604 0.0669215 -1.05516e-20)
(1.14981 0.285529 0)
(1.34201 0.343811 6.76953e-20)
(1.38256 0.364734 4.58115e-20)
(1.34895 0.371513 6.96534e-20)
(1.28862 0.370485 0)
(1.22791 0.366951 6.88684e-20)
(1.16755 0.360388 1.34973e-19)
(1.10766 0.349294 1.19503e-19)
(1.04968 0.332437 2.23267e-19)
(1.00336 0.312348 0)
(0.975526 0.294482 -2.83032e-19)
(0.960496 0.279587 -1.70958e-19)
(0.922618 0.259192 -1.01135e-19)
(0.773285 0.210922 6.18654e-19)
(0.50351 0.134035 7.33131e-20)
(0.23698 0.0630913 3.43117e-19)
(0.0582272 0.0167286 -1.61719e-18)
(-0.0210039 -0.00450321 9.52434e-19)
(-0.0147742 -0.00362316 -1.13096e-18)
(0.254867 0.0779108 2.05463e-20)
(1.1517 0.342357 1.15816e-21)
(1.34726 0.408979 -4.57915e-21)
(1.386 0.43103 -3.76734e-20)
(1.34936 0.43411 -5.36222e-20)
(1.28664 0.428658 3.58515e-21)
(1.22316 0.420679 -7.46882e-20)
(1.15963 0.409675 1.38481e-19)
(1.09631 0.394073 -2.56914e-19)
(1.03484 0.372594 0)
(0.98562 0.348349 -1.27761e-19)
(0.955802 0.32732 -3.14364e-21)
(0.938508 0.309635 -1.87133e-19)
(0.895912 0.28502 0)
(0.744689 0.229777 -1.33739e-19)
(0.483842 0.145435 -3.15708e-19)
(0.228602 0.0684788 8.37608e-19)
(0.0545498 0.0167995 -8.25257e-19)
(-0.0245264 -0.00701503 1.16504e-18)
(-0.0163577 -0.00482574 -1.19248e-18)
(0.248217 0.0879948 -8.35746e-22)
(1.14754 0.396405 7.55843e-21)
(1.34681 0.472072 1.55508e-21)
(1.38415 0.495572 1.09631e-20)
(1.34533 0.49535 -2.61584e-20)
(1.28081 0.485751 0)
(1.21508 0.473569 -6.73766e-20)
(1.14891 0.458313 -1.44355e-19)
(1.08264 0.438336 -1.32892e-19)
(1.01802 0.4123 0)
(0.966072 0.383885 -1.3194e-19)
(0.934265 0.359614 -1.64576e-19)
(0.914844 0.339047 2.0298e-19)
(0.86915 0.310325 -1.23317e-19)
(0.720075 0.249194 -5.83513e-19)
(0.470717 0.158442 3.44414e-19)
(0.226892 0.0753869 1.01747e-19)
(0.056076 0.0181319 0)
(-0.0243411 -0.00861102 -1.12663e-18)
(-0.0169942 -0.00582996 -4.07063e-20)
(0.242784 0.0975017 9.25931e-21)
(1.13965 0.447481 -1.35834e-20)
(1.34215 0.532632 -3.52606e-21)
(1.37829 0.55764 4.51608e-20)
(1.33781 0.554575 -8.85716e-20)
(1.27193 0.541194 1.25465e-19)
(1.20438 0.525106 1.45277e-19)
(1.13596 0.505849 -2.30406e-19)
(1.06706 0.481714 8.35026e-20)
(0.999558 0.451272 -5.47953e-19)
(0.945028 0.418761 -1.49953e-19)
(0.911261 0.391263 0)
(0.889815 0.367827 2.20471e-19)
(0.841998 0.33523 2.64604e-19)
(0.697159 0.269008 3.14833e-19)
(0.460319 0.172451 -3.7496e-19)
(0.227347 0.0835696 -1.10347e-19)
(0.0604324 0.0209499 1.29928e-19)
(-0.0212781 -0.00898778 0)
(-0.0166873 -0.00648125 -8.86154e-20)
(0.238499 0.106588 -1.42944e-19)
(1.12974 0.495692 8.0879e-20)
(1.33455 0.59044 7.12123e-21)
(1.36944 0.616913 2.16082e-20)
(1.32764 0.611397 -3.50248e-20)
(1.26071 0.594601 -8.19426e-21)
(1.19167 0.574954 -1.59625e-19)
(1.1213 0.552005 -8.35831e-20)
(1.05004 0.523968 -2.31221e-19)
(0.979858 0.489332 6.52988e-22)
(0.922848 0.452848 -4.68819e-19)
(0.887137 0.42219 3.98952e-19)
(0.863729 0.395954 -2.42978e-19)
(0.814379 0.359681 2.92343e-19)
(0.674901 0.288491 0)
(0.450144 0.186955 -2.04568e-19)
(0.228171 0.0924943 6.39146e-22)
(0.0658698 0.0249308 -5.68458e-19)
(-0.0166241 -0.00830647 -8.29401e-20)
(-0.0157276 -0.00681022 0)
(0.235272 0.115398 0)
(1.1188 0.541269 9.31165e-20)
(1.32497 0.645944 3.81169e-20)
(1.35844 0.67326 -1.36518e-20)
(1.3155 0.665615 -5.07492e-20)
(1.24775 0.645762 0)
(1.17748 0.622902 -6.95281e-20)
(1.10541 0.596588 -2.07631e-21)
(1.032 0.564952 4.95941e-19)
(0.959275 0.526368 -7.49757e-20)
(0.899851 0.486062 -3.39033e-19)
(0.862249 0.452319 2.07085e-19)
(0.837023 0.423351 -4.45715e-21)
(0.786424 0.383431 3.11527e-19)
(0.651975 0.30755 1.90766e-19)
(0.438616 0.201432 -4.42208e-19)
(0.227526 0.101611 5.21937e-19)
(0.0707651 0.0296102 1.54565e-19)
(-0.011378 -0.0067646 6.33326e-19)
(-0.0143075 -0.00682035 -1.66691e-18)
(0.233005 0.124127 -4.7707e-20)
(1.10755 0.584393 6.53748e-20)
(1.31398 0.698453 -4.46282e-20)
(1.34592 0.726672 -1.5074e-21)
(1.30197 0.717138 0)
(1.23358 0.694551 -5.09886e-20)
(1.16228 0.668827 2.37191e-19)
(1.08871 0.639484 1.82261e-19)
(1.0133 0.604569 0)
(0.938109 0.562309 -1.08526e-18)
(0.876313 0.518339 9.19401e-19)
(0.836864 0.481587 0)
(0.809884 0.449875 2.85059e-19)
(0.758149 0.406269 -4.40366e-21)
(0.628106 0.325649 -6.14107e-19)
(0.425273 0.215006 2.38899e-19)
(0.22448 0.110415 0)
(0.0740414 0.034472 8.35911e-19)
(-0.00659256 -0.00478654 0)
(-0.0127414 -0.00661248 -7.9084e-19)
(0.231577 0.132803 5.72543e-20)
(1.09641 0.625338 8.52643e-20)
(1.30225 0.748024 -4.40347e-20)
(1.33233 0.777173 0)
(1.28751 0.765949 -3.37776e-20)
(1.21863 0.740933 0)
(1.14646 0.712664 -2.29078e-19)
(1.07153 0.680628 -8.24159e-20)
(0.994237 0.64277 8.66906e-20)
(0.916651 0.597127 -5.37243e-19)
(0.852464 0.549661 9.47049e-20)
(0.811185 0.509929 0)
(0.782533 0.475407 -6.09718e-19)
(0.729581 0.427949 4.19905e-21)
(0.6028 0.34246 0)
(0.40993 0.227151 1.78834e-21)
(0.218791 0.118211 7.67702e-19)
(0.0749731 0.0388302 -7.23094e-19)
(-0.00304903 -0.00288542 2.12328e-19)
(-0.0113036 -0.00630876 0)
(0.230662 0.141357 0)
(1.08569 0.664199 1.02917e-19)
(1.28998 0.79482 6.52731e-20)
(1.3181 0.824818 -5.05934e-21)
(1.27252 0.812071 -3.68939e-21)
(1.20326 0.78491 -1.14869e-19)
(1.13034 0.754403 8.74437e-20)
(1.05417 0.719995 -9.94103e-20)
(0.975106 0.679527 3.89812e-19)
(0.895126 0.630821 -8.60333e-19)
(0.828483 0.580034 -8.44701e-21)
(0.785343 0.537302 -2.66017e-19)
(0.755056 0.499814 9.91104e-19)
(0.700867 0.448219 -5.09235e-21)
(0.57672 0.357496 -4.78686e-19)
(0.392517 0.237533 -8.46922e-19)
(0.210749 0.124441 0)
(0.0736383 0.0421076 0)
(-0.000960361 -0.00146476 2.29459e-19)
(-0.0101324 -0.00603666 -1.32587e-19)
(0.230488 0.149915 8.04833e-20)
(1.07562 0.700876 -2.33958e-19)
(1.27738 0.839003 -6.99142e-20)
(1.30358 0.869661 0)
(1.25729 0.855563 -2.97948e-21)
(1.18773 0.826514 -9.62639e-20)
(1.11419 0.794055 2.05327e-19)
(1.03691 0.757585 3.85628e-19)
(0.956128 0.714844 5.05389e-19)
(0.873746 0.663406 -7.02521e-19)
(0.804536 0.609491 -7.93517e-19)
(0.759438 0.56372 7.12121e-19)
(0.7275 0.522995 0)
(0.671967 0.466784 -2.18463e-19)
(0.54988 0.370415 -5.17506e-19)
(0.373525 0.245581 -6.09847e-19)
(0.200485 0.128871 -7.17327e-19)
(0.0704188 0.0439813 2.1114e-19)
(-0.000165306 -0.000704569 -1.23619e-19)
(-0.00925017 -0.00585227 6.11721e-22)
(0.230438 0.158415 0)
(1.06629 0.735659 0)
(1.26474 0.880659 4.85247e-21)
(1.289 0.911823 0)
(1.24206 0.89652 -1.45457e-20)
(1.17228 0.865807 5.78181e-20)
(1.09822 0.831652 0)
(1.01992 0.793411 4.47404e-20)
(0.937506 0.748727 8.421e-19)
(0.852708 0.694915 -1.61726e-18)
(0.780768 0.638101 0)
(0.733517 0.58923 -4.59426e-19)
(0.699791 0.544885 -5.97579e-21)
(0.642819 0.483378 -4.42878e-21)
(0.522514 0.380822 5.54765e-19)
(0.353105 0.250985 1.50588e-23)
(0.188598 0.131053 -1.54654e-18)
(0.0656229 0.0444731 4.54467e-19)
(-0.000425779 -0.000616514 1.33806e-19)
(-0.00862148 -0.00575229 0)
(0.230565 0.166751 -3.21647e-19)
(1.05745 0.768804 -1.58282e-19)
(1.25217 0.919877 -2.0666e-19)
(1.27455 0.951435 1.98574e-19)
(1.22702 0.935017 -5.55931e-20)
(1.15709 0.902854 0)
(1.0826 0.867241 1.20248e-19)
(1.00338 0.827503 -1.00875e-19)
(0.919405 0.781198 7.82046e-21)
(0.832182 0.725386 1.19748e-19)
(0.757309 0.665946 1.02953e-18)
(0.707603 0.613939 -1.61091e-19)
(0.671843 0.565487 -6.12493e-19)
(0.613301 0.497782 -2.54868e-19)
(0.494653 0.388347 3.00777e-19)
(0.331794 0.253441 3.22315e-22)
(0.175663 0.130895 4.16687e-19)
(0.0598234 0.0435457 -9.78474e-19)
(-0.00132068 -0.00104602 1.15148e-18)
(-0.00814652 -0.00570258 1.65358e-19)
(0.230645 0.174861 1.2207e-19)
(1.04911 0.80038 -8.91193e-20)
(1.23982 0.956763 1.22733e-20)
(1.26034 0.988633 1.28624e-19)
(1.2123 0.971168 2.51592e-20)
(1.1423 0.937731 -9.40141e-20)
(1.06747 0.900875 3.20576e-20)
(0.987414 0.859885 -4.18786e-19)
(0.901965 0.812262 -9.26209e-19)
(0.812311 0.754835 -9.63829e-19)
(0.7343 0.693119 0)
(0.681727 0.637993 -7.10018e-19)
(0.643525 0.584884 8.84196e-19)
(0.583153 0.509811 0)
(0.466325 0.392549 -6.44681e-19)
(0.310416 0.252495 3.81959e-19)
(0.162739 0.128215 -4.48115e-19)
(0.0540865 0.0414498 -5.26405e-19)
(-0.00240099 -0.0017775 -9.27005e-19)
(-0.00780619 -0.0057006 -7.12276e-19)
(0.231067 0.182845 -1.37675e-19)
(1.04112 0.830384 9.52266e-20)
(1.22773 0.991392 2.17784e-19)
(1.24646 1.02351 1.88713e-19)
(1.19802 1.00507 -4.50399e-20)
(1.128 0.970526 -4.12425e-20)
(1.05291 0.932607 1.09403e-19)
(0.972123 0.890599 -4.27354e-19)
(0.88528 0.841944 -5.48521e-19)
(0.793226 0.783286 1.00897e-18)
(0.711871 0.719703 2.26495e-18)
(0.655947 0.661563 0)
(0.614698 0.603249 0)
(0.552004 0.519412 -2.93298e-19)
(0.437249 0.392911 0)
(0.28936 0.24715 8.20258e-19)
(0.151537 0.122125 9.62708e-19)
(0.0505025 0.037998 0)
(-0.00250639 -0.00261989 0)
(-0.00761405 -0.00575678 7.65292e-19)
(0.231201 0.190408 1.56597e-19)
(1.0335 0.858817 1.28903e-19)
(1.21598 1.02389 1.5797e-19)
(1.23299 1.05618 -1.82549e-19)
(1.18424 1.03683 -6.19345e-20)
(1.11426 1.00132 2.82635e-20)
(1.03901 0.962499 -1.48317e-19)
(0.957577 0.919675 -1.44033e-21)
(0.869439 0.870252 -1.01618e-20)
(0.775028 0.810741 -8.56538e-21)
(0.690168 0.745764 1.16697e-18)
(0.630362 0.684826 0)
(0.585275 0.62085 8.97831e-19)
(0.519391 0.526735 6.26934e-19)
(0.406647 0.389116 1.50439e-18)
(0.268245 0.235864 4.42123e-19)
(0.143789 0.109542 -5.17608e-19)
(0.054032 0.0295077 -3.02792e-19)
(0.00505987 -0.00507531 0)
(-0.00542591 -0.00523127 8.21869e-19)
(0.231664 0.197993 -3.51607e-19)
(1.02621 0.885769 0)
(1.20455 1.05431 1.86028e-19)
(1.21997 1.08673 -1.54872e-19)
(1.17102 1.06654 8.74866e-20)
(1.10113 1.03019 -5.05256e-21)
(1.02579 0.990608 2.75652e-19)
(0.943818 0.947148 -3.53542e-20)
(0.854492 0.897197 0)
(0.757805 0.837178 -1.11151e-18)
(0.669337 0.77133 -2.53785e-18)
(0.605119 0.707955 1.04883e-19)
(0.555265 0.638022 1.24221e-18)
(0.484939 0.532232 0)
(0.373214 0.381497 1.01634e-18)
(0.24468 0.217157 0)
(0.137232 0.083627 0)
(0.0702714 0.000279331 -3.27384e-19)
(0.0435531 -0.0188623 0)
(0.0256535 0.00902383 2.20226e-19)
(0.231793 0.204998 -3.92825e-19)
(1.01921 0.911577 0)
(1.19346 1.08285 3.09349e-19)
(1.20736 1.11538 0)
(1.15833 1.09448 -5.41102e-20)
(1.08855 1.05744 0)
(1.01322 1.01724 1.13531e-20)
(0.930751 0.973353 5.83484e-20)
(0.840314 0.923135 6.87073e-20)
(0.741385 0.862977 -1.21603e-18)
(0.649182 0.796838 7.57558e-20)
(0.579951 0.731611 8.45975e-19)
(0.524183 0.65561 1.21172e-18)
(0.447662 0.536552 1.63495e-19)
(0.334833 0.371407 7.97792e-19)
(0.213166 0.191983 0)
(0.119297 0.039466 1.09032e-18)
(0.0666639 -0.0399262 -6.30786e-19)
(0.0394498 0.0413533 7.28667e-19)
(-0.0596222 0.437741 -8.63511e-19)
(0.231918 0.211817 3.25382e-19)
(1.01223 0.936035 5.11241e-19)
(1.18259 1.10985 0)
(1.19502 1.14259 9.53443e-21)
(1.14596 1.12122 1.61945e-19)
(1.07624 1.08374 -6.51832e-20)
(1.00095 1.0432 8.80269e-20)
(0.917956 0.999222 0)
(0.826365 0.949148 4.50129e-19)
(0.725085 0.889432 -6.29244e-20)
(0.628773 0.823758 0)
(0.553557 0.757471 0)
(0.489941 0.675006 1.08946e-18)
(0.405 0.540149 -5.0681e-19)
(0.288164 0.360661 -8.11524e-19)
(0.168525 0.163355 0)
(0.0701382 0.0531041 5.46285e-19)
(0.0047901 0.438111 -6.23305e-19)
(0.0305509 1.90033 -3.41238e-19)
(0.0611947 2.81365 -4.50912e-19)
(0.231849 0.217906 -2.42718e-19)
(1.00538 0.959298 -6.54262e-19)
(1.17198 1.13527 1.83046e-19)
(1.18294 1.16823 1.51124e-19)
(1.13394 1.14654 0)
(1.0643 1.1088 -6.6456e-20)
(0.989212 1.06817 1.08622e-19)
(0.905629 1.02433 -2.76849e-20)
(0.812923 0.974722 6.75791e-20)
(0.709295 0.915943 1.15854e-18)
(0.608718 0.851461 1.28487e-18)
(0.526873 0.785244 9.53108e-19)
(0.453306 0.696417 1.09956e-18)
(0.358309 0.542181 -1.19627e-18)
(0.238657 0.35331 -1.22971e-18)
(0.114124 0.210866 0)
(0.041462 0.841143 0)
(0.0959209 2.55834 2.99185e-19)
(0.0989867 3.20502 0)
(0.101832 3.38902 6.5415e-19)
(0.234798 0.223614 0)
(0.999269 0.981647 0)
(1.16135 1.15899 0)
(1.17093 1.19214 4.5722e-20)
(1.12192 1.17018 1.47794e-19)
(1.05251 1.1325 -7.3395e-20)
(0.977886 1.09204 6.54454e-20)
(0.893715 1.04855 -2.66606e-20)
(0.799937 0.999706 5.56289e-19)
(0.694031 0.942363 -1.71029e-20)
(0.589153 0.879827 2.53998e-18)
(0.500215 0.814828 -1.10473e-19)
(0.414363 0.720968 1.33117e-19)
(0.309863 0.540688 1.738e-19)
(0.177672 0.365122 -8.61006e-21)
(0.0953825 0.966478 3.59433e-21)
(0.135286 2.73151 -1.59944e-18)
(0.142361 3.29429 -5.91666e-19)
(0.132329 3.4251 2.94353e-19)
(0.120703 3.44716 -3.20082e-19)
(0.15505 0.176135 1.38174e-19)
(0.988516 1.00597 0)
(1.15037 1.18115 -3.56056e-19)
(1.15941 1.21477 -4.06695e-19)
(1.11064 1.19286 3.52268e-19)
(1.04171 1.15545 8.69244e-20)
(0.966859 1.11487 -6.11965e-20)
(0.882299 1.07199 2.77629e-19)
(0.787553 1.02425 -4.50638e-19)
(0.679576 0.968857 0)
(0.570477 0.909062 1.24453e-18)
(0.474109 0.846017 -7.79075e-19)
(0.375437 0.751683 0)
(0.253325 0.536744 1.5778e-19)
(0.137314 0.723453 3.81968e-19)
(0.15087 2.5095 -4.41913e-19)
(0.205296 3.32216 4.87123e-19)
(0.186848 3.43642 2.61149e-19)
(0.155448 3.45808 2.85663e-19)
(0.134588 3.46847 4.55022e-19)
(0.274445 0.261206 -2.44698e-19)
(0.971896 1.01521 0)
(1.13194 1.2065 3.93743e-19)
(1.14418 1.24522 4.44062e-19)
(1.09314 1.22596 -3.88276e-19)
(1.02347 1.18894 -1.30947e-19)
(0.947612 1.14997 2.64468e-20)
(0.862528 1.10833 2.21411e-20)
(0.766416 1.0628 4.24084e-19)
(0.65557 1.01142 9.9173e-19)
(0.540886 0.958122 6.97968e-20)
(0.432889 0.89938 6.9373e-19)
(0.303242 0.786119 1.24711e-19)
(0.209759 0.902495 -1.5947e-19)
(0.224877 2.36039 -3.5397e-19)
(0.284792 3.3238 3.27958e-19)
(0.268293 3.46331 -3.66586e-19)
(0.233241 3.48571 -2.11445e-19)
(0.197152 3.51346 -1.67049e-19)
(0.146692 3.5078 -1.6053e-20)
(0.26347 0.258677 0)
(0.969461 1.03796 1.14049e-19)
(1.12338 1.22994 -8.16957e-20)
(1.13341 1.2689 -5.3336e-20)
(1.08215 1.24915 -2.70178e-19)
(1.01241 1.21232 1.37034e-19)
(0.936241 1.17352 -1.5538e-21)
(0.850927 1.1327 1.93876e-20)
(0.754224 1.08865 -4.38587e-19)
(0.641943 1.04017 -2.66188e-20)
(0.524154 0.991822 -2.25134e-18)
(0.410309 0.936923 9.94193e-20)
(0.28339 0.851572 -1.16998e-19)
(0.251337 1.47963 -1.47757e-19)
(0.32567 3.10444 3.50452e-20)
(0.344548 3.4607 3.56497e-22)
(0.304142 3.5161 5.23345e-19)
(0.267479 3.54349 2.48946e-19)
(0.219302 3.56691 -5.01221e-20)
(0.162146 3.56326 -7.26303e-20)
(0.247868 0.256767 2.8707e-19)
(0.965546 1.06325 7.8305e-19)
(1.11441 1.25543 -2.34891e-19)
(1.12202 1.29394 -2.01823e-19)
(1.07053 1.27371 0)
(1.00092 1.23692 2.5165e-19)
(0.924728 1.19836 2.68762e-20)
(0.839459 1.15832 1.63994e-20)
(0.742489 1.11588 -4.93606e-20)
(0.629324 1.0706 -8.89143e-19)
(0.509332 1.02765 -1.03535e-18)
(0.391362 0.976087 -8.05732e-19)
(0.285364 0.983022 -8.93527e-19)
(0.32191 2.21359 9.1388e-19)
(0.412883 3.37261 7.40187e-19)
(0.389039 3.51736 0)
(0.343354 3.56251 0)
(0.305428 3.60298 -3.92227e-20)
(0.255846 3.66156 0)
(0.174975 3.6384 -2.70465e-20)
(0.237499 0.258639 -4.31832e-19)
(0.959552 1.08942 -6.67895e-19)
(1.10398 1.28211 0)
(1.10925 1.3197 1.13515e-20)
(1.05764 1.29886 -2.9527e-19)
(0.988314 1.26201 4.11066e-19)