0.490941 	1.79133 	0.00560038 	3.00062 	-5.53255e-20
0.561075 	1.79133 	0.00560038 	3.00062 	-5.53255e-20
0.63121 	1.79133 	0.00560038 	3.00062 	-5.53255e-20
0.701344 	1.79133 	0.00560038 	3.00062 	-5.53255e-20
0.771478 	1.79133 	0.00560038 	3.00062 	-5.53255e-20
0.841613 	1.79133 	0.00560038 	3.00062 	-5.53255e-20
0.911747 	1.79133 	0.00560038 	3.00062 	-5.53255e-20
0.981881 	1.79133 	0.00560038 	3.00062 	-5.53255e-20
1.05202 	1.79133 	0.00560038 	3.00062 	-5.53255e-20
1.12215 	1.79133 	0.00560038 	3.00062 	-5.53255e-20
1.19228 	1.79133 	0.00560038 	3.00062 	-5.53255e-20
1.26242 	1.79133 	0.00560038 	3.00062 	-5.53255e-20
1.33255 	1.75196 	0.0142467 	3.01441 	-5.67649e-20
1.40269 	1.75196 	0.0142467 	3.01441 	-5.67649e-20
1.47282 	1.75196 	0.0142467 	3.01441 	-5.67649e-20
1.54296 	1.75196 	0.0142467 	3.01441 	-5.67649e-20
1.61309 	1.75196 	0.0142467 	3.01441 	-5.67649e-20
1.68323 	1.75196 	0.0142467 	3.01441 	-5.67649e-20
1.75336 	1.75196 	0.0142467 	3.01441 	-5.67649e-20
1.82349 	1.75196 	0.0142467 	3.01441 	-5.67649e-20
1.89363 	1.75196 	0.0142467 	3.01441 	-5.67649e-20
1.96376 	1.75196 	0.0142467 	3.01441 	-5.67649e-20
2.0339 	1.75196 	0.0142467 	3.01441 	-5.67649e-20
2.10403 	1.75196 	0.0142467 	3.01441 	-5.67649e-20
2.17417 	1.69121 	0.0140415 	3.03186 	1.18239e-19
2.2443 	1.69121 	0.0140415 	3.03186 	1.18239e-19
2.31443 	1.69121 	0.0140415 	3.03186 	1.18239e-19
2.38457 	1.69121 	0.0140415 	3.03186 	1.18239e-19
2.4547 	1.69121 	0.0140415 	3.03186 	1.18239e-19
2.52484 	1.69121 	0.0140415 	3.03186 	1.18239e-19
2.59497 	1.69121 	0.0140415 	3.03186 	1.18239e-19
2.66511 	1.69121 	0.0140415 	3.03186 	1.18239e-19
2.73524 	1.69121 	0.0140415 	3.03186 	1.18239e-19
2.80538 	1.69121 	0.0140415 	3.03186 	1.18239e-19
2.87551 	1.69121 	0.0140415 	3.03186 	1.18239e-19
2.94564 	1.69121 	0.0140415 	3.03186 	1.18239e-19
3.01578 	1.61728 	0.0166062 	3.05888 	-1.37761e-20
3.08591 	1.61728 	0.0166062 	3.05888 	-1.37761e-20
3.15605 	1.61728 	0.0166062 	3.05888 	-1.37761e-20
3.22618 	1.61728 	0.0166062 	3.05888 	-1.37761e-20
3.29632 	1.61728 	0.0166062 	3.05888 	-1.37761e-20
3.36645 	1.61728 	0.0166062 	3.05888 	-1.37761e-20
3.43659 	1.61728 	0.0166062 	3.05888 	-1.37761e-20
3.50672 	1.61728 	0.0166062 	3.05888 	-1.37761e-20
3.57685 	1.61728 	0.0166062 	3.05888 	-1.37761e-20
3.64699 	1.61728 	0.0166062 	3.05888 	-1.37761e-20
3.71712 	1.61728 	0.0166062 	3.05888 	-1.37761e-20
3.78726 	1.61011 	0.0071594 	3.05543 	2.6983e-20
3.85739 	1.53118 	-0.000816362 	3.08425 	-1.99506e-19
3.92753 	1.53118 	-0.000816362 	3.08425 	-1.99506e-19
3.99766 	1.53118 	-0.000816362 	3.08425 	-1.99506e-19
4.06779 	1.53118 	-0.000816362 	3.08425 	-1.99506e-19
4.13793 	1.53118 	-0.000816362 	3.08425 	-1.99506e-19
4.20806 	1.53118 	-0.000816362 	3.08425 	-1.99506e-19
4.2782 	1.53118 	-0.000816362 	3.08425 	-1.99506e-19
4.34833 	1.53118 	-0.000816362 	3.08425 	-1.99506e-19
4.41847 	1.53118 	-0.000816362 	3.08425 	-1.99506e-19
4.4886 	1.53118 	-0.000816362 	3.08425 	-1.99506e-19
4.55874 	1.53118 	-0.000816362 	3.08425 	-1.99506e-19
4.62887 	1.53118 	-0.000816362 	3.08425 	-1.99506e-19
4.699 	1.53118 	-0.000816362 	3.08425 	-1.99506e-19
4.76914 	1.45247 	0.00553908 	3.10652 	3.88647e-19
4.83927 	1.45247 	0.00553908 	3.10652 	3.88647e-19
4.90941 	1.45247 	0.00553908 	3.10652 	3.88647e-19
4.97954 	1.45247 	0.00553908 	3.10652 	3.88647e-19
5.04968 	1.45247 	0.00553908 	3.10652 	3.88647e-19
5.11981 	1.45247 	0.00553908 	3.10652 	3.88647e-19
5.18994 	1.45247 	0.00553908 	3.10652 	3.88647e-19
5.26008 	1.45247 	0.00553908 	3.10652 	3.88647e-19
5.33021 	1.45247 	0.00553908 	3.10652 	3.88647e-19
5.40035 	1.45247 	0.00553908 	3.10652 	3.88647e-19
5.47048 	1.45247 	0.00553908 	3.10652 	3.88647e-19
5.54062 	1.45247 	0.00553908 	3.10652 	3.88647e-19
5.61075 	1.3778 	-0.00217908 	3.13369 	-1.88913e-19
5.68089 	1.3778 	-0.00217908 	3.13369 	-1.88913e-19
5.75102 	1.3778 	-0.00217908 	3.13369 	-1.88913e-19
5.82115 	1.3778 	-0.00217908 	3.13369 	-1.88913e-19
5.89129 	1.3778 	-0.00217908 	3.13369 	-1.88913e-19
5.96142 	1.3778 	-0.00217908 	3.13369 	-1.88913e-19
6.03156 	1.3778 	-0.00217908 	3.13369 	-1.88913e-19
6.10169 	1.3778 	-0.00217908 	3.13369 	-1.88913e-19
6.17183 	1.3778 	-0.00217908 	3.13369 	-1.88913e-19
6.24196 	1.3778 	-0.00217908 	3.13369 	-1.88913e-19
6.3121 	1.3778 	-0.00217908 	3.13369 	-1.88913e-19
6.38223 	1.3778 	-0.00217908 	3.13369 	-1.88913e-19
6.45236 	1.30651 	0.00534608 	3.15319 	0
6.5225 	1.30651 	0.00534608 	3.15319 	0
6.59263 	1.30651 	0.00534608 	3.15319 	0
6.66277 	1.30651 	0.00534608 	3.15319 	0
6.7329 	1.30651 	0.00534608 	3.15319 	0
6.80304 	1.30651 	0.00534608 	3.15319 	0
6.87317 	1.30651 	0.00534608 	3.15319 	0
6.9433 	1.30651 	0.00534608 	3.15319 	0
7.01344 	1.30651 	0.00534608 	3.15319 	0
7.08357 	1.30651 	0.00534608 	3.15319 	0
7.15371 	1.30651 	0.00534608 	3.15319 	0
7.22384 	1.30651 	0.00534608 	3.15319 	0
7.29398 	1.2385 	-0.00128657 	3.17801 	0
7.36411 	1.2385 	-0.00128657 	3.17801 	0
7.43425 	1.2385 	-0.00128657 	3.17801 	0
7.50438 	1.2385 	-0.00128657 	3.17801 	0
7.57451 	1.2385 	-0.00128657 	3.17801 	0
7.64465 	1.2385 	-0.00128657 	3.17801 	0
7.71478 	1.2385 	-0.00128657 	3.17801 	0
7.78492 	1.2385 	-0.00128657 	3.17801 	0
7.85505 	1.2385 	-0.00128657 	3.17801 	0
7.92519 	1.2385 	-0.00128657 	3.17801 	0
7.99532 	1.2385 	-0.00128657 	3.17801 	0
8.06545 	1.2385 	-0.00128657 	3.17801 	0
8.13559 	1.2385 	-0.00128657 	3.17801 	0
8.20572 	1.1713 	0.0078548 	3.19587 	3.70381e-22
8.27586 	1.1713 	0.0078548 	3.19587 	3.70381e-22
8.34599 	1.1713 	0.0078548 	3.19587 	3.70381e-22
8.41613 	1.1713 	0.0078548 	3.19587 	3.70381e-22
8.48626 	1.1713 	0.0078548 	3.19587 	3.70381e-22
8.5564 	1.1713 	0.0078548 	3.19587 	3.70381e-22
8.62653 	1.1713 	0.0078548 	3.19587 	3.70381e-22
8.69666 	1.1713 	0.0078548 	3.19587 	3.70381e-22
8.7668 	1.1713 	0.0078548 	3.19587 	3.70381e-22
8.83693 	1.1713 	0.0078548 	3.19587 	3.70381e-22
8.90707 	1.1713 	0.0078548 	3.19587 	3.70381e-22
8.9772 	1.1713 	0.0078548 	3.19587 	3.70381e-22
9.04734 	1.10484 	0.00363973 	3.21998 	2.85993e-19
9.11747 	1.10484 	0.00363973 	3.21998 	2.85993e-19
9.18761 	1.10484 	0.00363973 	3.21998 	2.85993e-19
9.25774 	1.10484 	0.00363973 	3.21998 	2.85993e-19
9.32787 	1.10484 	0.00363973 	3.21998 	2.85993e-19
9.39801 	1.10484 	0.00363973 	3.21998 	2.85993e-19
9.46814 	1.10484 	0.00363973 	3.21998 	2.85993e-19
9.53828 	1.10484 	0.00363973 	3.21998 	2.85993e-19
9.60841 	1.10484 	0.00363973 	3.21998 	2.85993e-19
9.67855 	1.10484 	0.00363973 	3.21998 	2.85993e-19
9.74868 	1.10484 	0.00363973 	3.21998 	2.85993e-19
9.81881 	1.10484 	0.00363973 	3.21998 	2.85993e-19
9.88895 	1.10484 	0.00363973 	3.21998 	2.85993e-19
9.95908 	1.03765 	0.0178146 	3.23755 	-1.08029e-21
10.0292 	1.03765 	0.0178146 	3.23755 	-1.08029e-21
10.0994 	1.03765 	0.0178146 	3.23755 	-1.08029e-21
10.1695 	1.03765 	0.0178146 	3.23755 	-1.08029e-21
10.2396 	1.03765 	0.0178146 	3.23755 	-1.08029e-21
10.3098 	1.03765 	0.0178146 	3.23755 	-1.08029e-21
10.3799 	1.03765 	0.0178146 	3.23755 	-1.08029e-21
10.45 	1.03765 	0.0178146 	3.23755 	-1.08029e-21
10.5202 	1.03765 	0.0178146 	3.23755 	-1.08029e-21
10.5903 	1.03765 	0.0178146 	3.23755 	-1.08029e-21
10.6604 	1.03765 	0.0178146 	3.23755 	-1.08029e-21
10.7306 	1.03765 	0.0178146 	3.23755 	-1.08029e-21
10.8007 	0.969709 	0.0237533 	3.26181 	-2.82631e-19
10.8708 	0.969709 	0.0237533 	3.26181 	-2.82631e-19
10.941 	0.969709 	0.0237533 	3.26181 	-2.82631e-19
11.0111 	0.969709 	0.0237533 	3.26181 	-2.82631e-19
11.0812 	0.969709 	0.0237533 	3.26181 	-2.82631e-19
11.1514 	0.969709 	0.0237533 	3.26181 	-2.82631e-19
11.2215 	0.969709 	0.0237533 	3.26181 	-2.82631e-19
11.2916 	0.969709 	0.0237533 	3.26181 	-2.82631e-19
11.3618 	0.969709 	0.0237533 	3.26181 	-2.82631e-19
11.4319 	0.969709 	0.0237533 	3.26181 	-2.82631e-19
11.502 	0.969709 	0.0237533 	3.26181 	-2.82631e-19
11.5722 	0.969709 	0.0237533 	3.26181 	-2.82631e-19
11.6423 	0.969709 	0.0237533 	3.26181 	-2.82631e-19
11.7124 	0.895841 	0.0551119 	3.28165 	-4.40015e-19
11.7826 	0.895841 	0.0551119 	3.28165 	-4.40015e-19
11.8527 	0.895841 	0.0551119 	3.28165 	-4.40015e-19
11.9228 	0.895841 	0.0551119 	3.28165 	-4.40015e-19
11.993 	0.895841 	0.0551119 	3.28165 	-4.40015e-19
12.0631 	0.895841 	0.0551119 	3.28165 	-4.40015e-19
12.1332 	0.895841 	0.0551119 	3.28165 	-4.40015e-19
12.2034 	0.895841 	0.0551119 	3.28165 	-4.40015e-19
12.2735 	0.895841 	0.0551119 	3.28165 	-4.40015e-19
12.3437 	0.895841 	0.0551119 	3.28165 	-4.40015e-19
12.4138 	0.895841 	0.0551119 	3.28165 	-4.40015e-19
12.4839 	0.895841 	0.0551119 	3.28165 	-4.40015e-19
12.5541 	0.895841 	0.0551119 	3.28165 	-4.40015e-19
12.6242 	0.812143 	0.0810209 	3.30872 	8.48015e-19
12.6943 	0.812143 	0.0810209 	3.30872 	8.48015e-19
12.7645 	0.812143 	0.0810209 	3.30872 	8.48015e-19
12.8346 	0.812143 	0.0810209 	3.30872 	8.48015e-19
12.9047 	0.812143 	0.0810209 	3.30872 	8.48015e-19
12.9749 	0.812143 	0.0810209 	3.30872 	8.48015e-19
13.045 	0.812143 	0.0810209 	3.30872 	8.48015e-19
13.1151 	0.812143 	0.0810209 	3.30872 	8.48015e-19
13.1853 	0.812143 	0.0810209 	3.30872 	8.48015e-19
13.2554 	0.812143 	0.0810209 	3.30872 	8.48015e-19
13.3255 	0.812143 	0.0810209 	3.30872 	8.48015e-19
13.3957 	0.812143 	0.0810209 	3.30872 	8.48015e-19
13.4658 	0.812143 	0.0810209 	3.30872 	8.48015e-19
13.5359 	0.70329 	0.156946 	3.34392 	-4.09747e-19
13.6061 	0.70329 	0.156946 	3.34392 	-4.09747e-19
13.6762 	0.70329 	0.156946 	3.34392 	-4.09747e-19
13.7463 	0.70329 	0.156946 	3.34392 	-4.09747e-19
13.8165 	0.70329 	0.156946 	3.34392 	-4.09747e-19
13.8866 	0.70329 	0.156946 	3.34392 	-4.09747e-19
13.9567 	0.70329 	0.156946 	3.34392 	-4.09747e-19
14.0269 	0.70329 	0.156946 	3.34392 	-4.09747e-19
14.097 	0.70329 	0.156946 	3.34392 	-4.09747e-19
14.1671 	0.70329 	0.156946 	3.34392 	-4.09747e-19
14.2373 	0.70329 	0.156946 	3.34392 	-4.09747e-19
14.3074 	0.70329 	0.156946 	3.34392 	-4.09747e-19
14.3776 	0.599816 	0.181652 	3.36549 	0
14.4477 	0.394454 	0.179447 	3.4246 	3.93482e-19
14.5178 	0.394454 	0.179447 	3.4246 	3.93482e-19
14.588 	0.394454 	0.179447 	3.4246 	3.93482e-19
14.6581 	0.394454 	0.179447 	3.4246 	3.93482e-19
14.7282 	0.394454 	0.179447 	3.4246 	3.93482e-19
14.7984 	0.394454 	0.179447 	3.4246 	3.93482e-19
14.8685 	0.419501 	0.204697 	3.41552 	-7.89818e-19
14.9386 	0.419501 	0.204697 	3.41552 	-7.89818e-19
15.0088 	0.419501 	0.204697 	3.41552 	-7.89818e-19
15.0789 	0.419501 	0.204697 	3.41552 	-7.89818e-19
15.149 	0.419501 	0.204697 	3.41552 	-7.89818e-19
15.2192 	0.178239 	0.269445 	3.48281 	4.11648e-19
15.2893 	0.178239 	0.269445 	3.48281 	4.11648e-19
15.3594 	0.178239 	0.269445 	3.48281 	4.11648e-19
15.4296 	0.305847 	0.340823 	3.43852 	3.68568e-20
15.4997 	0.305847 	0.340823 	3.43852 	3.68568e-20
15.5698 	0.305847 	0.340823 	3.43852 	3.68568e-20
15.64 	0.305847 	0.340823 	3.43852 	3.68568e-20
15.7101 	0.305847 	0.340823 	3.43852 	3.68568e-20
15.7802 	0.305847 	0.340823 	3.43852 	3.68568e-20
15.8504 	0.305847 	0.340823 	3.43852 	3.68568e-20
15.9205 	0.0463193 	0.343014 	3.53839 	9.40829e-20
15.9906 	0.0463193 	0.343014 	3.53839 	9.40829e-20
16.0608 	0.0463193 	0.343014 	3.53839 	9.40829e-20
16.1309 	0.259221 	0.429551 	3.45056 	2.25235e-19
16.201 	0.259221 	0.429551 	3.45056 	2.25235e-19
16.2712 	0.259221 	0.429551 	3.45056 	2.25235e-19
16.3413 	0.259221 	0.429551 	3.45056 	2.25235e-19
16.4114 	0.259221 	0.429551 	3.45056 	2.25235e-19
16.4816 	0.259221 	0.429551 	3.45056 	2.25235e-19
16.5517 	0.259221 	0.429551 	3.45056 	2.25235e-19
16.6219 	0.0707286 	0.529806 	3.52782 	0
16.692 	0.0707286 	0.529806 	3.52782 	0
16.7621 	0.0707286 	0.529806 	3.52782 	0
16.8323 	0.0707286 	0.529806 	3.52782 	0
16.9024 	0.0707286 	0.529806 	3.52782 	0
16.9725 	0.304699 	0.536524 	3.42977 	2.07979e-19
17.0427 	0.304699 	0.536524 	3.42977 	2.07979e-19
17.1128 	0.304699 	0.536524 	3.42977 	2.07979e-19
17.1829 	0.304699 	0.536524 	3.42977 	2.07979e-19
17.2531 	0.151021 	0.622824 	3.48292 	1.65596e-19
17.3232 	0.151021 	0.622824 	3.48292 	1.65596e-19
17.3933 	0.151021 	0.622824 	3.48292 	1.65596e-19
17.4635 	0.151021 	0.622824 	3.48292 	1.65596e-19
17.5336 	0.151021 	0.622824 	3.48292 	1.65596e-19
17.6037 	0.151021 	0.622824 	3.48292 	1.65596e-19
17.6739 	0.151021 	0.622824 	3.48292 	1.65596e-19
17.744 	0.151021 	0.622824 	3.48292 	1.65596e-19
17.8141 	0.151021 	0.622824 	3.48292 	1.65596e-19
17.8843 	0.151021 	0.622824 	3.48292 	1.65596e-19
17.9544 	0.230025 	0.640287 	3.40261 	0
18.0245 	0.230025 	0.640287 	3.40261 	0
18.0947 	0.230025 	0.640287 	3.40261 	0
18.1648 	0.230025 	0.640287 	3.40261 	0
18.2349 	0.230025 	0.640287 	3.40261 	0
18.3051 	0.230025 	0.640287 	3.40261 	0
18.3752 	0.230025 	0.640287 	3.40261 	0
18.4453 	0.230025 	0.640287 	3.40261 	0
18.5155 	0.230025 	0.640287 	3.40261 	0
18.5856 	0.13334 	0.729185 	3.44303 	0
18.6557 	0.13334 	0.729185 	3.44303 	0
18.7259 	0.13334 	0.729185 	3.44303 	0
18.796 	0.13334 	0.729185 	3.44303 	0
18.8662 	0.13334 	0.729185 	3.44303 	0
18.9363 	0.13334 	0.729185 	3.44303 	0
19.0064 	0.13334 	0.729185 	3.44303 	0
19.0766 	0.13334 	0.729185 	3.44303 	0
19.1467 	0.13334 	0.729185 	3.44303 	0
19.2168 	0.0812323 	0.782181 	3.42929 	2.28243e-20
19.287 	0.313301 	0.707169 	3.21514 	-6.33393e-20
19.3571 	0.313301 	0.707169 	3.21514 	-6.33393e-20
19.4272 	0.313301 	0.707169 	3.21514 	-6.33393e-20
19.4974 	0.313301 	0.707169 	3.21514 	-6.33393e-20
19.5675 	0.313301 	0.707169 	3.21514 	-6.33393e-20
19.6376 	0.313301 	0.707169 	3.21514 	-6.33393e-20
19.7078 	0.313301 	0.707169 	3.21514 	-6.33393e-20
19.7779 	0.313301 	0.707169 	3.21514 	-6.33393e-20
19.848 	0.313301 	0.707169 	3.21514 	-6.33393e-20
19.9182 	0.262065 	0.767564 	3.28967 	-2.40418e-19
19.9883 	0.262065 	0.767564 	3.28967 	-2.40418e-19
20.0584 	0.262065 	0.767564 	3.28967 	-2.40418e-19
20.1286 	0.262065 	0.767564 	3.28967 	-2.40418e-19
20.1987 	0.262065 	0.767564 	3.28967 	-2.40418e-19
20.2688 	0.262065 	0.767564 	3.28967 	-2.40418e-19
20.339 	0.262065 	0.767564 	3.28967 	-2.40418e-19
20.4091 	0.262065 	0.767564 	3.28967 	-2.40418e-19
20.4792 	0.262065 	0.767564 	3.28967 	-2.40418e-19
20.5494 	0.262065 	0.767564 	3.28967 	-2.40418e-19
20.6195 	0.201307 	0.821397 	3.32288 	7.35971e-21
20.6896 	0.201307 	0.821397 	3.32288 	7.35971e-21
20.7598 	0.201307 	0.821397 	3.32288 	7.35971e-21
20.8299 	0.201307 	0.821397 	3.32288 	7.35971e-21
20.9 	0.289257 	0.708515 	2.738 	-3.30983e-19
20.9702 	0.289257 	0.708515 	2.738 	-3.30983e-19
21.0403 	0.289257 	0.708515 	2.738 	-3.30983e-19
21.1105 	0.289257 	0.708515 	2.738 	-3.30983e-19
21.1806 	0.289257 	0.708515 	2.738 	-3.30983e-19
21.2507 	0.289257 	0.708515 	2.738 	-3.30983e-19
21.3209 	0.247154 	0.76966 	2.93373 	0
21.391 	0.247154 	0.76966 	2.93373 	0
21.4611 	0.247154 	0.76966 	2.93373 	0
21.5313 	0.247154 	0.76966 	2.93373 	0
21.6014 	0.247154 	0.76966 	2.93373 	0
21.6715 	0.247154 	0.76966 	2.93373 	0
21.7417 	0.247154 	0.76966 	2.93373 	0
21.8118 	0.247154 	0.76966 	2.93373 	0
21.8819 	0.247154 	0.76966 	2.93373 	0
21.9521 	0.247154 	0.76966 	2.93373 	0
22.0222 	0.247154 	0.76966 	2.93373 	0
22.0923 	0.204786 	0.814542 	3.05676 	-1.34881e-19
22.1625 	0.204786 	0.814542 	3.05676 	-1.34881e-19
22.2326 	0.204786 	0.814542 	3.05676 	-1.34881e-19
22.3027 	0.204786 	0.814542 	3.05676 	-1.34881e-19
22.3729 	0.204786 	0.814542 	3.05676 	-1.34881e-19
22.443 	0.204786 	0.814542 	3.05676 	-1.34881e-19
22.5131 	0.204786 	0.814542 	3.05676 	-1.34881e-19
22.5833 	0.204786 	0.814542 	3.05676 	-1.34881e-19
22.6534 	0.204786 	0.814542 	3.05676 	-1.34881e-19
22.7235 	0.204786 	0.814542 	3.05676 	-1.34881e-19
22.7937 	0.204786 	0.814542 	3.05676 	-1.34881e-19
22.8638 	0.154388 	0.865568 	3.13478 	2.2397e-19
22.9339 	0.154388 	0.865568 	3.13478 	2.2397e-19
23.0041 	0.154388 	0.865568 	3.13478 	2.2397e-19
23.0742 	0.173099 	0.698879 	2.22559 	8.82951e-20
23.1443 	0.173099 	0.698879 	2.22559 	8.82951e-20
23.2145 	0.173099 	0.698879 	2.22559 	8.82951e-20
23.2846 	0.173099 	0.698879 	2.22559 	8.82951e-20
23.3548 	0.173099 	0.698879 	2.22559 	8.82951e-20
23.4249 	0.173099 	0.698879 	2.22559 	8.82951e-20
23.495 	0.173099 	0.698879 	2.22559 	8.82951e-20
23.5652 	0.173099 	0.698879 	2.22559 	8.82951e-20
23.6353 	0.173099 	0.698879 	2.22559 	8.82951e-20
23.7054 	0.124407 	0.737695 	2.39637 	-1.06272e-20
23.7756 	0.124407 	0.737695 	2.39637 	-1.06272e-20
23.8457 	0.124407 	0.737695 	2.39637 	-1.06272e-20
23.9158 	0.124407 	0.737695 	2.39637 	-1.06272e-20
23.986 	0.124407 	0.737695 	2.39637 	-1.06272e-20
24.0561 	0.124407 	0.737695 	2.39637 	-1.06272e-20
24.1262 	0.124407 	0.737695 	2.39637 	-1.06272e-20
24.1964 	0.124407 	0.737695 	2.39637 	-1.06272e-20
24.2665 	0.124407 	0.737695 	2.39637 	-1.06272e-20
24.3366 	0.124407 	0.737695 	2.39637 	-1.06272e-20
24.4068 	0.124407 	0.737695 	2.39637 	-1.06272e-20
24.4769 	0.124407 	0.737695 	2.39637 	-1.06272e-20
24.547 	0.124407 	0.737695 	2.39637 	-1.06272e-20
24.6172 	0.0780535 	0.786721 	2.55208 	9.67007e-20
24.6873 	0.0780535 	0.786721 	2.55208 	9.67007e-20
24.7574 	0.0780535 	0.786721 	2.55208 	9.67007e-20
24.8276 	0.0780535 	0.786721 	2.55208 	9.67007e-20
24.8977 	0.0780535 	0.786721 	2.55208 	9.67007e-20
24.9678 	0.0780535 	0.786721 	2.55208 	9.67007e-20
25.038 	0.0780535 	0.786721 	2.55208 	9.67007e-20
25.1081 	0.0780535 	0.786721 	2.55208 	9.67007e-20
25.1782 	0.0780535 	0.786721 	2.55208 	9.67007e-20
25.2484 	0.0780535 	0.786721 	2.55208 	9.67007e-20
25.3185 	0.0780535 	0.786721 	2.55208 	9.67007e-20
25.3886 	0.0780535 	0.786721 	2.55208 	9.67007e-20
25.4588 	0.0324932 	0.82158 	2.66453 	-4.92751e-20
25.5289 	0.0324932 	0.82158 	2.66453 	-4.92751e-20
25.5991 	0.0324932 	0.82158 	2.66453 	-4.92751e-20
25.6692 	0.0324932 	0.82158 	2.66453 	-4.92751e-20
25.7393 	0.0324932 	0.82158 	2.66453 	-4.92751e-20
25.8095 	0.0324932 	0.82158 	2.66453 	-4.92751e-20
25.8796 	0.0324932 	0.82158 	2.66453 	-4.92751e-20
25.9497 	0.0324932 	0.82158 	2.66453 	-4.92751e-20
26.0199 	0.0324932 	0.82158 	2.66453 	-4.92751e-20
26.09 	0.0464203 	0.61857 	1.72835 	-2.70611e-20
26.1601 	0.0464203 	0.61857 	1.72835 	-2.70611e-20
26.2303 	0.0464203 	0.61857 	1.72835 	-2.70611e-20
26.3004 	0.0464203 	0.61857 	1.72835 	-2.70611e-20
26.3705 	0.0464203 	0.61857 	1.72835 	-2.70611e-20
26.4407 	0.00522269 	0.633712 	1.79681 	-6.28044e-21
26.5108 	0.00522269 	0.633712 	1.79681 	-6.28044e-21
26.5809 	0.00522269 	0.633712 	1.79681 	-6.28044e-21
26.6511 	0.00522269 	0.633712 	1.79681 	-6.28044e-21
26.7212 	0.00522269 	0.633712 	1.79681 	-6.28044e-21
26.7913 	0.00522269 	0.633712 	1.79681 	-6.28044e-21
26.8615 	0.00522269 	0.633712 	1.79681 	-6.28044e-21
26.9316 	0.00522269 	0.633712 	1.79681 	-6.28044e-21
27.0017 	0.00522269 	0.633712 	1.79681 	-6.28044e-21
27.0719 	0.00522269 	0.633712 	1.79681 	-6.28044e-21
27.142 	0.00522269 	0.633712 	1.79681 	-6.28044e-21
27.2121 	0.00522269 	0.633712 	1.79681 	-6.28044e-21
27.2823 	0.00522269 	0.633712 	1.79681 	-6.28044e-21
27.3524 	-0.0342517 	0.647096 	1.85282 	0
27.4225 	-0.0342517 	0.647096 	1.85282 	0
27.4927 	-0.0342517 	0.647096 	1.85282 	0
27.5628 	-0.0342517 	0.647096 	1.85282 	0
27.6329 	-0.0342517 	0.647096 	1.85282 	0
27.7031 	-0.0342517 	0.647096 	1.85282 	0
27.7732 	-0.0342517 	0.647096 	1.85282 	0
27.8434 	-0.0342517 	0.647096 	1.85282 	0
27.9135 	-0.0342517 	0.647096 	1.85282 	0
27.9836 	-0.0342517 	0.647096 	1.85282 	0
28.0538 	-0.0342517 	0.647096 	1.85282 	0
28.1239 	-0.0342517 	0.647096 	1.85282 	0
28.194 	-0.0342517 	0.647096 	1.85282 	0
28.2642 	-0.0342517 	0.647096 	1.85282 	0
28.3343 	-0.0342517 	0.647096 	1.85282 	0
28.4044 	-0.0706669 	0.65476 	1.88721 	0
28.4746 	-0.0706669 	0.65476 	1.88721 	0
28.5447 	-0.0706669 	0.65476 	1.88721 	0
28.6148 	-0.0706669 	0.65476 	1.88721 	0
28.685 	-0.0706669 	0.65476 	1.88721 	0
28.7551 	-0.0706669 	0.65476 	1.88721 	0
28.8252 	-0.0706669 	0.65476 	1.88721 	0
28.8954 	-0.0706669 	0.65476 	1.88721 	0
28.9655 	-0.0706669 	0.65476 	1.88721 	0
29.0356 	-0.0706669 	0.65476 	1.88721 	0
29.1058 	-0.0706669 	0.65476 	1.88721 	0
29.1759 	-0.0706669 	0.65476 	1.88721 	0
29.246 	-0.0706669 	0.65476 	1.88721 	0
29.3162 	-0.0706669 	0.65476 	1.88721 	0
29.3863 	-0.0706669 	0.65476 	1.88721 	0
29.4564 	-0.10232 	0.655197 	1.89565 	-4.74275e-20
29.5266 	-0.10232 	0.655197 	1.89565 	-4.74275e-20
29.5967 	-0.10232 	0.655197 	1.89565 	-4.74275e-20
29.6668 	-0.10232 	0.655197 	1.89565 	-4.74275e-20
29.737 	-0.10232 	0.655197 	1.89565 	-4.74275e-20
29.8071 	-0.10232 	0.655197 	1.89565 	-4.74275e-20
29.8773 	-0.10232 	0.655197 	1.89565 	-4.74275e-20
29.9474 	-0.10232 	0.655197 	1.89565 	-4.74275e-20
30.0175 	-0.10232 	0.655197 	1.89565 	-4.74275e-20
30.0877 	-0.10232 	0.655197 	1.89565 	-4.74275e-20
30.1578 	-0.10232 	0.655197 	1.89565 	-4.74275e-20
30.2279 	-0.10232 	0.655197 	1.89565 	-4.74275e-20
30.2981 	-0.10232 	0.655197 	1.89565 	-4.74275e-20
30.3682 	-0.10232 	0.655197 	1.89565 	-4.74275e-20
30.4383 	-0.10232 	0.655197 	1.89565 	-4.74275e-20
30.5085 	-0.10232 	0.655197 	1.89565 	-4.74275e-20
30.5786 	-0.122645 	0.645081 	1.87568 	-7.15994e-22
30.6487 	-0.122645 	0.645081 	1.87568 	-7.15994e-22
30.7189 	-0.122645 	0.645081 	1.87568 	-7.15994e-22
30.789 	-0.122645 	0.645081 	1.87568 	-7.15994e-22
30.8591 	-0.122645 	0.645081 	1.87568 	-7.15994e-22
30.9293 	-0.122645 	0.645081 	1.87568 	-7.15994e-22
30.9994 	-0.122645 	0.645081 	1.87568 	-7.15994e-22
31.0695 	-0.122645 	0.645081 	1.87568 	-7.15994e-22
31.1397 	-0.122645 	0.645081 	1.87568 	-7.15994e-22
31.2098 	-0.122645 	0.645081 	1.87568 	-7.15994e-22
31.2799 	-0.122645 	0.645081 	1.87568 	-7.15994e-22
31.3501 	-0.122645 	0.645081 	1.87568 	-7.15994e-22
31.4202 	-0.122645 	0.645081 	1.87568 	-7.15994e-22
31.4903 	-0.122645 	0.645081 	1.87568 	-7.15994e-22
31.5605 	-0.159782 	0.524481 	1.59713 	-9.58403e-20
31.6306 	-0.159782 	0.524481 	1.59713 	-9.58403e-20
31.7007 	-0.154363 	0.507092 	1.59018 	6.07551e-20
31.7709 	-0.154363 	0.507092 	1.59018 	6.07551e-20
31.841 	-0.154363 	0.507092 	1.59018 	6.07551e-20
31.9111 	-0.154363 	0.507092 	1.59018 	6.07551e-20
31.9813 	-0.154363 	0.507092 	1.59018 	6.07551e-20
32.0514 	-0.154363 	0.507092 	1.59018 	6.07551e-20
32.1216 	-0.154363 	0.507092 	1.59018 	6.07551e-20
32.1917 	-0.154363 	0.507092 	1.59018 	6.07551e-20
32.2618 	-0.154363 	0.507092 	1.59018 	6.07551e-20
32.332 	-0.154363 	0.507092 	1.59018 	6.07551e-20
32.4021 	-0.154363 	0.507092 	1.59018 	6.07551e-20
32.4722 	-0.154363 	0.507092 	1.59018 	6.07551e-20
32.5424 	-0.154363 	0.507092 	1.59018 	6.07551e-20
32.6125 	-0.154363 	0.507092 	1.59018 	6.07551e-20
32.6826 	-0.154363 	0.507092 	1.59018 	6.07551e-20
32.7528 	-0.154363 	0.507092 	1.59018 	6.07551e-20
32.8229 	-0.154363 	0.507092 	1.59018 	6.07551e-20
32.893 	-0.154363 	0.507092 	1.59018 	6.07551e-20
32.9632 	-0.127963 	0.481149 	1.57053 	1.65096e-20
33.0333 	-0.127963 	0.481149 	1.57053 	1.65096e-20
33.1034 	-0.127963 	0.481149 	1.57053 	1.65096e-20
33.1736 	-0.127963 	0.481149 	1.57053 	1.65096e-20
33.2437 	-0.127963 	0.481149 	1.57053 	1.65096e-20
33.3138 	-0.127963 	0.481149 	1.57053 	1.65096e-20
33.384 	-0.127963 	0.481149 	1.57053 	1.65096e-20
33.4541 	-0.127963 	0.481149 	1.57053 	1.65096e-20
33.5242 	-0.127963 	0.481149 	1.57053 	1.65096e-20
33.5944 	-0.127963 	0.481149 	1.57053 	1.65096e-20
33.6645 	-0.127963 	0.481149 	1.57053 	1.65096e-20
33.7346 	-0.127963 	0.481149 	1.57053 	1.65096e-20
33.8048 	-0.127963 	0.481149 	1.57053 	1.65096e-20
33.8749 	-0.127963 	0.481149 	1.57053 	1.65096e-20
33.945 	-0.127963 	0.481149 	1.57053 	1.65096e-20
34.0152 	-0.127963 	0.481149 	1.57053 	1.65096e-20
34.0853 	-0.127963 	0.481149 	1.57053 	1.65096e-20
34.1554 	-0.127963 	0.481149 	1.57053 	1.65096e-20
34.2256 	-0.080365 	0.440748 	1.53836 	-3.39157e-21
34.2957 	-0.080365 	0.440748 	1.53836 	-3.39157e-21
34.3659 	-0.080365 	0.440748 	1.53836 	-3.39157e-21
34.436 	-0.080365 	0.440748 	1.53836 	-3.39157e-21
34.5061 	-0.080365 	0.440748 	1.53836 	-3.39157e-21
34.5763 	-0.080365 	0.440748 	1.53836 	-3.39157e-21
34.6464 	-0.080365 	0.440748 	1.53836 	-3.39157e-21
34.7165 	-0.080365 	0.440748 	1.53836 	-3.39157e-21
34.7867 	-0.080365 	0.440748 	1.53836 	-3.39157e-21
34.8568 	-0.080365 	0.440748 	1.53836 	-3.39157e-21
34.9269 	-0.080365 	0.440748 	1.53836 	-3.39157e-21
34.9971 	-0.080365 	0.440748 	1.53836 	-3.39157e-21
35.0672 	-0.080365 	0.440748 	1.53836 	-3.39157e-21
35.1373 	-0.080365 	0.440748 	1.53836 	-3.39157e-21
35.2075 	-0.080365 	0.440748 	1.53836 	-3.39157e-21
35.2776 	-0.080365 	0.440748 	1.53836 	-3.39157e-21
35.3477 	-0.080365 	0.440748 	1.53836 	-3.39157e-21
35.4179 	-0.080365 	0.440748 	1.53836 	-3.39157e-21
35.488 	-0.080365 	0.440748 	1.53836 	-3.39157e-21
35.5581 	-0.080365 	0.440748 	1.53836 	-3.39157e-21
35.6283 	-0.02846 	0.37031 	1.50431 	-1.7442e-21
35.6984 	-0.02846 	0.37031 	1.50431 	-1.7442e-21
35.7685 	-0.02846 	0.37031 	1.50431 	-1.7442e-21
35.8387 	-0.02846 	0.37031 	1.50431 	-1.7442e-21
35.9088 	-0.02846 	0.37031 	1.50431 	-1.7442e-21
35.9789 	-0.02846 	0.37031 	1.50431 	-1.7442e-21
36.0491 	-0.02846 	0.37031 	1.50431 	-1.7442e-21
36.1192 	-0.02846 	0.37031 	1.50431 	-1.7442e-21
36.1893 	-0.02846 	0.37031 	1.50431 	-1.7442e-21
36.2595 	-0.02846 	0.37031 	1.50431 	-1.7442e-21
36.3296 	-0.02846 	0.37031 	1.50431 	-1.7442e-21
36.3997 	-0.02846 	0.37031 	1.50431 	-1.7442e-21
36.4699 	-0.02846 	0.37031 	1.50431 	-1.7442e-21
36.54 	-0.02846 	0.37031 	1.50431 	-1.7442e-21
36.6102 	-0.02846 	0.37031 	1.50431 	-1.7442e-21
36.6803 	-0.02846 	0.37031 	1.50431 	-1.7442e-21
36.7504 	-0.02846 	0.37031 	1.50431 	-1.7442e-21
36.8206 	-0.02846 	0.37031 	1.50431 	-1.7442e-21
36.8907 	-0.02846 	0.37031 	1.50431 	-1.7442e-21
36.9608 	-0.02846 	0.37031 	1.50431 	-1.7442e-21
37.031 	-0.02846 	0.37031 	1.50431 	-1.7442e-21
37.1011 	0.000992283 	0.293882 	1.48469 	0
37.1712 	0.000992283 	0.293882 	1.48469 	0
37.2414 	0.000992283 	0.293882 	1.48469 	0
37.3115 	0.000992283 	0.293882 	1.48469 	0
37.3816 	0.000992283 	0.293882 	1.48469 	0
37.4518 	0.000992283 	0.293882 	1.48469 	0
37.5219 	0.000992283 	0.293882 	1.48469 	0
37.592 	0.000992283 	0.293882 	1.48469 	0
37.6622 	0.000992283 	0.293882 	1.48469 	0
37.7323 	0.000992283 	0.293882 	1.48469 	0
37.8024 	0.000992283 	0.293882 	1.48469 	0
37.8726 	0.000992283 	0.293882 	1.48469 	0
37.9427 	0.000992283 	0.293882 	1.48469 	0
38.0128 	0.000992283 	0.293882 	1.48469 	0
38.083 	0.000992283 	0.293882 	1.48469 	0
38.1531 	0.000992283 	0.293882 	1.48469 	0
38.2232 	0.000992283 	0.293882 	1.48469 	0
38.2934 	0.00694978 	0.228577 	1.48064 	0
38.3635 	0.00694978 	0.228577 	1.48064 	0
38.4336 	0.00694978 	0.228577 	1.48064 	0
38.5038 	0.00694978 	0.228577 	1.48064 	0
38.5739 	0.00694978 	0.228577 	1.48064 	0
38.644 	0.00694978 	0.228577 	1.48064 	0
38.7142 	0.00694978 	0.228577 	1.48064 	0
38.7843 	0.00694978 	0.228577 	1.48064 	0
38.8545 	0.00694978 	0.228577 	1.48064 	0
38.9246 	0.00694978 	0.228577 	1.48064 	0
38.9947 	0.00694978 	0.228577 	1.48064 	0
39.0649 	0.00694978 	0.228577 	1.48064 	0
39.135 	0.00694978 	0.228577 	1.48064 	0
39.2051 	0.00694978 	0.228577 	1.48064 	0
39.2753 	0.00694978 	0.228577 	1.48064 	0
39.3454 	0.00694978 	0.228577 	1.48064 	0
39.4155 	0.00694978 	0.228577 	1.48064 	0
39.4857 	0.00694978 	0.228577 	1.48064 	0
39.5558 	-0.0023243 	0.170158 	1.48612 	0
39.6259 	-0.0023243 	0.170158 	1.48612 	0
39.6961 	-0.0023243 	0.170158 	1.48612 	0
39.7662 	-0.0023243 	0.170158 	1.48612 	0
39.8363 	-0.0023243 	0.170158 	1.48612 	0
39.9065 	-0.0023243 	0.170158 	1.48612 	0
39.9766 	-0.0023243 	0.170158 	1.48612 	0
40.0467 	-0.0023243 	0.170158 	1.48612 	0
40.1169 	-0.0023243 	0.170158 	1.48612 	0
40.187 	-0.0023243 	0.170158 	1.48612 	0
40.2571 	-0.0023243 	0.170158 	1.48612 	0
40.3273 	-0.0023243 	0.170158 	1.48612 	0
40.3974 	-0.0023243 	0.170158 	1.48612 	0
40.4675 	-0.0023243 	0.170158 	1.48612 	0
40.5377 	-0.0023243 	0.170158 	1.48612 	0
40.6078 	-0.0023243 	0.170158 	1.48612 	0
40.6779 	-0.0023243 	0.170158 	1.48612 	0
40.7481 	-0.0134433 	0.116855 	1.49194 	0
40.8182 	-0.0134433 	0.116855 	1.49194 	0
40.8883 	-0.0134433 	0.116855 	1.49194 	0
40.9585 	-0.0134433 	0.116855 	1.49194 	0
41.0286 	-0.0134433 	0.116855 	1.49194 	0
41.0988 	-0.0134433 	0.116855 	1.49194 	0
41.1689 	-0.0134433 	0.116855 	1.49194 	0
41.239 	-0.0134433 	0.116855 	1.49194 	0
41.3092 	-0.0134433 	0.116855 	1.49194 	0
41.3793 	-0.0134433 	0.116855 	1.49194 	0
41.4494 	-0.0134433 	0.116855 	1.49194 	0
41.5196 	-0.0134433 	0.116855 	1.49194 	0
41.5897 	-0.0134433 	0.116855 	1.49194 	0
41.6598 	-0.0134433 	0.116855 	1.49194 	0
41.73 	-0.0134433 	0.116855 	1.49194 	0
41.8001 	-0.0134433 	0.116855 	1.49194 	0
41.8702 	-0.0134433 	0.116855 	1.49194 	0
41.9404 	-0.0134433 	0.116855 	1.49194 	0
42.0105 	-0.0197911 	0.0715434 	1.49418 	0
42.0806 	-0.0197911 	0.0715434 	1.49418 	0
42.1508 	-0.0197911 	0.0715434 	1.49418 	0
42.2209 	-0.0197911 	0.0715434 	1.49418 	0
42.291 	-0.0197911 	0.0715434 	1.49418 	0
42.3612 	-0.0197911 	0.0715434 	1.49418 	0
42.4313 	-0.0197911 	0.0715434 	1.49418 	0
42.5014 	-0.0197911 	0.0715434 	1.49418 	0
42.5716 	-0.0197911 	0.0715434 	1.49418 	0
42.6417 	-0.0197911 	0.0715434 	1.49418 	0
42.7118 	-0.0197911 	0.0715434 	1.49418 	0
42.782 	-0.0197911 	0.0715434 	1.49418 	0
42.8521 	-0.0197911 	0.0715434 	1.49418 	0
42.9222 	-0.0197911 	0.0715434 	1.49418 	0
42.9924 	-0.0197911 	0.0715434 	1.49418 	0
43.0625 	-0.0197911 	0.0715434 	1.49418 	0
43.1327 	-0.0197911 	0.0715434 	1.49418 	0
43.2028 	-0.0182598 	0.036146 	1.4876 	0
43.2729 	-0.0182598 	0.036146 	1.4876 	0
43.3431 	-0.0182598 	0.036146 	1.4876 	0
43.4132 	-0.0182598 	0.036146 	1.4876 	0
43.4833 	-0.0182598 	0.036146 	1.4876 	0
43.5535 	-0.0182598 	0.036146 	1.4876 	0
43.6236 	-0.0182598 	0.036146 	1.4876 	0
43.6937 	-0.0182598 	0.036146 	1.4876 	0
43.7639 	-0.0182598 	0.036146 	1.4876 	0
43.834 	-0.0182598 	0.036146 	1.4876 	0
43.9041 	-0.0182598 	0.036146 	1.4876 	0
43.9743 	-0.0182598 	0.036146 	1.4876 	0
44.0444 	-0.0182598 	0.036146 	1.4876 	0
44.1145 	-0.0182598 	0.036146 	1.4876 	0
44.1847 	-0.0182598 	0.036146 	1.4876 	0
44.2548 	-0.0182598 	0.036146 	1.4876 	0
44.3249 	-0.0182598 	0.036146 	1.4876 	0