/*--------------------------------*- C++ -*----------------------------------*\
| =========                 |                                                 |
| \\      /  F ield         | OpenFOAM: The Open Source CFD Toolbox           |
|  \\    /   O peration     | Version:  2306                                  |
|   \\  /    A nd           | Website:  www.openfoam.com                      |
|    \\/     M anipulation  |                                                 |
\*---------------------------------------------------------------------------*/
FoamFile
{
    version     2.0;
    format      ascii;
    arch        "LSB;label=32;scalar=64";
    class       surfaceScalarField;
    location    "57";
    object      phi;
}
// * * * * * * * * * * * * * * * * * * * * * * * * * * * * * * * * * * * * * //

dimensions      [0 3 -1 0 0 0 0];

oriented        oriented;

internalField   nonuniform List<scalar> 
17370
(
-0.0910988
0.0935452
0.286564
-0.0749545
0.0569546
0.364775
-0.0409381
0.0299546
0.427152
-0.0212007
0.0156015
0.504851
-0.0113525
0.0086535
0.602101
-0.00652115
0.00506815
0.720511
-0.00384878
0.00297703
0.863778
-0.00220914
0.00163372
1.03603
-0.00110408
0.000684184
1.24292
-0.000273975
-0.000119501
1.49158
0.000505214
-0.0009182
1.4916
0.00132145
-0.00182444
1.24319
0.00237248
-0.00311059
1.03638
0.00395917
-0.00516028
0.864108
0.00660294
-0.00872766
0.721182
0.0114198
-0.0156599
0.603455
0.0212502
-0.0299939
0.508183
0.0409675
-0.0569754
0.432176
0.0749708
-0.0935546
0.365359
0.0911118
0.197899
-0.127347
0.0881445
0.0392025
-0.364737
0.35379
-0.0726289
0.083576
-0.446566
0.454369
-0.0817101
0.0739068
-0.520972
0.529525
-0.0657981
0.057245
-0.612851
0.621017
-0.0494939
0.0413277
-0.727002
0.733791
-0.0344002
0.0276111
-0.867515
0.872453
-0.0222678
0.0173298
-1.03855
1.04191
-0.0136087
0.0102546
-1.24471
1.24713
-0.00769818
0.00528527
-1.49284
1.49486
-0.00331687
0.00129874
-1.49269
1.49451
0.000522456
-0.00234455
-1.2441
1.24602
0.00432113
-0.00623629
-1.0376
1.04008
0.0085792
-0.0110649
-0.866159
0.869808
0.0143377
-0.0179874
-0.724479
0.729771
0.0228567
-0.0281483
-0.608887
0.615773
0.034889
-0.0417748
-0.514989
0.522696
0.0498947
-0.0576015
-0.439772
0.447829
0.0661004
-0.0741571
-0.375155
0.377
0.0818969
-0.0837417
-0.256916
0.223418
0.0727444
-0.039247
-0.0686539
0.0589243
0.00972961
-0.0520747
0.0587704
-0.374543
0.367848
-0.057884
0.0540569
-0.45383
0.457657
-0.0486984
0.0443588
-0.527745
0.532085
-0.0401353
0.0363526
-0.621106
0.624889
-0.0321282
0.0280549
-0.734881
0.738954
-0.023579
0.0195827
-0.874052
0.878048
-0.0154417
0.0119218
-1.0434
1.04692
-0.00835052
0.00528307
-1.24867
1.25173
-0.00204489
-0.000958559
-1.49695
1.49995
0.0039405
-0.00711758
-1.49743
1.50061
0.0100958
-0.0135464
-1.2501
1.25355
0.016945
-0.0209469
-1.04572
1.04972
0.0248198
-0.0291724
-0.877316
0.881669
0.0331468
-0.0372751
-0.73931
0.743438
0.0409775
-0.0451201
-0.62634
0.630482
0.049391
-0.0546826
-0.534934
0.540226
0.0584365
-0.0592305
-0.457917
0.458711
0.0524182
-0.0320408
-0.336392
0.316015
0.00978725
-0.0685003
0.0587131
-0.0531658
0.0491168
0.00404893
-0.0331638
0.0436551
-0.358378
0.347887
-0.0473707
0.0467825
-0.459515
0.460104
-0.0438043
0.0405332
-0.53603
0.539301
-0.0368211
0.0334842
-0.628452
0.631789
-0.0299169
0.0267631
-0.742267
0.745421
-0.0234084
0.0202356
-0.881587
0.88476
-0.0166316
0.0132466
-1.05041
1.05379
-0.00950451
0.00605996
-1.25503
1.25848
-0.00222821
-0.00142534
-1.50333
1.50699
0.00504771
-0.00878831
-1.50414
1.50788
0.0121081
-0.0156806
-1.25716
1.26073
0.018893
-0.0222987
-1.05349
1.0569
0.0252952
-0.0284728
-0.885279
0.888457
0.0314837
-0.0349114
-0.746929
0.750357
0.0381315
-0.0417231
-0.634496
0.638087
0.0448899
-0.0477505
-0.544452
0.547313
0.0482157
-0.0443274
-0.456877
0.452989
0.0336291
-0.016265
-0.296642
0.279277
0.00411881
-0.052892
0.0487732
-0.0459958
0.0434713
0.00252445
-0.0229219
0.0332861
-0.337249
0.326885
-0.0390648
0.0400478
-0.459817
0.458834
-0.0388281
0.0365262
-0.541976
0.544278
-0.0338832
0.0313188
-0.634789
0.637353
-0.0283099
0.0254485
-0.74849
0.751351
-0.0222102
0.01921
-0.887764
0.890764
-0.0158868
0.0127713
-1.05697
1.06008
-0.00921828
0.00580551
-1.2619
1.26531
-0.00187153
-0.00195306
-1.51075
1.51458
0.00573757
-0.00954881
-1.51169
1.5155
0.0127965
-0.0161272
-1.2642
1.26753
0.019017
-0.0220812
-1.06006
1.06312
0.0248486
-0.0278489
-0.891601
0.894602
0.0305147
-0.0333312
-0.753545
0.756361
0.0357357
-0.0382172
-0.641088
0.643569
0.0403804
-0.0414173
-0.549127
0.550164
0.0402438
-0.0341865
-0.447788
0.441731
0.0235181
-0.010294
-0.26409
0.250866
0.00261039
-0.0455744
0.042964
-0.041374
0.0395884
0.00178555
-0.0168554
0.0261289
-0.317021
0.307747
-0.0327359
0.0348687
-0.457253
0.45512
-0.0344429
0.0327577
-0.546284
0.547969
-0.0305535
0.0284458
-0.639657
0.641765
-0.0260192
0.0236361
-0.75397
0.756354
-0.020803
0.0180414
-0.893627
0.896388
-0.0148444
0.011805
-1.06311
1.06615
-0.00833956
0.005025
-1.26863
1.27195
-0.00118438
-0.00256842
-1.51836
1.52211
0.00626928
-0.00995627
-1.51925
1.52294
0.0130629
-0.0162472
-1.27079
1.27397
0.019
-0.0218659
-1.06614
1.06901
0.0243265
-0.0268502
-0.8974
0.899924
0.0289795
-0.0311586
-0.758811
0.76099
0.0330626
-0.0350592
-0.645761
0.647757
0.0365425
-0.0367198
-0.550718
0.550895
0.0342943
-0.0272806
-0.435106
0.428092
0.0175986
-0.00743731
-0.239319
0.229158
0.00189047
-0.0407718
0.0388814
-0.0380503
0.0367075
0.0013428
-0.0128816
0.0208613
-0.299125
0.291145
-0.0276279
0.0305551
-0.452559
0.449632
-0.0307648
0.0296451
-0.549402
0.550522
-0.0276514
0.0257323
-0.643813
0.645732
-0.0235295
0.0213944
-0.75859
0.760725
-0.0188891
0.0164167
-0.898947
0.901419
-0.0134864
0.0106211
-1.06906
1.07193
-0.00728158
0.00405951
-1.27518
1.2784
-0.000325341
-0.00330303
-1.52577
1.5294
0.00686649
-0.0104083
-1.52654
1.53008
0.0133711
-0.0163603
-1.27708
1.28007
0.0188664
-0.0213801
-1.07173
1.07424
0.0234748
-0.0255918
-0.902233
0.90435
0.0274063
-0.0292939
-0.76301
0.764898
0.0309553
-0.0327
-0.649606
0.65135
0.0335245
-0.0329681
-0.550707
0.550151
0.0296229
-0.0222999
-0.420867
0.413544
0.013796
-0.0057556
-0.220158
0.212118
0.00147048
-0.0372277
0.0357572
-0.0355343
0.0344992
0.00103512
-0.0100727
0.0168259
-0.283803
0.27705
-0.0233359
0.0267222
-0.446455
0.443069
-0.0275109
0.0268201
-0.551421
0.552112
-0.0250615
0.0232821
-0.647625
0.649404
-0.0212213
0.0192149
-0.762794
0.764801
-0.0168539
0.0145367
-0.903745
0.906062
-0.0118096
0.00913276
-1.07463
1.0773
-0.00598021
0.00290231
-1.28151
1.28459
0.000691982
-0.00418631
-1.53294
1.53643
0.00760091
-0.0109573
-1.53352
1.53688
0.013714
-0.0164328
-1.28294
1.28566
0.0186672
-0.0208811
-1.07663
1.07884
0.0227312
-0.0246103
-0.906362
0.908241
0.0262188
-0.0278881
-0.766676
0.768345
0.029348
-0.0307634
-0.652947
0.654362
0.0310874
-0.0298058
-0.549245
0.547963
0.0258446
-0.0186035
-0.406236
0.398995
0.0111925
-0.00463859
-0.204891
0.198337
0.00119038
-0.0344436
0.0332532
-0.0335898
0.0327826
0.000807206
-0.00799106
0.0136725
-0.270862
0.265181
-0.0197039
0.0232937
-0.439571
0.435981
-0.0245652
0.0241242
-0.552713
0.553154
-0.0226377
0.0209696
-0.651181
0.652849
-0.0190065
0.0170902
-0.766759
0.768675
-0.0148289
0.0126059
-0.908266
0.910489
-0.00998787
0.0074285
-1.07985
1.0824
-0.00442859
0.00149819
-1.28754
1.29047
0.00192729
-0.00525469
-1.53981
1.54314
0.00848591
-0.0116206
-1.54011
1.54325
0.0141578
-0.0166297
-1.28826
1.29073
0.0186485
-0.0206367
-1.08098
1.08297
0.0222846
-0.0239521
-0.910039
0.911706
0.0253782
-0.026858
-0.76992
0.7714
0.0281274
-0.0291703
-0.655567
0.65661
0.0291258
-0.0271829
-0.546354
0.544411
0.0228259
-0.0158575
-0.391887
0.384918
0.0093595
-0.0038642
-0.192364
0.186869
0.000995957
-0.0321734
0.0311774
-0.0320728
0.0314418
0.000631046
-0.00638728
0.0111535
-0.259985
0.255219
-0.0166003
0.020197
-0.432388
0.428792
-0.0217982
0.0215868
-0.553519
0.55373
-0.0203372
0.0187316
-0.654536
0.656141
-0.0168277
0.0149642
-0.770559
0.772422
-0.0127663
0.0106071
-0.912603
0.914762
-0.00806496
0.00558307
-1.08485
1.08733
-0.0026836
-0.000126157
-1.29329
1.2961
0.00340095
-0.00655577
-1.54634
1.5495
0.00959
-0.0125043
-1.54625
1.54917
0.0148436
-0.0171025
-1.29311
1.29537
0.0189264
-0.0207
-1.0849
1.08668
0.0221555
-0.0236266
-0.913303
0.914774
0.0248896
-0.026199
-0.772797
0.774107
0.0273252
-0.0279572
-0.65743
0.658062
0.0275473
-0.0250509
-0.542206
0.539709
0.0204563
-0.0138294
-0.378132
0.371505
0.00805632
-0.0033211
-0.181793
0.177058
0.000860265
-0.0302607
0.0294004
-0.0308902
0.0304016
0.000488641
-0.00509839
0.00907624
-0.250873
0.246895
-0.0138938
0.017349
-0.425275
0.421819
-0.019141
0.0191257
-0.553889
0.553904
-0.0180771
0.0165101
-0.657796
0.659363
-0.0146333
0.0127893
-0.774265
0.776109
-0.0106152
0.00848486
-0.916818
0.918948
-0.00598608
0.00355653
-1.08969
1.09212
-0.000727914
-0.00200087
-1.2988
1.30153
0.00514408
-0.00814254
-1.55253
1.55553
0.0109957
-0.0137065
-1.55195
1.55467
0.0158579
-0.0179087
-1.29754
1.29959
0.0195413
-0.0211058
-1.08841
1.08998
0.022378
-0.0236682
-0.916184
0.917475
0.0247839
-0.0259381
-0.775338
0.776492
0.0268796
-0.0271403
-0.658493
0.658753
0.0263377
-0.0233745
-0.536994
0.534031
0.0186429
-0.0123523
-0.365068
0.358777
0.00713603
-0.00294429
-0.172629
0.168437
0.000767652
-0.0285973
0.0278297
-0.0299805
0.029612
0.000368472
-0.00402054
0.00730661
-0.243287
0.240001
-0.0114836
0.0146877
-0.418506
0.415302
-0.0165451
0.0166903
-0.553892
0.553747
-0.0157289
0.0142395
-0.660968
0.662457
-0.0123622
0.0105058
-0.777944
0.7798
-0.00831823
0.00618328
-0.92098
0.923115
-0.00369269
0.00128266
-1.09445
1.09686
0.00149906
-0.00416492
-1.30416
1.30683
0.00720962
-0.0100782
-1.55842
1.56129
0.0127704
-0.0152886
-1.55725
1.55977
0.0172548
-0.019098
-1.30154
1.30339
0.0205416
-0.021901
-1.09152
1.09288
0.0229934
-0.0241066
-0.918713
0.919826
0.0250768
-0.0260641
-0.777562
0.77855
0.0267541
-0.0267205
-0.658883
0.65885
0.025511
-0.0221382
-0.530881
0.527508
0.0173178
-0.0113129
-0.352658
0.346653
0.00650665
-0.00269315
-0.164466
0.160653
0.000707896
-0.0271029
0.026395
-0.0293038
0.0290422
0.000261524
-0.00307741
0.00573984
-0.23705
0.234387
-0.00927689
0.0121477
-0.412286
0.409415
-0.0139576
0.014192
-0.553616
0.553382
-0.0132798
0.0118388
-0.664007
0.665448
-0.00993961
0.00804349
-0.781653
0.783549
-0.00581012
0.00363879
-0.925153
0.927324
-0.00111867
-0.00130088
-1.09915
1.10157
0.00407707
-0.00671165
-1.3094
1.31203
0.00968373
-0.0124437
-1.56405
1.56681
0.0149906
-0.0173263
-1.56217
1.5645
0.0191135
-0.0207533
-1.30513
1.30677
0.0220086
-0.0231589
-1.09423
1.09538
0.0240661
-0.0249998
-0.920896
0.92183
0.0258253
-0.0266407
-0.779446
0.780261
0.0270477
-0.0267539
-0.658681
0.658387
0.0250988
-0.0213391
-0.523962
0.520203
0.0164356
-0.0106373
-0.340788
0.33499
0.00611032
-0.00254208
-0.156993
0.153425
0.000674555
-0.0257155
0.0250409
-0.0288377
0.0286776
0.000160122
-0.00220524
0.00428291
-0.232039
0.229961
-0.00717572
0.00964364
-0.406772
0.404304
-0.0112991
0.011545
-0.553213
0.552967
-0.01065
0.0092206
-0.666981
0.668411
-0.00727372
0.00530933
-0.785444
0.787409
-0.00299522
0.000755058
-0.929399
0.93164
0.00183024
-0.00429518
-1.1039
1.10637
0.00709918
-0.00973026
-1.31458
1.31721
0.0126572
-0.0153277
-1.56947
1.57214
0.0177404
-0.0198981
-1.56671
1.56887
0.0215063
-0.0229398
-1.30831
1.30975
0.0240012
-0.0249297
-1.09654
1.09747
0.0256351
-0.0263713
-0.922718
0.923454
0.0270427
-0.0277138
-0.780975
0.781646
0.0278159
-0.0271594
-0.657867
0.65721
0.0250789
-0.0209414
-0.516296
0.512159
0.0159359
-0.0102576
-0.329299
0.323621
0.00589844
-0.0024693
-0.14996
0.146531
0.000661642
-0.0243858
0.0237242
-0.028574
0.0285163
5.77579e-05
-0.00135526
0.00286318
-0.228188
0.22668
-0.00509825
0.00710017
-0.402098
0.400096
-0.00849822
0.00867416
-0.552841
0.552665
-0.00775045
0.00629746
-0.669968
0.671421
-0.00426537
0.00220179
-0.789375
0.791438
0.000228446
-0.00257609
-0.933783
0.936131
0.00526671
-0.00781347
-1.10874
1.11129
0.0106808
-0.0133377
-1.31976
1.32242
0.0162452
-0.018842
-1.57471
1.5773
0.0211273
-0.0231065
-1.5709
1.57288
0.0245313
-0.0257506
-1.31107
1.31229
0.0266079
-0.0273014
-1.09843
1.09912
0.0277943
-0.0283178
-0.924155
0.924679
0.0288254
-0.0292962
-0.782143
0.782614
0.0291151
-0.0280406
-0.656307
0.655232
0.0254997
-0.020959
-0.507888
0.503348
0.0158028
-0.0101444
-0.318011
0.312352
0.00584871
-0.00246538
-0.143162
0.139778
0.000667054
-0.0230742
0.0224071
-0.0285154
0.0285669
-5.15003e-05
-0.000480766
0.00141332
-0.225478
0.224545
-0.00296342
0.00443532
-0.39839
0.396918
-0.00547414
0.00549661
-0.55267
0.552647
-0.00448951
0.00296049
-0.673049
0.674578
-0.000813372
-0.00138858
-0.793505
0.795707
0.00398325
-0.00647417
-0.938382
0.940873
0.0093135
-0.0119797
-1.11375
1.11642
0.014951
-0.017666
-1.325
1.32771
0.0205824
-0.0231218
-1.5798
1.58234
0.0252863
-0.0270837
-1.57472
1.57652
0.0283157
-0.0293062
-1.31339
1.31438
0.0299453
-0.0303933
-1.09987
1.10031
0.0306601
-0.0309543
-0.925171
0.925465
0.0312726
-0.0314757
-0.782796
0.782999
0.0310217
-0.0294332
-0.653899
0.65231
0.0263879
-0.0214001
-0.498688
0.4937
0.0160253
-0.0102794
-0.30672
0.300974
0.00594698
-0.0025238
-0.136416
0.132993
0.000688924
-0.021745
0.0210561
-0.0286737
0.0288402
-0.000166566
0.000438943
-0.000113244
-0.223932
0.223606
-0.000702975
0.0015633
-0.395773
0.394913
-0.00213641
0.00192102
-0.552874
0.55309
-0.000771081
-0.00090142
-0.676337
0.67801
0.00322089
-0.00560746
-0.797916
0.800303
0.00841417
-0.0110954
-0.943271
0.945952
0.0141326
-0.0169607
-1.119
1.12183
0.0200776
-0.0228834
-1.33036
1.33316
0.0258354
-0.0283303
-1.58478
1.58728
0.0303738
-0.0319776
-1.57817
1.57977
0.0330024
-0.0337386
-1.31522
1.31595
0.0341389
-0.034325
-1.1008
1.10099
0.0343508
-0.0343944
-0.925723
0.925767
0.0345118
-0.0343812
-0.78282
0.78269
0.0335798
-0.0313943
-0.650507
0.648321
0.0277887
-0.0222839
-0.488592
0.483087
0.0166014
-0.0106507
-0.295207
0.289257
0.00618288
-0.00263919
-0.129554
0.126011
0.000725596
-0.0203662
0.0196406
-0.0290867
0.0293943
-0.000307676
0.00143658
-0.00175651
-0.223636
0.223956
0.00178048
-0.00163718
-0.394375
0.394232
0.00165994
-0.002222
-0.55367
0.554232
0.00359719
-0.00546207
-0.679971
0.681836
0.00800924
-0.0106299
-0.802692
0.805313
0.0137042
-0.0166273
-0.948543
0.951466
0.0199178
-0.0229553
-1.12459
1.12763
0.0262633
-0.0291923
-1.3359
1.33883
0.0322027
-0.0346596
-1.58967
1.59213
0.0365735
-0.0379591
-1.58121
1.58259
0.0387528
-0.0392065
-1.31651
1.31697
0.0393452
-0.0392433
-1.10118
1.10107
0.0390022
-0.0387719
-0.925748
0.925518
0.0386797
-0.0381025
-0.782088
0.781511
0.0368555
-0.0340013
-0.645977
0.643122
0.0297513
-0.0236296
-0.477448
0.471326
0.0175316
-0.0112507
-0.283235
0.276954
0.00654886
-0.00280728
-0.122418
0.118676
0.000775631
-0.0189088
0.0181332
-0.029774
0.030257
-0.000483091
0.00271374
-0.00377791
-0.224662
0.225726
0.00466631
-0.0053159
-0.394424
0.395074
0.00605898
-0.00707623
-0.555287
0.556305
0.00876028
-0.0108879
-0.684051
0.686179
0.0137398
-0.0166617
-0.807937
0.810859
0.0200752
-0.0233036
-0.954305
0.957534
0.0269123
-0.0302115
-1.1306
1.1339
0.0337566
-0.0368379
-1.34169
1.34477
0.0399208
-0.0423346
-1.59447
1.59688
0.0440957
-0.0452302
-1.58379
1.58492
0.0457381
-0.0458896
-1.31721
1.31736
0.0457383
-0.0453139
-1.10092
1.10049
0.0447767
-0.044247
-0.925176
0.924647
0.0438434
-0.0428167
-0.78045
0.779423
0.0410073
-0.0373619
-0.640136
0.636491
0.0323501
-0.0254761
-0.465044
0.45817
0.0188302
-0.01208
-0.270548
0.263798
0.0070414
-0.00302503
-0.114852
0.110836
0.00083777
-0.0173472
0.0165094
-0.0308119
0.0315126
-0.000700669
0.00419745
-0.00614646
-0.227212
0.229161
0.00809925
-0.00964744
-0.39613
0.397678
0.0112112
-0.0128076
-0.557981
0.559578
0.0149428
-0.0174284
-0.688737
0.691222
0.0206879
-0.0239931
-0.813791
0.817096
0.0278315
-0.0314379
-0.960688
0.964295
0.0354355
-0.0390496
-1.13714
1.14076
0.0428737
-0.0461266
-1.34778
1.35103
0.0492795
-0.0516244
-1.59916
1.60151
0.0531903
-0.0540208
-1.58584
1.58667
0.0541904
-0.0539949
-1.31722
1.31703
0.0535141
-0.0527271
-1.09994
1.09916
0.0518599
-0.0509868
-0.923937
0.923064
0.0501838
-0.0486532
-0.7779
0.776369
0.0461411
-0.0415575
-0.632741
0.628157
0.0356347
-0.0278394
-0.451101
0.443306
0.0204935
-0.0131256
-0.256866
0.249498
0.00764763
-0.00328445
-0.106707
0.102343
0.000909034
-0.0156583
0.0147492
-0.0322806
0.0332685
-0.000987904
0.00607528
-0.00907687
-0.231541
0.234543
0.0122821
-0.0148868
-0.399756
0.40236
0.0174182
-0.0197218
-0.562032
0.564336
0.022449
-0.0254187
-0.694227
0.697196
0.0292135
-0.0330038
-0.820424
0.824214
0.0373685
-0.0414345
-0.967839
0.971905
0.0458949
-0.0498723
-1.14432
1.14829
0.0540036
-0.0574275
-1.3542
1.35762
0.0606199
-0.0628416
-1.60368
1.60591
0.0641437
-0.0645898
-1.58724
1.58769
0.0643677
-0.0637375
-1.31644
1.31581
0.0628754
-0.0616705
-1.09816
1.09696
0.0604308
-0.0592124
-0.921934
0.920716
0.0578785
-0.0557442
-0.774323
0.772189
0.052392
-0.0466746
-0.623476
0.617759
0.0396476
-0.0307232
-0.435275
0.42635
0.0225039
-0.0143622
-0.241893
0.233751
0.00834564
-0.00357283
-0.0978422
0.0930694
0.000984965
-0.0138261
0.0128411
-0.0343099
0.0356923
-0.00138231
0.00852136
-0.0128758
-0.237966
0.24232
0.0175661
-0.0214021
-0.405676
0.409512
0.0250641
-0.0282239
-0.567772
0.570932
0.0317195
-0.0353282
-0.700795
0.704403
0.0398175
-0.0442205
-0.828034
0.832437
0.0492264
-0.0538362
-0.97592
0.98053
0.0588251
-0.0631956
-1.15221
1.15658
0.067629
-0.0711846
-1.36093
1.36448
0.0743363
-0.0763325
-1.6079
1.60989
0.077257
-0.0772034
-1.58781
1.58775
0.0765072
-0.0753228
-1.31466
1.31347
0.0740205
-0.0723526
-1.09543
1.09377
0.07071
-0.0690646
-0.919131
0.917485
0.0671429
-0.0642706
-0.769504
0.766632
0.0598767
-0.0527707
-0.61194
0.604834
0.0443976
-0.0340964
-0.417149
0.406848
0.0248123
-0.0157403
-0.225322
0.21625
0.00909725
-0.00386976
-0.0881432
0.0829157
0.00105876
-0.0118448
0.010786
-0.0370939
0.0390376
-0.0019437
0.0119401
-0.0180038
-0.247021
0.253084
0.0244902
-0.0297704
-0.41438
0.41966
0.0347727
-0.0389786
-0.575589
0.579795
0.0434546
-0.047903
-0.708768
0.713216
0.0532866
-0.0584451
-0.836872
0.842031
0.0642074
-0.0694257
-0.985097
0.990315
0.0749647
-0.0796995
-1.16086
1.1656
0.0843525
-0.0879235
-1.36785
1.37142
0.0908693
-0.0924622
-1.61156
1.61315
0.0928311
-0.0921093
-1.58729
1.58656
0.0908011
-0.0889563
-1.3117
1.30985
0.0871173
-0.0849593
-1.09163
1.08947
0.0828994
-0.0806531
-0.915335
0.913088
0.0781833
-0.0743261
-0.763081
0.759223
0.06864
-0.0598347
-0.597606
0.588801
0.0498262
-0.0378653
-0.39624
0.384279
0.0273162
-0.0171713
-0.206859
0.196714
0.00983981
-0.00414398
-0.0775364
0.0718406
0.00112059
-0.00972295
0.00860236
-0.0409554
0.0437725
-0.00281713
0.0168988
-0.0252156
-0.259422
0.267739
0.0339306
-0.0409486
-0.42654
0.433558
0.0475863
-0.0530718
-0.585967
0.591452
0.0588008
-0.0643402
-0.718567
0.724106
0.0708398
-0.0768766
-0.847204
0.853241
0.0834487
-0.0892538
-0.995467
1.00127
0.095249
-0.100206
-1.17016
1.17512
0.104869
-0.108226
-1.37467
1.37803
0.110684
-0.111603
-1.61427
1.61519
0.111167
-0.109552
-1.58531
1.58369
0.107464
-0.104836
-1.30735
1.30472
0.102349
-0.0996159
-1.08664
1.0839
0.097096
-0.0941675
-0.910155
0.907227
0.0910578
-0.085954
-0.754548
0.749444
0.0786488
-0.067756
-0.579815
0.568922
0.0557753
-0.0418499
-0.372008
0.358083
0.0298432
-0.0185191
-0.186261
0.174937
0.0104825
-0.00435293
-0.0660234
0.0598939
0.00115782
-0.00748989
0.00633207
-0.0464683
0.050757
-0.00428876
0.024576
-0.035957
-0.276337
0.287718
0.0475598
-0.0568897
-0.443177
0.452507
0.0655387
-0.072514
-0.599512
0.606488
0.0797811
-0.0867993
-0.730585
0.737603
0.0944604
-0.101292
-0.859226
0.866058
0.108505
-0.114675
-1.00691
1.01308
0.12081
-0.12565
-1.17973
1.18457
0.129912
-0.132662
-1.38085
1.38361
0.134199
-0.134063
-1.61543
1.6153
0.132491
-0.129711
-1.5814
1.57862
0.126656
-0.123081
-1.30134
1.29777
0.119857
-0.116464
-1.08031
1.07692
0.113419
-0.109745
-0.903399
0.899726
0.10572
-0.0989783
-0.743338
0.736597
0.0896549
-0.076227
-0.557734
0.544306
0.061921
-0.045749
-0.3439
0.327728
0.0321343
-0.0195945
-0.163404
0.150864
0.0109041
-0.00444166
-0.0537226
0.0472601
0.00115386
-0.00520026
0.00404639
-0.0546941
0.0620512
-0.00735708
0.038025
-0.0538777
-0.299907
0.31576
0.0695381
-0.0820726
-0.465951
0.478486
0.0929007
-0.101238
-0.616665
0.625002
0.110018
-0.118285
-0.745187
0.753454
0.126827
-0.134034
-0.872646
0.879852
0.141307
-0.147245
-1.01881
1.02475
0.152849
-0.15694
-1.18875
1.19284
0.160135
-0.161667
-1.38551
1.38705
0.161691
-0.160016
-1.6142
1.61253
0.156927
-0.152682
-1.575
1.57076
0.148428
-0.143722
-1.29334
1.28864
0.139647
-0.135552
-1.07242
1.06833
0.131847
-0.127337
-0.894902
0.890392
0.121989
-0.113083
-0.728548
0.719642
0.101176
-0.0846472
-0.530316
0.513788
0.0676984
-0.0491433
-0.311421
0.292866
0.0339012
-0.0202428
-0.13839
0.124732
0.0110228
-0.00437863
-0.0409259
0.0342818
0.00109428
-0.00294015
0.00184587
-0.0689074
0.072989
-0.00408156
0.0290803
-0.0428588
-0.334114
0.347893
0.0567664
-0.0682913
-0.496296
0.507821
0.0785515
-0.088096
-0.636998
0.646543
0.0986857
-0.10837
-0.761253
0.770937
0.119089
-0.128587
-0.886159
0.895656
0.138653
-0.147546
-1.02974
1.03863
0.156742
-0.164509
-1.19582
1.20359
0.172048
-0.177838
-1.38738
1.39317
0.182634
-0.18526
-1.6096
1.61223
0.18568
-0.184453
-1.56544
1.56421
0.182173
-0.178978
-1.28298
1.27979
0.176119
-0.172763
-1.06278
1.05942
0.169775
-0.165303
-0.884089
0.879617
0.157998
-0.144952
-0.708953
0.695907
0.127269
-0.103695
-0.496429
0.472855
0.0806917
-0.0565228
-0.274232
0.250063
0.0377441
-0.021773
-0.111701
0.0957295
0.0114778
-0.0044203
-0.0281585
0.021101
0.00108201
-0.000818392
-0.000263618
-0.0802723
0.0783001
0.00197222
0.00742274
-0.016511
-0.364412
0.3735
0.0270907
-0.0352547
-0.524001
0.532165
0.0434544
-0.0514596
-0.658595
0.666601
0.0612041
-0.0702507
-0.780232
0.789278
0.0798489
-0.0885715
-0.904581
0.913304
0.0977785
-0.105566
-1.04722
1.055
0.113789
-0.120349
-1.21113
1.21769
0.126626
-0.131108
-1.39859
1.40308
0.134162
-0.135205
-1.61394
1.61499
0.134035
-0.131184
-1.56215
1.5593
0.127281
-0.122359
-1.27588
1.27095
0.117817
-0.112818
-1.05407
1.04907
0.108124
-0.102194
-0.870287
0.864357
0.0945236
-0.0830644
-0.678971
0.667511
0.0697162
-0.0537193
-0.447801
0.431804
0.0396068
-0.0263986
-0.226232
0.213024
0.017038
-0.00960216
-0.080727
0.0732912
0.00502337
-0.00195089
-0.0144407
0.0113682
0.000420033
0.00137314
-0.00179318
-0.0816864
0.0787668
0.00291963
-0.00170778
-0.00353992
-0.384893
0.390141
0.0107305
-0.0166309
-0.544453
0.550353
0.0226905
-0.0297014
-0.676787
0.683798
0.0381322
-0.0459843
-0.797427
0.805279
0.0545317
-0.0621355
-0.92127
0.928874
0.0699065
-0.0768276
-1.0626
1.06952
0.0839032
-0.0896041
-1.22378
1.22948
0.0945599
-0.097807
-1.40682
1.41007
0.0998003
-0.0996356
-1.61522
1.61505
0.0972698
-0.0932238
-1.55571
1.55166
0.088366
-0.0826229
-1.26567
1.25993
0.0769121
-0.0707854
-1.04252
1.0364
0.0650186
-0.0582786
-0.854721
0.847981
0.0513231
-0.0419233
-0.652723
0.643323
0.0323606
-0.0222599
-0.414063
0.403963
0.0148572
-0.00910974
-0.199205
0.193458
0.0056655
-0.0032979
-0.0657635
0.0633959
0.00185124
-0.000779876
-0.00825394
0.00718258
0.000148255
0.00240387
-0.00255212
-0.0804256
0.0776659
0.00275966
-0.0053228
0.00280833
-0.398552
0.401066
0.00181614
-0.0062826
-0.55954
0.564007
0.0114169
-0.0173005
-0.691792
0.697676
0.0245001
-0.031216
-0.812482
0.819198
0.0385096
-0.0450214
-0.935938
0.94245
0.0520482
-0.0578893
-1.076
1.08184
0.0640253
-0.068485
-1.23473
1.23919
0.0725953
-0.0751026
-1.41304
1.41555
0.0761394
-0.0749279
-1.61436
1.61315
0.071961
-0.067354
-1.54697
1.54237
0.0620017
-0.0553591
-1.25378
1.24714
0.0491177
-0.0423016
-1.02909
1.02227
0.0357559
-0.028831
-0.838306
0.831381
0.0223096
-0.0150329
-0.630844
0.623567
0.00866548
-0.00350259
-0.392723
0.387561
0.000872223
0.000351511
-0.186216
0.184993
-0.000607281
0.000333772
-0.0600045
0.060278
-0.000122403
3.08491e-05
-0.00578713
0.00587869
-4.52103e-05
0.0029839
-0.00293869
-0.0789163
0.0764771
0.00243928
-0.00643653
0.00552776
-0.407643
0.408552
-0.00215215
-0.00104201
-0.571655
0.574849
0.00523479
-0.010592
-0.704366
0.709724
0.0166432
-0.0225337
-0.825208
0.831098
0.028844
-0.0344897
-0.948499
0.954144
0.0404966
-0.0456683
-1.08753
1.0927
0.0508154
-0.0548501
-1.24348
1.24752
0.0582539
-0.0601686
-1.41764
1.41956
0.0606148
-0.0589141
-1.6117
1.61
0.055535
-0.0503623
-1.53701
1.53184
0.0447259
-0.0379469
-1.24035
1.23357
0.0314541
-0.0241881
-1.01463
1.00736
0.017535
-0.010485
-0.822116
0.815066
0.00459596
0.00117064
-0.613563
0.607796
-0.00525796
0.00744355
-0.380098
0.377912
-0.0074901
0.00633143
-0.181589
0.182747
-0.00480711
0.00305443
-0.059744
0.0614967
-0.00171266
0.000687102
-0.00579704
0.00682259
-0.000208137
0.00314127
-0.00293313
-0.0775187
0.0754299
0.0020888
-0.00631793
0.00591523
-0.413864
0.414267
-0.00391256
0.00135409
-0.580954
0.583513
0.00270635
-0.00729024
-0.715021
0.719605
0.0124916
-0.0176038
-0.836193
0.841306
0.0232135
-0.0282532
-0.959431
0.964471
0.0337337
-0.0382406
-1.09758
1.10209
0.0428337
-0.0464126
-1.25124
1.25482
0.0493176
-0.0508341
-1.42117
1.42269
0.0508893
-0.0492705
-1.60816
1.60654
0.0456589
-0.0405084
-1.52619
1.52104
0.0347984
-0.0279674
-1.22657
1.21974
0.0216633
-0.0142287
-0.999636
0.992201
0.00748366
-0.00061406
-0.80641
0.799541
-0.00464559
0.00927074
-0.599441
0.594816
-0.0122106
0.0132096
-0.372852
0.371853
-0.0119268
0.0096547
-0.181737
0.18401
-0.00739661
0.00482983
-0.0625373
0.0651041
-0.00278688
0.00113839
-0.00769208
0.00934058
-0.000332992
0.0028638
-0.00253081
-0.0764539
0.0748243
0.00162962
-0.00544848
0.0053801
-0.418477
0.418545
-0.00377478
0.00185575
-0.589044
0.590963
0.0019329
-0.00607851
-0.72423
0.728376
0.0110109
-0.0154084
-0.84601
0.850408
0.0203305
-0.0247902
-0.969466
0.973926
0.0299786
-0.0340585
-1.10662
1.1107
0.0381143
-0.0414718
-1.2582
1.26156
0.0444877
-0.0458055
-1.4242
1.42552
0.0458525
-0.0441157
-1.6045
1.60277
0.0408502
-0.0355849
-1.51569
1.51043
0.0302111
-0.0237557
-1.21278
1.20633
0.0175316
-0.0105428
-0.984681
0.977693
0.00400175
0.00268782
-0.79136
0.78467
-0.00758992
0.0116649
-0.587271
0.583196
-0.0141582
0.0147302
-0.367999
0.367427
-0.0134705
0.0110513
-0.184114
0.186533
-0.00856355
0.00571225
-0.0669527
0.069804
-0.00338578
0.00143937
-0.010698
0.0126445
-0.000421784
0.00230053
-0.00187874
-0.0758912
0.074612
0.00127919
-0.00438514
0.00444519
-0.422132
0.422072
-0.00303692
0.00120763
-0.596076
0.597906
0.00244039
-0.00613584
-0.732491
0.736186
0.0103593
-0.0145957
-0.854738
0.858974
0.0191336
-0.0237201
-0.978178
0.982765
0.0281703
-0.0320568
-1.11486
1.11875
0.0362269
-0.0393273
-1.26478
1.26789
0.0418489
-0.0435587
-1.42673
1.42844
0.0437623
-0.042294
-1.60108
1.59961
0.0391884
-0.034504
-1.5054
1.50071
0.0294653
-0.0233642
-1.19962
1.19352
0.0175616
-0.01095
-0.97054
0.963929
0.0048119
0.0013985
-0.777177
0.770966
-0.00632698
0.0101676
-0.576156
0.572316
-0.0123654
0.0132985
-0.364255
0.363322
-0.012548
0.0104403
-0.186645
0.188752
-0.00822252
0.00558771
-0.0716766
0.0743114
-0.00339252
0.00149933
-0.0141257
0.0160189
-0.000433762
0.00156597
-0.0011322
-0.0758524
0.0747904
0.00106203
-0.00312377
0.00295621
-0.425407
0.425575
-0.00181062
5.96769e-05
-0.602548
0.604299
0.00347991
-0.00706252
-0.740163
0.743745
0.0111073
-0.0149304
-0.86298
0.866803
0.0195743
-0.023365
-0.986761
0.990552
0.0277758
-0.0314755
-1.12278
1.12648
0.0355228
-0.0388097
-1.27096
1.27424
0.0416096
-0.043099
-1.4299
1.43139
0.0436444
-0.0425847
-1.59808
1.59702
0.0401292
-0.0357681
-1.49595
1.49159
0.0311829
-0.0255242
-1.1876
1.18194
0.0201831
-0.0140119
-0.957134
0.950963
0.00844287
-0.0025063
-0.764008
0.758072
-0.00233997
0.0062691
-0.565783
0.561854
-0.00853648
0.00959781
-0.360185
0.359123
-0.00953551
0.00821449
-0.188502
0.189823
-0.00663313
0.00460209
-0.075794
0.077825
-0.00284626
0.00129593
-0.0172912
0.0188415
-0.000378062
0.000815571
-0.000437509
-0.076096
0.0753629
0.000733193
-0.00198232
0.00138253
-0.42877
0.42937
-0.000418727
-0.00169276
-0.608123
0.610235
0.00477161
-0.00818073
-0.747327
0.750736
0.0120474
-0.0159942
-0.870472
0.874418
0.020016
-0.0239629
-0.994537
0.998484
0.0283331
-0.0318234
-1.1306
1.13409
0.0359595
-0.0392014
-1.27732
1.28057
0.0420632
-0.0440882
-1.43328
1.43531
0.0451356
-0.0443776
-1.59601
1.59526
0.0421859
-0.0385668
-1.48745
1.48383
0.0345715
-0.0293766
-1.17625
1.17106
0.0244203
-0.018978
-0.944806
0.939364
0.0134955
-0.00807479
-0.751516
0.746095
0.00334463
0.00103485
-0.555994
0.551615
-0.00345408
0.00496055
-0.35547
0.353963
-0.00544838
0.00509376
-0.189145
0.189499
-0.00423762
0.00304267
-0.0785999
0.0797948
-0.00195792
0.000922459
-0.0196858
0.0207213
-0.000270267
0.000179175
9.10929e-05
-0.0767621
0.0761951
0.000566978
-0.00101579
0.000520489
-0.432361
0.432857
0.00113334
-0.00309464
-0.613959
0.615921
0.00631296
-0.00958864
-0.75395
0.757226
0.0133025
-0.0168438
-0.878017
0.881558
0.0209854
-0.0246172
-1.00242
1.00605
0.0289379
-0.032865
-1.13802
1.14195
0.036646
-0.0402222
-1.28384
1.28742
0.0435146
-0.0456458
-1.43723
1.43936
0.0470867
-0.0471298
-1.59473
1.59477
0.0454115
-0.0424727
-1.48013
1.47719
0.0387808
-0.0341873
-1.16601
1.16142
0.0297981
-0.0246843
-0.933596
0.928482
0.0197183
-0.0144908
-0.73987
0.734642
0.00985782
-0.00526001
-0.545883
0.541285
0.00215386
-2.0677e-05
-0.349938
0.347805
-0.00123194
0.00173559
-0.188153
0.187649
-0.00170081
0.00134856
-0.0797521
0.0801043
-0.000938245
0.000488717
-0.02104
0.0214895
-0.000162
-0.000237716
0.000399717
-0.0777053
0.0773286
0.000376751
-1.54255e-05
-0.000776107
-0.436045
0.436837
0.00232827
-0.0045995
-0.619397
0.621668
0.00773001
-0.0108393
-0.76034
0.76345
0.0146388
-0.0180297
-0.885064
0.888455
0.0220139
-0.0257696
-1.01015
1.01391
0.0299981
-0.033895
-1.14572
1.14962
0.0379043
-0.0415168
-1.29091
1.29452
0.0450092
-0.0479024
-1.44178
1.44467
0.0498062
-0.0501688
-1.59475
1.59512
0.0491769
-0.0466345
-1.47419
1.47165
0.0435947
-0.0396624
-1.15688
1.15295
0.0354487
-0.0306694
-0.923153
0.918373
0.0259668
-0.0207499
-0.728759
0.723542
0.0161813
-0.0112607