/*--------------------------------*- C++ -*----------------------------------*\
| =========                 |                                                 |
| \\      /  F ield         | OpenFOAM: The Open Source CFD Toolbox           |
|  \\    /   O peration     | Version:  2306                                  |
|   \\  /    A nd           | Website:  www.openfoam.com                      |
|    \\/     M anipulation  |                                                 |
\*---------------------------------------------------------------------------*/
FoamFile
{
    version     2.0;
    format      ascii;
    arch        "LSB;label=32;scalar=64";
    class       volVectorField;
    location    "57";
    object      U;
}
// * * * * * * * * * * * * * * * * * * * * * * * * * * * * * * * * * * * * * //

dimensions      [0 1 -1 0 0 0 0];

internalField   nonuniform List<vector> 
8800
(
(0.984957 -0.0884525 0)
(1.00213 -0.0568264 0)
(0.999648 -0.03056 0)
(0.999991 -0.0158685 0)
(1.00007 -0.00872892 0)
(1.00008 -0.0050931 0)
(1.00005 -0.00300337 0)
(1.00002 -0.00169194 0)
(0.999998 -0.000787461 0)
(1.00006 -8.52951e-05 0)
(0.999987 0.000627144 0)
(0.999995 0.00138534 0)
(1.00002 0.00241243 0)
(1.00004 0.00400851 0)
(1.00004 0.00671613 0)
(1 0.0117403 0)
(0.999829 0.0220509 0)
(0.999164 0.0411664 0)
(1.00748 0.0768945 0)
(0.773654 0.0450712 0)
(0.361004 -0.0151714 0)
(1.04556 -0.0742015 0)
(1.0871 -0.0678908 0)
(1.04774 -0.0523041 0)
(1.02457 -0.0384034 0)
(1.01239 -0.0261267 0)
(1.00649 -0.0167773 0)
(1.00362 -0.0102551 0)
(1.00219 -0.00560265 0)
(1.00152 -0.00198963 0)
(1.00139 0.00124397 0)
(1.00173 0.00457011 0)
(1.0027 0.00847908 0)
(1.00471 0.0138162 0)
(1.0088 0.0215377 0)
(1.01734 0.0323538 0)
(1.03444 0.0456916 0)
(1.06547 0.0597971 0)
(1.09408 0.072921 0)
(0.842202 0.0557155 0)
(0.21708 -0.00164668 0)
(1.07586 -0.0503589 0)
(1.09982 -0.048722 0)
(1.06464 -0.0401757 0)
(1.03997 -0.0330165 0)
(1.02378 -0.0257191 0)
(1.01401 -0.0183262 0)
(1.00852 -0.0115853 0)
(1.00566 -0.00576951 0)
(1.00448 -0.000441149 0)
(1.0048 0.00470388 0)
(1.00663 0.0100334 0)
(1.01056 0.0160776 0)
(1.01786 0.0229808 0)
(1.0305 0.0302332 0)
(1.05064 0.0372303 0)
(1.08034 0.0445669 0)
(1.10617 0.0517795 0)
(0.9428 0.0413373 0)
(0.216451 0.00166813 0)
(0.175904 -0.000645554 0)
(1.01867 -0.0354154 0)
(1.10557 -0.0414279 0)
(1.07811 -0.0362676 0)
(1.05285 -0.030246 0)
(1.03559 -0.0245217 0)
(1.02357 -0.0187847 0)
(1.01565 -0.0127484 0)
(1.01099 -0.0065957 0)
(1.00893 -0.000311303 0)
(1.00946 0.00588748 0)
(1.01256 0.0118484 0)
(1.01859 0.017658 0)
(1.02832 0.0232197 0)
(1.04265 0.0286326 0)
(1.06336 0.0342873 0)
(1.09376 0.0402521 0)
(1.0941 0.0418793 0)
(0.828765 0.0227892 0)
(0.174838 0.000668272 0)
(0.154354 -0.000487448 0)
(0.957303 -0.0255615 0)
(1.10409 -0.0351034 0)
(1.08794 -0.0326656 0)
(1.06142 -0.0281203 0)
(1.04354 -0.0231283 0)
(1.03113 -0.0178583 0)
(1.02243 -0.0123395 0)
(1.01679 -0.00641918 0)
(1.01409 6.23427e-05 0)
(1.01473 0.00654826 0)
(1.01856 0.0124339 0)
(1.02543 0.0177282 0)
(1.03565 0.0226808 0)
(1.05031 0.0274807 0)
(1.07199 0.0319562 0)
(1.10067 0.0358356 0)
(1.06908 0.0339778 0)
(0.741157 0.0143688 0)
(0.152749 0.000512753 0)
(0.139824 -0.00035873 0)
(0.90033 -0.0192189 0)
(1.09644 -0.0301621 0)
(1.09605 -0.0292873 0)
(1.06906 -0.025543 0)
(1.05037 -0.0214491 0)
(1.03742 -0.0167223 0)
(1.0284 -0.0114664 0)
(1.02239 -0.00574452 0)
(1.01936 0.000616159 0)
(1.01997 0.00699126 0)
(1.02399 0.0126345 0)
(1.03106 0.0175973 0)
(1.04157 0.0220611 0)
(1.05685 0.02601 0)
(1.07944 0.0294938 0)
(1.10293 0.032167 0)
(1.03714 0.0281256 0)
(0.674491 0.0102544 0)
(0.13756 0.000388404 0)
(0.12917 -0.000274285 0)
(0.850561 -0.0148478 0)
(1.08405 -0.026063 0)
(1.10172 -0.0263982 0)
(1.0759 -0.0231002 0)
(1.05668 -0.0194622 0)
(1.04329 -0.0152558 0)
(1.03391 -0.0103737 0)
(1.02765 -0.00486573 0)
(1.0244 0.00130301 0)
(1.0249 0.00745141 0)
(1.0289 0.012814 0)
(1.0361 0.0173691 0)
(1.0469 0.0212277 0)
(1.06257 0.0245477 0)
(1.08559 0.027546 0)
(1.10209 0.0293388 0)
(1.00234 0.0236029 0)
(0.622554 0.00787471 0)
(0.126103 0.000310054 0)
(0.12104 -0.000211694 0)
(0.808187 -0.0116802 0)
(1.06872 -0.0224715 0)
(1.10523 -0.0237806 0)
(1.08214 -0.0209209 0)
(1.06249 -0.0175032 0)
(1.04882 -0.0135904 0)
(1.03917 -0.0090415 0)
(1.03264 -0.00380848 0)
(1.02916 0.0021278 0)
(1.02949 0.00800878 0)
(1.03344 0.0130196 0)
(1.0407 0.0171134 0)
(1.05161 0.0204856 0)
(1.0675 0.0234084 0)
(1.09089 0.0261025 0)
(1.09838 0.0269955 0)
(0.967163 0.0200467 0)
(0.580839 0.00632492 0)
(0.116998 0.000255003 0)
(0.114733 -0.00016365 0)
(0.772465 -0.00931015 0)
(1.05186 -0.0193113 0)
(1.10757 -0.0213613 0)
(1.08799 -0.0188827 0)
(1.06794 -0.0156217 0)
(1.05402 -0.0118764 0)
(1.04418 -0.0075365 0)
(1.03742 -0.00254996 0)
(1.03368 0.00312347 0)
(1.0338 0.00869438 0)
(1.03763 0.0133253 0)
(1.04482 0.0170124 0)
(1.05575 0.0200064 0)
(1.07186 0.0226024 0)
(1.09493 0.0249545 0)
(1.09187 0.0250463 0)
(0.93294 0.0172952 0)
(0.546349 0.00526278 0)
(0.109505 0.000216132 0)
(0.109806 -0.000125483 0)
(0.742463 -0.00747279 0)
(1.03453 -0.0165105 0)
(1.10895 -0.0190859 0)
(1.09355 -0.0169221 0)
(1.0732 -0.0137621 0)
(1.05901 -0.0101164 0)
(1.04898 -0.00590458 0)
(1.042 -0.00109529 0)
(1.03799 0.00432277 0)
(1.03783 0.00956608 0)
(1.04144 0.0138333 0)
(1.0485 0.0171595 0)
(1.05941 0.0198102 0)
(1.07574 0.0221178 0)
(1.0977 0.024103 0)
(1.08293 0.0234373 0)
(0.900255 0.0151965 0)
(0.517031 0.00451964 0)
(0.103139 0.000189015 0)
(0.105972 -9.39434e-05 0)
(0.717359 -0.00599321 0)
(1.01756 -0.0139975 0)
(1.10948 -0.0168888 0)
(1.09899 -0.0150115 0)
(1.07837 -0.0118725 0)
(1.06388 -0.00826727 0)
(1.05363 -0.00412709 0)
(1.04641 0.000562837 0)
(1.04209 0.00576282 0)
(1.04158 0.010699 0)
(1.04489 0.0146248 0)
(1.05177 0.017608 0)
(1.06266 0.019923 0)
(1.07918 0.0219686 0)
(1.09913 0.0235686 0)
(1.07195 0.0221649 0)
(0.869236 0.0136361 0)
(0.491432 0.0040049 0)
(0.0975553 0.000171126 0)
(0.103039 -6.67149e-05 0)
(0.696511 -0.00475436 0)
(1.00156 -0.0117058 0)
(1.10932 -0.0147325 0)
(1.10427 -0.0130618 0)
(1.08353 -0.00989705 0)
(1.06872 -0.00627589 0)
(1.05821 -0.00214928 0)
(1.0507 0.00246703 0)
(1.04599 0.00749671 0)
(1.04505 0.0121558 0)
(1.04801 0.0157512 0)
(1.05467 0.0183954 0)
(1.06551 0.0203775 0)
(1.08217 0.022162 0)
(1.09958 0.0233532 0)
(1.05923 0.0212301 0)
(0.83974 0.0125219 0)
(0.468469 0.00366179 0)
(0.0924957 0.000160446 0)
(0.100888 -4.17193e-05 0)
(0.679446 -0.00366819 0)
(0.986995 -0.00956465 0)
(1.10867 -0.0125315 0)
(1.10934 -0.0109886 0)
(1.08876 -0.00777695 0)
(1.0736 -0.00408455 0)
(1.06277 8.9401e-05 0)
(1.0549 0.00468457 0)
(1.04972 0.0095918 0)
(1.04826 0.0139999 0)
(1.05079 0.0172735 0)
(1.05719 0.0195796 0)
(1.06796 0.021221 0)
(1.08468 0.0227362 0)
(1.09904 0.02352 0)
(1.04494 0.0206575 0)
(0.811451 0.0117841 0)
(0.447293 0.00345292 0)
(0.0877579 0.000155628 0)
(0.0994541 -1.7119e-05 0)
(0.665858 -0.0026654 0)
(0.974211 -0.00749965 0)
(1.10783 -0.0102264 0)
(1.11435 -0.0087313 0)
(1.09412 -0.00543825 0)
(1.07858 -0.00161407 0)
(1.06738 0.00266511 0)
(1.05906 0.00729825 0)
(1.0533 0.0121299 0)
(1.05122 0.0163078 0)
(1.05323 0.0192587 0)
(1.05932 0.0212164 0)
(1.06998 0.0224953 0)
(1.08673 0.0237439 0)
(1.09728 0.0240779 0)
(1.02917 0.0204193 0)
(0.783978 0.0113644 0)
(0.427226 0.00335124 0)
(0.0831833 0.000155301 0)
(0.0987212 9.15361e-06 0)
(0.655593 -0.00169166 0)
(0.963527 -0.00543846 0)
(1.10714 -0.0077523 0)
(1.11941 -0.00621387 0)
(1.0997 -0.00279157 0)
(1.08374 0.0012286 0)
(1.0721 0.00567693 0)
(1.06322 0.0104106 0)
(1.05676 0.0152075 0)
(1.05393 0.0191672 0)
(1.05533 0.0217884 0)
(1.06103 0.0233786 0)
(1.07157 0.0242719 0)
(1.08825 0.025224 0)
(1.09425 0.025062 0)
(1.0119 0.0205524 0)
(0.756876 0.0112344 0)
(0.407702 0.00334313 0)
(0.0786394 0.000159153 0)
(0.0987102 3.37375e-05 0)
(0.648623 -0.000699374 0)
(0.955242 -0.00330763 0)
(1.10693 -0.00503638 0)
(1.12468 -0.00335244 0)
(1.1056 0.000257875 0)
(1.08918 0.00454271 0)
(1.077 0.00923328 0)
(1.06746 0.0141354 0)
(1.06014 0.0189415 0)
(1.05639 0.0226931 0)
(1.05705 0.0249706 0)
(1.0623 0.0261663 0)
(1.07269 0.0266527 0)
(1.08903 0.0272394 0)
(1.08974 0.0265077 0)
(0.993009 0.021078 0)
(0.729648 0.011376 0)
(0.388208 0.00341983 0)
(0.074006 0.000166686 0)
(0.0994548 7.12722e-05 0)
(0.645027 0.000318727 0)
(0.949676 -0.00103158 0)
(1.10757 -0.00199368 0)
(1.13037 -4.60867e-05 0)
(1.11192 0.00382823 0)
(1.09499 0.00846316 0)
(1.08217 0.0134778 0)
(1.0718 0.0186162 0)
(1.06345 0.0234752 0)
(1.05861 0.0270202 0)
(1.05838 0.0289231 0)
(1.06308 0.0296925 0)
(1.07329 0.0297445 0)
(1.08892 0.0299105 0)
(1.0836 0.0284607 0)
(0.972276 0.022027 0)
(0.701752 0.0117788 0)
(0.368263 0.00357445 0)
(0.0691752 0.000177437 0)
(0.101161 0.000105025 0)
(0.64518 0.00148061 0)
(0.947167 0.00147067 0)
(1.10946 0.00148038 0)
(1.13668 0.00380294 0)
(1.1188 0.00807103 0)
(1.10128 0.0131521 0)
(1.08768 0.0185791 0)
(1.07631 0.0240273 0)
(1.06669 0.0289764 0)
(1.06053 0.0323118 0)
(1.05926 0.0337861 0)
(1.0633 0.0340868 0)
(1.07327 0.0336644 0)
(1.08772 0.0333414 0)
(1.07553 0.0310136 0)
(0.949369 0.0234241 0)
(0.672614 0.0124392 0)
(0.347417 0.00380176 0)
(0.0640501 0.000190923 0)
(0.103892 0.000154229 0)
(0.649455 0.0029039 0)
(0.948217 0.00434564 0)
(1.11311 0.00548959 0)
(1.14383 0.00836388 0)
(1.12638 0.013166 0)
(1.10817 0.0188045 0)
(1.09362 0.02475 0)
(1.08101 0.0305837 0)
(1.06985 0.0356469 0)
(1.06211 0.038734 0)
(1.05964 0.039709 0)
(1.06289 0.0394948 0)
(1.07257 0.038534 0)
(1.08522 0.0376586 0)
(1.06522 0.0342627 0)
(0.923839 0.025326 0)
(0.641608 0.0133606 0)
(0.325229 0.00409858 0)
(0.0585435 0.000206682 0)
(0.107924 0.000219308 0)
(0.65841 0.00457854 0)
(0.95329 0.00775128 0)
(1.11902 0.0102262 0)
(1.15209 0.0138462 0)
(1.13488 0.0193509 0)
(1.11584 0.0256847 0)
(1.10011 0.0322656 0)
(1.08597 0.0385545 0)
(1.07293 0.0437295 0)
(1.06332 0.0464889 0)
(1.05944 0.0468839 0)
(1.06176 0.0460844 0)
(1.0711 0.0445055 0)
(1.08145 0.0430196 0)
(1.05225 0.0383138 0)
(0.895105 0.0277552 0)
(0.608054 0.0145329 0)
(0.30127 0.00445486 0)
(0.0525811 0.000223638 0)
(0.11359 0.00030764 0)
(0.672773 0.00666739 0)
(0.963049 0.0118866 0)
(1.12775 0.0159293 0)
(1.1618 0.0205123 0)
(1.14454 0.0269473 0)
(1.12444 0.0341396 0)
(1.10723 0.0414757 0)
(1.09119 0.0482678 0)
(1.07588 0.0535095 0)
(1.06408 0.0558234 0)
(1.05854 0.0555143 0)
(1.0598 0.0540279 0)
(1.06871 0.05177 0)
(1.07618 0.0495408 0)
(1.03607 0.0432496 0)
(0.862461 0.0307324 0)
(0.571239 0.015935 0)
(0.275156 0.00485492 0)
(0.0461155 0.000240294 0)
(0.121402 0.000433725 0)
(0.693467 0.00939896 0)
(0.978363 0.0170557 0)
(1.13997 0.0229371 0)
(1.17346 0.0287519 0)
(1.15566 0.0364012 0)
(1.13417 0.0446352 0)
(1.11504 0.0528369 0)
(1.09661 0.0601289 0)
(1.07857 0.0653132 0)
(1.06422 0.0669909 0)
(1.05677 0.0657958 0)
(1.0569 0.0635016 0)
(1.06535 0.0604685 0)
(1.06912 0.0573501 0)
(1.01601 0.0491519 0)
(0.825079 0.0342516 0)
(0.530446 0.0175205 0)
(0.246582 0.00527269 0)
(0.0391383 0.000254529 0)
(0.132077 0.000614521 0)
(0.721809 0.0131568 0)
(1.00039 0.0237361 0)
(1.15645 0.0318065 0)
(1.18764 0.0391762 0)
(1.16858 0.0483978 0)
(1.14519 0.0578571 0)
(1.12354 0.0669688 0)
(1.10213 0.0746349 0)
(1.08082 0.0794946 0)
(1.06357 0.080236 0)
(1.05403 0.0779232 0)
(1.05292 0.0746461 0)
(1.06073 0.0706934 0)
(1.0597 0.06649 0)
(0.991181 0.0560496 0)
(0.782032 0.0382434 0)
(0.485024 0.0192011 0)
(0.215396 0.00566696 0)
(0.0316985 0.000263477 0)
(0.146889 0.000906118 0)
(0.7598 0.0185502 0)
(1.03077 0.0327049 0)
(1.17815 0.0434675 0)
(1.2051 0.052844 0)
(1.18362 0.063976 0)
(1.15752 0.0747587 0)
(1.13258 0.0846476 0)
(1.10748 0.0923557 0)
(1.08236 0.0964313 0)
(1.06188 0.0957997 0)
(1.05012 0.092075 0)
(1.04772 0.0876258 0)
(1.05448 0.0826923 0)
(1.04721 0.0771549 0)
(0.960497 0.0638619 0)
(0.732368 0.0425635 0)
(0.434529 0.0208348 0)
(0.18171 0.00598026 0)
(0.0239264 0.000263813 0)
(0.168005 0.00140647 0)
(0.810663 0.0267272 0)
(1.07204 0.0455003 0)
(1.20618 0.059745 0)
(1.2265 0.0718814 0)
(1.20086 0.0847321 0)
(1.17093 0.0966435 0)
(1.14171 0.106804 0)
(1.11219 0.113881 0)
(1.08278 0.11647 0)
(1.05884 0.113878 0)
(1.04481 0.108365 0)
(1.04114 0.10254 0)
(1.04649 0.096601 0)
(1.03085 0.0891586 0)
(0.922605 0.0723583 0)
(0.675301 0.046938 0)
(0.379015 0.0222195 0)
(0.146093 0.00613789 0)
(0.0160665 0.000250998 0)
(0.198781 0.00251511 0)
(0.880088 0.040349 0)
(1.12787 0.0659497 0)
(1.24096 0.0842351 0)
(1.25154 0.0989922 0)
(1.21969 0.113008 0)
(1.18457 0.12511 0)
(1.15011 0.134429 0)
(1.11553 0.139769 0)
(1.0815 0.139857 0)
(1.05407 0.134545 0)
(1.03786 0.126802 0)
(1.03301 0.119377 0)
(1.03648 0.112302 0)
(1.00938 0.102407 0)
(0.875914 0.0810736 0)
(0.610608 0.0509281 0)
(0.319731 0.0231641 0)
(0.110046 0.00609473 0)
(0.00859466 0.000219271 0)
(0.240762 0.00870866 9.47962e-20)
(0.972119 0.0674323 8.45775e-20)
(1.19599 0.100332 -2.959e-20)
(1.27938 0.120635 0)
(1.27744 0.137773 -7.53733e-34)
(1.23799 0.151137 1.10112e-20)
(1.19693 0.161671 -1.97363e-20)
(1.15671 0.168739 0)
(1.11674 0.171269 4.02809e-34)
(1.0778 0.168061 -2.41636e-20)
(1.04661 0.159544 0)
(1.028 0.149347 -2.85375e-20)
(1.02197 0.140361 -8.4038e-20)
(1.02311 0.132677 -3.9627e-20)
(0.979531 0.119627 -1.18864e-20)
(0.815126 0.0918785 -7.0553e-21)
(0.532809 0.0551949 0)
(0.254806 0.0240677 4.91942e-21)
(0.073806 0.0062145 5.7856e-21)
(0.00160407 0.00021631 1.02701e-19)
(0.270066 0.0239413 7.0811e-20)
(1.04819 0.10993 1.04263e-21)
(1.25219 0.149312 7.93469e-21)
(1.31364 0.169719 0)
(1.30009 0.186799 -3.84525e-20)
(1.25358 0.197961 -4.36239e-20)
(1.2066 0.206165 -1.99836e-20)
(1.16051 0.210719 -7.08508e-20)
(1.11481 0.210422 0)
(1.07044 0.203988 1.03204e-19)
(1.03486 0.192342 1.02116e-19)
(1.01339 0.179696 3.02889e-20)
(1.00522 0.168728 1.1015e-19)
(0.999373 0.158522 1.54502e-19)
(0.933548 0.14069 0)
(0.734321 0.104517 2.16686e-19)
(0.442181 0.0601214 3.10196e-19)
(0.187256 0.0247437 3.43505e-19)
(0.0384315 0.00533681 -3.90912e-19)
(-0.00521681 -0.000403124 -7.24486e-21)
(0.271341 0.0398821 0)
(1.09632 0.165137 1.28719e-20)
(1.28995 0.209505 0)
(1.34021 0.229438 -5.06274e-20)
(1.31777 0.243521 0)
(1.26532 0.250811 -8.60608e-20)
(1.21277 0.255307 4.09177e-20)
(1.1611 0.25628 -1.42966e-19)
(1.10996 0.252327 -3.14336e-21)
(1.06039 0.242085 5.34955e-20)
(1.02056 0.226964 2.24551e-19)
(0.996259 0.211693 -5.10822e-22)
(0.985674 0.198698 -8.00456e-20)
(0.973084 0.185938 -1.45585e-19)
(0.892056 0.16283 1.7181e-19)
(0.677802 0.117592 -3.03607e-19)
(0.391565 0.0653297 -4.00209e-20)
(0.155265 0.025659 0)
(0.0230138 0.00417472 -1.72198e-23)
(-0.00826946 -0.00118124 0)
(0.26508 0.0535966 1.71147e-19)
(1.12229 0.223591 -8.3871e-20)
(1.31314 0.274246 -6.40632e-20)
(1.35772 0.29438 2.40689e-20)
(1.32911 0.30459 -4.05404e-20)
(1.27219 0.307383 1.80608e-19)
(1.21505 0.307499 8.55308e-20)
(1.15853 0.304261 0)
(1.10249 0.296133 -2.69039e-19)
(1.04809 0.281679 0)
(1.00424 0.262832 -1.18033e-19)
(0.977156 0.244793 -1.45307e-19)
(0.964118 0.22962 -8.72251e-20)
(0.946362 0.214076 -1.0578e-19)
(0.857417 0.185721 0)
(0.641517 0.132797 0)
(0.366784 0.0735631 -2.59663e-19)
(0.143246 0.0284235 5.12906e-20)
(0.0172797 0.00345234 -2.99461e-20)
(-0.00993059 -0.00198054 -3.45e-20)
(0.257608 0.0656765 -7.18633e-20)
(1.1337 0.281925 0)
(1.32582 0.339916 1.32595e-19)
(1.36713 0.360738 6.82075e-20)
(1.33418 0.367147 9.35419e-20)
(1.274 0.365456 0)
(1.21324 0.361095 8.39907e-20)
(1.15271 0.353479 1.58553e-19)
(1.09243 0.340979 1.38059e-19)
(1.0337 0.322123 2.52233e-19)
(0.986128 0.299385 0)
(0.956339 0.27844 -3.13659e-19)
(0.940923 0.261034 -1.88642e-19)
(0.919286 0.242895 -1.11406e-19)
(0.827906 0.209813 6.79802e-19)
(0.618226 0.150156 8.04873e-20)
(0.35712 0.0848118 3.76139e-19)
(0.144062 0.0333564 -1.78279e-18)
(0.0187969 0.00393524 1.05201e-18)
(-0.0100772 -0.00252583 -1.2495e-18)
(0.250479 0.0766065 -3.86317e-20)
(1.13586 0.33832 1.33356e-20)
(1.33088 0.404636 -1.46965e-20)
(1.37004 0.426619 -7.03286e-20)
(1.33392 0.429464 -7.97308e-20)
(1.27131 0.423476 3.58456e-21)
(1.2077 0.414801 -9.1002e-20)
(1.14388 0.4029 1.64271e-19)
(1.07997 0.386075 -2.9726e-19)
(1.01738 0.362815 0)
(0.966357 0.336139 -1.42278e-19)
(0.933973 0.312264 -3.23262e-21)
(0.916255 0.292634 -2.06486e-19)
(0.891725 0.271897 0)
(0.801414 0.234588 -1.47588e-19)
(0.601734 0.169531 -3.48667e-19)
(0.355589 0.0983567 9.23722e-19)
(0.150866 0.0404673 -9.11318e-19)
(0.0251738 0.00613186 1.29235e-18)
(-0.00874457 -0.00264321 -1.32256e-18)
(0.244512 0.08672 -8.09717e-22)
(1.13231 0.39211 -5.70202e-21)
(1.33046 0.467409 -4.22727e-20)
(1.36788 0.490822 2.86613e-20)
(1.32942 0.490494 -4.02619e-20)
(1.26496 0.48049 0)
(1.19904 0.46776 -8.5093e-20)
(1.13246 0.451789 -1.72186e-19)
(1.0654 0.430811 -1.54678e-19)
(0.999357 0.403267 0)
(0.945172 0.372755 -1.47909e-19)
(0.910344 0.346036 -1.82845e-19)
(0.890434 0.324249 2.24157e-19)
(0.86369 0.30106 -1.35886e-19)
(0.776034 0.259959 -6.46503e-19)
(0.587484 0.190391 3.82154e-19)
(0.356765 0.113165 1.13346e-19)
(0.159916 0.0492343 0)
(0.0337137 0.00977866 -1.25197e-18)
(-0.00661125 -0.00234379 -4.52497e-20)
(0.239804 0.096341 6.68118e-22)
(1.12532 0.443098 7.04279e-22)
(1.32607 0.527763 2.0006e-20)
(1.36189 0.552624 1.01939e-19)
(1.32161 0.549562 -1.49348e-19)
(1.25573 0.535912 1.73647e-19)
(1.18794 0.519437 1.83327e-19)
(1.11901 0.499664 -2.75223e-19)
(1.04918 0.474769 9.51656e-20)
(0.98002 0.443133 -6.20945e-19)
(0.922942 0.408935 -1.67129e-19)
(0.885826 0.379418 0)
(0.863879 0.35549 2.43273e-19)
(0.835427 0.330015 2.91379e-19)
(0.75029 0.285544 3.48463e-19)
(0.573071 0.211775 -4.16049e-19)
(0.356514 0.12888 -1.22934e-19)
(0.168036 0.0593708 1.44257e-19)
(0.0423702 0.0144796 0)
(-0.00412918 -0.00168409 -9.83591e-20)
(0.236252 0.105617 -5.06414e-20)
(1.11651 0.491384 1.93985e-20)
(1.31897 0.585654 -1.81167e-20)
(1.35309 0.611699 6.22176e-20)
(1.31129 0.606274 -6.76864e-20)
(1.24432 0.589343 -8.10954e-21)
(1.17499 0.569478 -2.00255e-19)
(1.10405 0.546216 -9.9555e-20)
(1.03175 0.517667 -2.68792e-19)
(0.959728 0.482171 6.10377e-22)
(0.899955 0.444383 -5.23895e-19)
(0.860739 0.412085 4.41079e-19)
(0.83699 0.386035 -2.67398e-19)
(0.807103 0.358381 3.21303e-19)
(0.724005 0.310588 0)
(0.557163 0.232979 -2.26327e-19)
(0.35336 0.144719 7.12405e-23)
(0.17344 0.0698083 -6.29987e-19)
(0.04949 0.0195822 -9.20682e-20)
(-0.00178957 -0.000841606 0)
(0.233735 0.11469 0)
(1.10678 0.537204 2.75458e-20)
(1.30994 0.641053 -1.60735e-20)
(1.34227 0.667925 -5.71012e-20)
(1.29914 0.660423 -8.54567e-20)
(1.23132 0.640557 0)
(1.16073 0.617654 -9.13662e-20)
(1.08803 0.591229 -2.13122e-21)
(1.01348 0.559329 5.76075e-19)
(0.938794 0.520208 -8.53788e-20)
(0.876456 0.478912 -3.78184e-19)
(0.835293 0.443869 2.29468e-19)
(0.809946 0.415794 -4.41789e-21)
(0.77869 0.385762 3.41756e-19)
(0.697264 0.334488 2.10474e-19)
(0.539457 0.252728 -4.89687e-19)
(0.346817 0.15965 5.77845e-19)
(0.174945 0.0795092 1.70758e-19)
(0.0539455 0.0242602 7.01016e-19)
(4.99374e-06 -3.48312e-05 -1.844e-18)
(0.232189 0.123716 -2.66249e-20)
(1.09682 0.580738 3.02925e-20)
(1.29978 0.693517 -1.55284e-20)
(1.32999 0.721262 4.49186e-20)
(1.28571 0.711899 0)
(1.21723 0.689427 -8.05442e-20)
(1.14559 0.663829 3.06618e-19)
(1.07133 0.63457 2.18445e-19)
(0.994717 0.599633 0)
(0.91748 0.557135 -1.22853e-18)
(0.852652 0.512456 1.02266e-18)
(0.809652 0.474752 0)
(0.782848 0.444593 3.12356e-19)
(0.750211 0.41193 -4.43244e-21)
(0.669834 0.356764 -6.73086e-19)
(0.519548 0.270412 2.62803e-19)
(0.337054 0.172754 0)
(0.172563 0.0875711 9.19795e-19)
(0.0553487 0.0278409 0)
(0.00109158 0.000547672 -8.72601e-19)
(0.231441 0.132745 3.48231e-20)
(1.08706 0.622136 4.77686e-20)
(1.28874 0.743161 -1.30966e-20)
(1.31675 0.771719 0)
(1.27147 0.760678 -7.32155e-20)
(1.20245 0.73591 0)
(1.12992 0.707929 -3.03187e-19)
(1.05428 0.676161 -1.01774e-19)
(0.975742 0.638513 1.01763e-19)
(0.896027 0.592905 -6.07492e-19)
(0.82872 0.545023 1.05638e-19)
(0.783928 0.504696 0)
(0.755703 0.472184 -6.66856e-19)
(0.721674 0.436516 4.37754e-21)
(0.641876 0.376938 0)
(0.497659 0.285651 2.9314e-21)
(0.32406 0.183365 8.44e-19)
(0.166817 0.0933792 -7.94554e-19)
(0.0541481 0.0299563 2.33202e-19)
(0.00149623 0.000833437 0)
(0.231179 0.141665 0)
(1.07786 0.661456 6.30459e-20)
(1.27714 0.790138 3.22608e-20)
(1.30297 0.819359 -4.92001e-21)
(1.25676 0.806792 -2.48809e-20)
(1.18733 0.780002 -1.81155e-19)
(1.11405 0.749931 1.13487e-19)
(1.03715 0.715966 -1.19777e-19)
(0.956802 0.675926 4.53554e-19)
(0.87464 0.627516 -9.70737e-19)
(0.804818 0.576635 -7.70597e-21)
(0.758187 0.533606 -2.92206e-19)
(0.728507 0.498382 1.08146e-18)
(0.69301 0.459299 -5.14921e-21)
(0.613246 0.394749 -5.21737e-19)
(0.4739 0.298143 -9.2827e-19)
(0.308393 0.191226 0)
(0.158051 0.0967718 0)
(0.0508817 0.030609 2.51023e-19)
(0.00134408 0.000797315 -1.455e-19)
(0.231515 0.150636 5.51476e-20)
(1.06913 0.698587 -1.49439e-19)
(1.26529 0.834514 -3.49028e-20)
(1.28893 0.864259 0)
(1.24188 0.850297 -3.03867e-21)
(1.17213 0.821729 -1.66689e-19)
(1.09821 0.789844 2.74636e-19)
(1.02018 0.753978 4.72307e-19)
(0.938109 0.711869 5.89546e-19)
(0.853516 0.660986 -7.92869e-19)
(0.781082 0.607315 -8.77682e-19)
(0.732454 0.561427 7.81122e-19)
(0.70123 0.52316 0)
(0.664144 0.480226 -2.37186e-19)
(0.58393 0.410016 -5.63819e-19)
(0.448521 0.307742 -6.66418e-19)
(0.290364 0.196077 -7.86146e-19)
(0.146691 0.0976192 2.31514e-19)
(0.0458777 0.0299005 -1.35387e-19)
(0.000848659 0.000558856 5.45089e-22)
(0.232016 0.159501 0)
(1.06106 0.734068 0)
(1.25341 0.876392 4.97426e-21)
(1.27485 0.906528 0)
(1.22704 0.891284 5.67164e-20)
(1.15705 0.86115 1.13809e-19)
(1.0826 0.827693 0)
(1.00355 0.790207 5.62088e-20)
(0.919846 0.746343 9.83717e-19)
(0.832829 0.693342 -1.82159e-18)
(0.757628 0.637094 0)
(0.706762 0.58821 -5.02353e-19)
(0.673833 0.546634 -6.08393e-21)
(0.634962 0.49923 -4.80651e-21)
(0.553982 0.422513 6.02459e-19)
(0.422046 0.314261 -3.83998e-22)
(0.270344 0.197809 -1.69204e-18)
(0.133366 0.0959628 4.97696e-19)
(0.0396512 0.0278963 1.46413e-19)
(0.000124124 0.000139665 0)
(0.232577 0.168231 -2.35244e-19)
(1.05339 0.767891 -1.10306e-19)
(1.24158 0.91585 -1.28083e-19)
(1.2609 0.946276 7.24862e-20)
(1.21242 0.929824 7.00131e-20)
(1.14227 0.898327 0)
(1.06738 0.863524 1.66477e-19)
(0.987416 0.824677 -1.24986e-19)
(0.902159 0.779364 7.73255e-21)
(0.812734 0.724616 1.33998e-19)
(0.734574 0.666025 1.13508e-18)
(0.681155 0.614129 -1.7616e-19)
(0.646236 0.569004 -6.65143e-19)
(0.605243 0.516167 -2.75798e-19)
(0.523422 0.431926 3.26912e-19)
(0.39496 0.317492 -8.72905e-24)
(0.249043 0.19631 4.55272e-19)
(0.11897 0.0919468 -1.0697e-18)
(0.0330187 0.0249025 1.2586e-18)
(-0.000691293 -0.00042861 1.80787e-19)
(0.233014 0.176701 9.17049e-20)
(1.04613 0.800153 -6.3787e-20)
(1.22994 0.952986 1.22205e-20)
(1.2472 0.9836 6.20985e-20)
(1.19815 0.96603 -1.53835e-21)
(1.1279 0.933334 -1.98693e-19)
(1.05267 0.897388 4.85129e-20)
(0.971884 0.85741 -5.20796e-19)
(0.885173 0.810937 -1.08316e-18)
(0.793359 0.754812 -1.08437e-18)
(0.712052 0.694183 0)
(0.655691 0.63943 -7.72409e-19)
(0.618329 0.590474 9.57652e-19)
(0.57469 0.530866 0)
(0.492196 0.437954 -6.99495e-19)
(0.367634 0.317053 4.15885e-19)
(0.227604 0.191371 -4.88874e-19)
(0.104823 0.0859607 -5.74889e-19)
(0.0267099 0.0213699 -1.01264e-18)
(-0.00145001 -0.00101066 -7.77738e-19)
(0.233784 0.185032 -1.0555e-19)
(1.03913 0.830838 6.81999e-20)
(1.21854 0.98787 1.5187e-19)
(1.23385 1.01858 1.00386e-19)
(1.18432 0.999995 1.12032e-20)
(1.11404 0.966257 -1.07246e-19)
(1.03855 0.929338 1.6151e-19)
(0.957044 0.888449 -5.34922e-19)
(0.868973 0.841085 -6.40993e-19)
(0.774819 0.783943 1.13412e-18)
(0.690185 0.721653 2.4888e-18)
(0.630461 0.664366 0)
(0.590002 0.611222 0)
(0.542953 0.543292 -3.16979e-19)
(0.459995 0.440371 0)
(0.340144 0.312105 8.93164e-19)
(0.207232 0.182228 1.05002e-18)
(0.0928726 0.0780414 0)
(0.0219468 0.0177321 0)
(-0.00204575 -0.00151637 8.34686e-19)
(0.234206 0.192923 1.22627e-19)
(1.0324 0.859933 1.00649e-19)
(1.20744 1.02062 1.11435e-19)
(1.22091 1.05135 -1.08145e-19)
(1.17099 1.03182 -2.45371e-21)
(1.10074 0.997174 1.0972e-19)
(1.02508 0.959434 -2.21464e-19)
(0.942957 0.917823 -6.01339e-22)
(0.853636 0.869815 -1.00095e-20)
(0.757204 0.812004 -9.78453e-21)
(0.669124 0.748516 1.28047e-18)
(0.605589 0.689133 0)
(0.561212 0.631412 9.67374e-19)
(0.509716 0.55367 6.75575e-19)
(0.42612 0.439219 1.6276e-18)
(0.311866 0.301432 4.8035e-19)
(0.189124 0.166528 -5.64508e-19)
(0.0870714 0.0656235 -3.30522e-19)
(0.0240476 0.0128958 0)
(-0.00072614 -0.00132686 8.9584e-19)
(0.234916 0.200821 -2.80547e-19)
(1.02592 0.887529 0)
(1.19664 1.0513 1.37064e-19)
(1.20841 1.082 -9.60198e-20)
(1.15822 1.06162 2.48851e-20)
(1.08805 1.02617 -1.15902e-19)
(1.01231 0.987735 4.29645e-19)
(0.929659 0.945567 -4.35261e-20)
(0.839202 0.897137 0)
(0.74059 0.838971 -1.24887e-18)
(0.649012 0.77482 -2.78051e-18)
(0.581233 0.71386 1.13638e-19)
(0.532037 0.651211 1.33254e-18)
(0.474826 0.562532 0)
(0.389491 0.435164 1.09662e-18)
(0.280554 0.284144 0)
(0.171712 0.13915 0)
(0.0916905 0.0355151 -3.56944e-19)
(0.0539797 -0.0039138 0)
(0.0277069 0.0110911 2.39694e-19)
(0.235255 0.208112 -3.17966e-19)
(1.01965 0.913966 0)
(1.18613 1.0801 2.3264e-19)
(1.19629 1.11076 0)
(1.14597 1.08963 -2.20405e-20)
(1.0759 1.05353 0)
(1.00017 1.01455 2.11411e-20)
(0.917054 0.972021 7.31423e-20)
(0.825551 0.923415 7.98883e-20)
(0.724812 0.865231 -1.36669e-18)
(0.629676 0.801029 8.33409e-20)
(0.557159 0.739143 9.12367e-19)
(0.502098 0.671284 1.29748e-18)
(0.437516 0.570691 1.74868e-19)
(0.348236 0.429851 8.57973e-19)
(0.241477 0.261294 0)
(0.143421 0.0964248 1.1875e-18)
(0.0782657 -0.0121802 -6.91663e-19)
(0.0416652 0.0470043 7.93751e-19)
(-0.059604 0.434967 -9.41861e-19)
(0.235561 0.215203 2.65974e-19)
(1.01332 0.93902 4.12371e-19)
(1.17583 1.10734 0)
(1.18443 1.13808 9.87976e-21)
(1.13404 1.11646 7.82666e-20)
(1.06403 1.07995 1.29959e-19)
(0.988343 1.04068 1.48287e-19)
(0.904734 0.998122 0)
(0.812152 0.94974 5.3044e-19)
(0.709201 0.892097 -7.14663e-20)
(0.61021 0.82865 0)
(0.532125 0.766639 0)
(0.469532 0.693088 1.16244e-18)
(0.3956 0.578987 -5.40416e-19)
(0.299225 0.425439 -8.68921e-19)
(0.189971 0.236626 0)
(0.0830865 0.100112 5.91786e-19)
(0.00661726 0.442066 -6.7891e-19)
(0.0318799 1.8934 -3.73967e-19)
(0.0627458 2.81019 -4.92919e-19)
(0.23563 0.221522 -2.01853e-19)
(1.00704 0.962853 -5.33461e-19)
(1.16576 1.13301 1.41103e-19)
(1.17281 1.16383 1.06802e-19)
(1.12247 1.14186 0)
(1.05252 1.10513 6.80081e-20)
(0.977036 1.06582 2.01402e-19)
(0.892887 1.02344 -3.53947e-20)
(0.799273 0.975593 7.90433e-20)
(0.694138 0.918962 1.30269e-18)
(0.591212 0.857028 1.40288e-18)
(0.50706 0.795858 1.02205e-18)
(0.43522 0.716548 1.16865e-18)
(0.350764 0.586611 -1.26813e-18)
(0.248363 0.42561 -1.311e-18)
(0.126315 0.276278 0)
(0.0451134 0.833544 0)
(0.0993956 2.55362 3.26498e-19)
(0.102093 3.20179 0)
(0.104612 3.388 7.21092e-19)
(0.238739 0.227354 0)
(1.00139 0.98573 0)
(1.15564 1.15695 0)
(1.16121 1.18784 3.41479e-20)
(1.11092 1.1656 7.59899e-20)
(1.04115 1.12894 2.31137e-20)
(0.966147 1.08986 1.28763e-19)
(0.881458 1.04786 -3.45103e-20)
(0.786867 1.00082 6.61888e-19)
(0.679638 0.945685 -1.83205e-20)
(0.572809 0.886025 2.77111e-18)
(0.48228 0.826537 -1.17789e-19)
(0.399324 0.742596 1.41564e-19)
(0.305507 0.591682 1.83474e-19)
(0.187248 0.439379 -6.55288e-21)
(0.10161 0.965225 3.5384e-21)
(0.140021 2.72362 -1.72161e-18)
(0.147428 3.2934 -6.39626e-19)
(0.136417 3.426 3.23684e-19)
(0.123902 3.44793 -3.56076e-19)
(0.158144 0.179033 1.16974e-19)
(0.991255 1.01056 0)
(1.14521 1.17936 -2.86021e-19)
(1.15007 1.21051 -2.9747e-19)
(1.10011 1.18837 2.11717e-19)
(1.03075 1.15199 -1.36778e-20)
(0.95559 1.1128 -1.31388e-19)
(0.870538 1.07147 3.82633e-19)
(0.775069 1.02558 -5.39665e-19)
(0.66597 0.972431 0)
(0.555365 0.915802 1.35696e-18)
(0.45829 0.858317 -8.33313e-19)
(0.362675 0.774316 0)
(0.253459 0.59693 1.65158e-19)
(0.14654 0.76187 4.02856e-19)
(0.155466 2.49775 -4.72209e-19)
(0.211159 3.32362 5.22235e-19)
(0.191631 3.43879 2.83493e-19)
(0.158985 3.46023 3.13197e-19)
(0.137519 3.47042 5.05124e-19)
(0.27914 0.266144 -2.05305e-19)
(0.975394 1.02058 0)
(1.12728 1.2051 3.2058e-19)
(1.13565 1.24169 3.39622e-19)
(1.08308 1.22164 -2.52602e-19)
(1.01306 1.1857 -3.38768e-20)
(0.936901 1.1481 1.21386e-19)
(0.851356 1.10803 2.99672e-20)
(0.754614 1.06435 5.16459e-19)
(0.64286 1.0152 1.12416e-18)
(0.527272 0.965351 7.68464e-20)
(0.419559 0.911971 7.40925e-19)
(0.297955 0.815624 1.3146e-19)
(0.214362 0.938412 -1.66964e-19)
(0.228743 2.35001 -3.75036e-19)
(0.28823 3.32702 3.54058e-19)
(0.271881 3.46777 -4.00126e-19)
(0.23637 3.48956 -2.32664e-19)
(0.199745 3.51682 -1.90777e-19)
(0.149115 3.51044 -1.83117e-20)
(0.268369 0.263767 0)
(0.973404 1.04377 9.69489e-20)
(1.11914 1.22878 -6.78292e-20)
(1.12529 1.26547 -4.22661e-20)
(1.07244 1.24494 -1.84315e-19)
(1.00241 1.2092 4.3941e-20)
(0.925957 1.1718 -6.20806e-20)
(0.840224 1.13255 2.69124e-20)
(0.742977 1.09034 -5.38808e-19)
(0.629985 1.04408 -2.74779e-20)
(0.511718 0.999172 -2.46347e-18)
(0.39898 0.948786 1.05699e-19)
(0.28359 0.882553 -1.2367e-19)
(0.254373 1.49084 -1.55539e-19)
(0.32761 3.10349 3.47421e-20)
(0.347436 3.46641 1.19931e-21)
(0.306666 3.52144 5.91706e-19)
(0.269724 3.54779 2.89979e-19)
(0.221284 3.57076 -7.3307e-20)
(0.163957 3.56648 -8.81834e-20)
(0.252665 0.261856 2.47815e-19)
(0.969953 1.06956 6.69877e-19)
(1.11056 1.25453 -1.95883e-19)
(1.11431 1.29061 -1.60095e-19)
(1.06123 1.26962 0)
(0.991338 1.23392 1.25226e-19)
(0.914875 1.19678 -6.02491e-20)
(0.829222 1.15831 2.36311e-20)
(0.731789 1.11767 -5.99996e-20)
(0.618095 1.07456 -1.01976e-18)
(0.497972 1.0348 -1.13789e-18)
(0.382161 0.987308 -8.62741e-19)
(0.282926 1.01273 -9.43994e-19)
(0.323138 2.20988 9.67435e-19)
(0.413399 3.37807 7.96685e-19)
(0.391221 3.52401 0)
(0.344977 3.56807 0)
(0.306873 3.6077 -5.96037e-20)
(0.256896 3.66592 0)
(0.176056 3.64228 -6.30174e-20)
(0.242187 0.263798 -3.77335e-19)
(0.964381 1.09626 -5.77055e-19)
(1.10057 1.28152 0)
(1.102 1.31651 1.17619e-20)
(1.04876 1.29491 -2.17543e-19)
(0.979172 1.25915 2.30221e-19)
(0.903022 1.2223 -2.1161e-20)
(0.81766 1.18453 1.37041e-20)
(0.720283 1.14539 -3.82705e-19)
(0.606306 1.10544 5.11725e-20)