/*--------------------------------*- C++ -*----------------------------------*\
| =========                 |                                                 |
| \\      /  F ield         | OpenFOAM: The Open Source CFD Toolbox           |
|  \\    /   O peration     | Version:  2306                                  |
|   \\  /    A nd           | Website:  www.openfoam.com                      |
|    \\/     M anipulation  |                                                 |
\*---------------------------------------------------------------------------*/
FoamFile
{
    version     2.0;
    format      ascii;
    arch        "LSB;label=32;scalar=64";
    class       volScalarField;
    location    "19";
    object      p;
}
// * * * * * * * * * * * * * * * * * * * * * * * * * * * * * * * * * * * * * //

dimensions      [0 2 -2 0 0 0 0];

internalField   nonuniform List<scalar> 
8800
(
0.410223
0.362178
0.32381
0.295178
0.274564
0.259816
0.249212
0.241695
0.23681
0.234638
0.235737
0.239755
0.246252
0.255446
0.268095
0.285606
0.309993
0.343565
0.385979
0.443095
0.242739
0.249949
0.258396
0.261825
0.259924
0.254418
0.247725
0.241565
0.236773
0.233831
0.233402
0.23572
0.24005
0.245886
0.252657
0.259168
0.263224
0.262662
0.256551
0.247542
0.219413
0.225604
0.229829
0.23322
0.235748
0.236571
0.235476
0.233327
0.231243
0.230199
0.230977
0.233159
0.235786
0.237831
0.23822
0.236574
0.233632
0.229918
0.22534
0.221546
0.214239
0.216954
0.219728
0.222101
0.223806
0.225177
0.226114
0.226318
0.225989
0.2258
0.226342
0.227269
0.227826
0.22755
0.226572
0.225217
0.223327
0.220707
0.21821
0.216679
0.209027
0.210463
0.212342
0.214495
0.216339
0.217709
0.218757
0.21961
0.220232
0.22069
0.221073
0.221223
0.220986
0.220401
0.219484
0.218068
0.216173
0.214126
0.212713
0.211896
0.204029
0.204951
0.20631
0.208056
0.209872
0.211537
0.212904
0.214002
0.21493
0.215675
0.216056
0.216013
0.215612
0.214835
0.213627
0.212091
0.210444
0.208931
0.207995
0.207469
0.199271
0.199926
0.201052
0.202599
0.204261
0.20597
0.207608
0.209016
0.210145
0.211015
0.211505
0.211482
0.210951
0.209951
0.208641
0.207225
0.205795
0.204531
0.203812
0.203451
0.194871
0.195351
0.196326
0.19777
0.199328
0.200906
0.202518
0.204109
0.205526
0.20664
0.20722
0.207149
0.206532
0.205582
0.204465
0.203229
0.20193
0.200823
0.200251
0.199997
0.190838
0.191166
0.192017
0.193355
0.194838
0.196338
0.197824
0.199303
0.200768
0.202072
0.202814
0.202905
0.202555
0.201891
0.200982
0.199896
0.198743
0.197777
0.197329
0.19717
0.18748
0.187676
0.188398
0.189644
0.19106
0.192552
0.194139
0.195743
0.197302
0.198736
0.199739
0.200096
0.199913
0.199323
0.198511
0.197585
0.196572
0.195757
0.195435
0.195356
0.184812
0.184921
0.185405
0.186335
0.187453
0.188662
0.189985
0.191496
0.193153
0.194832
0.196116
0.19678
0.196958
0.196842
0.196484
0.19595
0.195331
0.194856
0.194688
0.194644
0.182146
0.182226
0.182537
0.183172
0.184043
0.185129
0.186444
0.187993
0.18977
0.1917
0.193377
0.194448
0.194986
0.195138
0.195083
0.194924
0.194703
0.19454
0.194469
0.19443
0.178858
0.178931
0.179176
0.179657
0.180376
0.181346
0.182647
0.184313
0.186347
0.188675
0.190801
0.192285
0.193225
0.193744
0.194003
0.19418
0.194261
0.194281
0.19426
0.19422
0.17474
0.174795
0.175045
0.175526
0.176237
0.177249
0.178662
0.180519
0.182858
0.185663
0.188374
0.190397
0.191733
0.192637
0.193304
0.193692
0.19393
0.194024
0.19403
0.193994
0.169903
0.169947
0.170218
0.170811
0.171628
0.172803
0.17447
0.176681
0.179505
0.182953
0.186363
0.188984
0.190833
0.192086
0.192951
0.193524
0.193846
0.193981
0.19402
0.193991
0.164414
0.164446
0.164744
0.16547
0.166535
0.167891
0.169879
0.172523
0.175946
0.180201
0.184493
0.187868
0.190296
0.192
0.193143
0.193897
0.194301
0.194501
0.194577
0.194553
0.158264
0.158295
0.15862
0.159429
0.160721
0.162442
0.164844
0.168055
0.17227
0.177547
0.182927
0.18721
0.190323
0.192501
0.194008
0.194964
0.195526
0.195825
0.195937
0.195911
0.15123
0.151262
0.151663
0.152561
0.15406
0.156201
0.159127
0.163098
0.16833
0.174903
0.181623
0.187016
0.190932
0.193726
0.195637
0.196887
0.197653
0.198073
0.198222
0.198189
0.142943
0.142982
0.143467
0.144558
0.146333
0.148934
0.152567
0.157536
0.164077
0.172284
0.180667
0.187382
0.192296
0.195792
0.198201
0.199808
0.200822
0.201378
0.201564
0.201521
0.132902
0.132951
0.133553
0.134908
0.137134
0.140385
0.144964
0.151218
0.159435
0.169698
0.180119
0.188442
0.194547
0.198869
0.201868
0.203892
0.205184
0.205885
0.206114
0.206059
0.120596
0.120666
0.121452
0.123188
0.126027
0.130176
0.136015
0.143968
0.154346
0.167177
0.180086
0.190344
0.197825
0.20314
0.206843
0.209357
0.210968
0.211834
0.212114
0.212045
0.105235
0.105331
0.106379
0.108682
0.112426
0.117845
0.125425
0.135643
0.148787
0.164789
0.180679
0.193207
0.202323
0.208814
0.213352
0.216454
0.218449
0.219506
0.219843
0.219756
0.0856579
0.0857945
0.0872547
0.0904453
0.0955537
0.102832
0.112859
0.126106
0.142777
0.162649
0.182055
0.19722
0.208236
0.216106
0.221644
0.225461
0.227936
0.22925
0.229649
0.229535
0.0601001
0.0603231
0.0624878
0.0671464
0.0743934
0.0844708
0.0979878
0.115303
0.13643
0.16093
0.184385
0.202543
0.215733
0.225212
0.231947
0.236644
0.239709
0.241331
0.241807
0.241659
0.0255103
0.0259516
0.0295319
0.0369213
0.0477677
0.0622149
0.0807274
0.103403
0.130002
0.159876
0.187855
0.209311
0.22492
0.236247
0.244419
0.250223
0.254064
0.256084
0.256644
0.256447
-0.0240408
-0.0225166
-0.0152227
-0.00227378
0.0148735
0.0360595
0.0614504
0.0908813
0.123918
0.159785
0.192627
0.217583
0.235789
0.249166
0.259025
0.266217
0.271115
0.273724
0.27441
0.274138
-0.0977529
-0.0889873
-0.0723303
-0.0493866
-0.0228025
0.00733525
0.0411156
0.0783313
0.118533
0.160972
0.199153
0.228048
0.249301
0.265204
0.277289
0.286525
0.293125
0.29689
0.298014
0.297926
-0.17628
-0.15703
-0.130348
-0.0970006
-0.0607144
-0.0214988
0.0207586
0.0659563
0.113745
0.163518
0.208112
0.242064
0.267394
0.286758
0.301895
0.313873
0.322903
0.32884
0.330916
0.330984
-0.240031
-0.217981
-0.183076
-0.141348
-0.0965363
-0.0488844
0.00148197
0.0543862
0.109486
0.166208
0.216707
0.255134
0.283919
0.306078
0.323517
0.337363
0.347995
0.354943
0.356785
0.357085
-0.291615
-0.267376
-0.227644
-0.179995
-0.128535
-0.073935
-0.0165347
0.0433254
0.105156
0.168281
0.224058
0.266244
0.297687
0.321769
0.340612
0.355529
0.366917
0.374253
0.376528
0.376925
-0.333761
-0.308623
-0.26539
-0.213245
-0.156566
-0.0963609
-0.033058
0.0328393
0.100662
0.169534
0.229951
0.275245
0.308664
0.333998
0.353636
0.369073
0.380744
0.388239
0.39078
0.391138
-0.369637
-0.344001
-0.298282
-0.242462
-0.181522
-0.116629
-0.0482702
0.0229001
0.096049
0.170101
0.234651
0.282592
0.317597
0.343841
0.363932
0.379509
0.39117
0.398623
0.401326
0.401673
-0.4012
-0.375293
-0.327649
-0.268816
-0.204307
-0.135352
-0.0625674
0.0132976
0.0912866
0.170097
0.238513
0.28894
0.325373
0.352336
0.372706
0.388282
0.399883
0.407279
0.410071
0.410402
-0.4299
-0.403753
-0.354513
-0.293165
-0.225593
-0.153101
-0.0763773
0.00375303
0.0862181
0.169555
0.241693
0.294488
0.332271
0.359937
0.380613
0.39627
0.407826
0.415103
0.417956
0.418278
-0.456595
-0.43023
-0.379638
-0.316114
-0.24587
-0.170253
-0.0900035
-0.00599402
0.0806438
0.168288
0.244071
0.299333
0.338606
0.367113
0.388189
0.403989
0.415555
0.422696
0.42553
0.42592
-0.481966
-0.455331
-0.403487
-0.338079
-0.26546
-0.187085
-0.103683
-0.0161357
0.074386
0.166205
0.245773
0.303704
0.344645
0.374134
0.395738
0.41177
0.423386
0.430438
0.433183
0.433582
-0.50629
-0.479351
-0.426363
-0.359364
-0.284623
-0.203781
-0.117545
-0.026768
0.0674167
0.163353
0.246781
0.307585
0.35045
0.381132
0.403436
0.41983
0.431573
0.438579
0.44119
0.441517
-0.529911
-0.50258
-0.44871
-0.380125
-0.30348
-0.22044
-0.131652
-0.0379157
0.0596958
0.159589
0.246957
0.310911
0.356018
0.388163
0.41136
0.428256
0.440199
0.447191
0.449645
0.449878
-0.552871
-0.525062
-0.470501
-0.400443
-0.322117
-0.237126
-0.146048
-0.0496335
0.0511209
0.154816
0.246223
0.3136
0.361276
0.39519
0.419509
0.43706
0.449291
0.456284
0.458604
0.458689
-0.575232
-0.5471
-0.491698
-0.420366
-0.340561
-0.253843
-0.160741
-0.0619473
0.0416869
0.149001
0.244447
0.315507
0.366114
0.402149
0.427854
0.446221
0.458799
0.465754
0.467927
0.467876
-0.597106
-0.568514
-0.512346
-0.439894
-0.358796
-0.270557
-0.175688
-0.0747901
0.0314347
0.142099
0.241509
0.316441
0.370368
0.408937
0.436339
0.455689
0.46866
0.475535
0.477505
0.477329
-0.618481
-0.589379
-0.532471
-0.459008
-0.376769
-0.287219
-0.190814
-0.0880949
0.0203955
0.134088
0.237305
0.316204
0.373794
0.41539
0.444915
0.465452
0.478811
0.485511
0.487195
0.486907
-0.639203
-0.609631
-0.552018
-0.477672
-0.394435
-0.303748
-0.206048
-0.101783
0.00864468
0.12501
0.231756
0.3146
0.376108
0.421269
0.453523
0.475566
0.489202
0.495473
0.496763
0.496366
-0.659233
-0.629223
-0.570964
-0.495824
-0.411725
-0.320081
-0.221297
-0.115761
-0.00371537
0.114917
0.22482
0.31145
0.376996
0.426217
0.462035
0.486265
0.500089
0.505342
0.505927
0.505446
-0.678629
-0.648107
-0.589277
-0.513428
-0.428579
-0.336136
-0.236466
-0.129913
-0.0165762
0.103901
0.216497
0.306628
0.376116
0.429696
0.470069
0.497847
0.51237
0.515614
0.514466
0.513899
-0.697237
-0.666284
-0.606901
-0.530421
-0.444942
-0.351833
-0.251458
-0.144125
-0.0298073
0.0920946
0.206838
0.300048
0.373191
0.431005
0.476741
0.510107
0.527625
0.529052
0.523795
0.52182
-0.715138
-0.68375
-0.623856
-0.54683
-0.460843
-0.367216
-0.26633
-0.158456
-0.0434748
0.0794321
0.195732
0.291472
0.367921
0.42932
0.480475
0.521489
0.546108
0.551198
0.541388
0.525715
-0.732276
-0.700506
-0.640276
-0.562834
-0.476564
-0.382606
-0.281482
-0.17338
-0.0581225
0.0652462
0.182464
0.279996
0.359509
0.423405
0.478056
0.526794
0.558652
0.56289
0.547115
0.529053
-0.748505
-0.716615
-0.656002
-0.578206
-0.491856
-0.397688
-0.296696
-0.188568
-0.0734158
0.0498659
0.167271
0.265432
0.347596
0.412797
0.464774
0.514301
0.544915
0.536968
0.467654
0.429113
-0.763427
-0.733203
-0.670631
-0.592376
-0.50604
-0.411985
-0.311698
-0.203781
-0.0891088
0.0334736
0.15023
0.247687
0.33151
0.398122
0.440383
0.472322
0.487134
0.442444
0.367956
0.320886
-0.811157
-0.748133
-0.683898
-0.6065
-0.520242
-0.426668
-0.326471
-0.219214
-0.105465
0.0157448
0.130943
0.226574
0.308736
0.38112
0.394129
0.401446
0.373576
0.309624
0.227192
0.18147
-0.776983
-0.760958
-0.703042
-0.627077
-0.54098
-0.447963
-0.348869
-0.242819
-0.130909
-0.0125296
0.0986628
0.190066
0.262824
0.331616
0.335997
0.2221
0.111641
0.0355716
-0.0426842
0.001041
-0.806039
-0.777321
-0.718601
-0.642606
-0.556992
-0.464438
-0.365413
-0.260326
-0.14996
-0.0341315
0.0731883
0.159815
0.224383
0.260107
0.210906
0.0546321
-0.0869088
-0.188894
-0.297093
-0.228748
-0.82773
-0.79642
-0.73645
-0.660143
-0.574724
-0.482397
-0.383719
-0.279759
-0.171232
-0.0584741
0.0442583
0.124603
0.179232
0.183882
0.068325
-0.130295
-0.302529
-0.439862
-0.603312
-0.526455
-0.848542
-0.815905
-0.754964
-0.678019
-0.592546
-0.500445
-0.402459
-0.299742
-0.193228
-0.0838821
0.0135484
0.0868111
0.127463
0.093674
-0.0862355
-0.318955
-0.537341
-0.736182
-0.965694
-0.947561
-0.868392
-0.835633
-0.774035
-0.696535
-0.610978
-0.519163
-0.421965
-0.320581
-0.216289
-0.110672
-0.0190661
0.0466284
0.0695477
-0.00427959
-0.23581
-0.49453
-0.755603
-0.982637
-1.29426
-1.60749
-0.888278
-0.855787
-0.793873
-0.716033
-0.630395
-0.538825
-0.442336
-0.342285
-0.24027
-0.138531
-0.0529486
0.00454227
0.00916987
-0.116998
-0.369143
-0.635632
-0.902551
-1.1173
-1.22558
-1.41524
-0.908884
-0.876684
-0.814717
-0.73679
-0.651182
-0.559933
-0.464224
-0.365646
-0.266181
-0.168753
-0.089682
-0.0415654
-0.0620217
-0.240876
-0.488703
-0.741246
-0.966827
-1.09738
-1.12549
-1.15162
-0.930506
-0.898621
-0.836683
-0.758822
-0.673384
-0.582589
-0.487845
-0.390984
-0.294434
-0.20188
-0.129805
-0.0925399
-0.143003
-0.356871
-0.597718
-0.824913
-1.00038
-1.06652
-1.08253
-1.08612
-0.953315
-0.9215
-0.859837
-0.782041
-0.696876
-0.606698
-0.513096
-0.418198
-0.324936
-0.23779
-0.173186
-0.149574
-0.228171
-0.468465
-0.69858
-0.905318
-1.04086
-1.0584
-1.06052
-1.06051
-0.977209
-0.945375
-0.884017
-0.806373
-0.721576
-0.632133
-0.539843
-0.447122
-0.357488
-0.276214
-0.219764
-0.209383
-0.319156
-0.577047
-0.792216
-0.972223
-1.04066
-1.04935
-1.04935
-1.0484
-1.00191
-0.970127
-0.909022
-0.831627
-0.747296
-0.658705
-0.567882
-0.477515
-0.391793
-0.316682
-0.269101
-0.269253
-0.423265
-0.686263
-0.881607
-1.00534
-1.04754
-1.04088
-1.03994
-1.03951
-1.02689
-0.99542
-0.934475
-0.857523
-0.773739
-0.686105
-0.596864
-0.508996
-0.427301
-0.358678
-0.320128
-0.336007
-0.521668
-0.79734
-0.989815
-1.00682
-1.02472
-1.03938
-1.04101
-1.04055
-1.05162
-1.0208
-0.960151
-0.883632
-0.800493
-0.71387
-0.626283
-0.541003
-0.463225
-0.401543
-0.370873
-0.407773
-0.608448
-0.896467
-1.18398
-1.15373
-1.11782
-1.07384
-1.05203
-1.0484
-1.07537
-1.04493
-0.985494
-0.9094
-0.826924
-0.741412
-0.655451
-0.57273
-0.498591
-0.443827
-0.419973
-0.474654
-0.692165
-0.945334
-1.40229
-1.58532
-1.30105
-1.17645
-1.12135
-1.0983
-1.09721
-1.06765
-1.00933
-0.934082
-0.85236
-0.76792
-0.683503
-0.603067
-0.532232
-0.483015
-0.466637
-0.533774
-0.75901
-0.877915
-1.0339
-1.29607
-1.32645
-1.37703
-1.34732
-1.33203
-1.11592
-1.08776
-1.03083
-0.956618
-0.875908
-0.79248
-0.70935
-0.630626
-0.562627
-0.516451
-0.510263
-0.584158
-0.810245
-0.725632
-0.207088
-0.398418
-1.0618
-1.34481
-1.37103
-1.37808
-1.13033
-1.10405
-1.04911
-0.976102
-0.89638
-0.813957
-0.731882
-0.65402
-0.587618
-0.542467
-0.549045
-0.630819
-0.989453
-1.28657
-1.39347
-1.81674
-1.93207
-1.73301
-1.54791
-1.56061
-1.13932
-1.11544
-1.06297
-0.991485
-0.91276
-0.831219
-0.749725
-0.671935
-0.604492
-0.559205
-0.56677
-0.705763
-1.33512
-2.39093
-3.43552
-3.93612
-3.86291
-3.38603
-2.85581
-2.63333
-1.14153
-1.12067
-1.07147
-1.0018
-0.924097
-0.84318
-0.761664
-0.682857
-0.611864
-0.560295
-0.556629
-0.707204
-1.43399
-2.49939
-3.59473
-4.06302
-4.00449
-3.60899
-3.18604
-2.96602
-1.13628
-1.11906
-1.07376
-1.0064
-0.929617
-0.849129
-0.766994
-0.68582
-0.608668
-0.541881
-0.512946
-0.528144
-0.924683
-1.34123
-1.6655
-1.65523
-1.38739
-1.0652
-0.808525
-0.681403
-1.12293
-1.10917
-1.06913
-1.00466
-0.92898
-0.848629
-0.765569
-0.681039
-0.595394
-0.51058
-0.426709
-0.345752
-0.216284
0.0788634
0.522442
0.992589
1.4084
1.68235
1.81997
1.86177
-1.10195
-1.09198
-1.05741
-0.996418
-0.921796
-0.841949
-0.758394
-0.670927
-0.577124
-0.470542
-0.353365
-0.240124
0.0409466
0.62642
1.3277
1.95154
2.40374
2.66962
2.78894
2.82124
-1.07384
-1.0675
-1.03871
-0.981496
-0.907893
-0.829839
-0.747453
-0.659141
-0.560161
-0.441189
-0.314675
-0.189328
-0.0118465
0.544182
1.17828
1.72095
2.10288
2.32153
2.42563
2.45976
-1.03747
-1.03421
-1.01125
-0.957577
-0.887743
-0.812653
-0.734171
-0.64952
-0.552706
-0.430782
-0.2916
-0.166381
-0.0569888
0.314328
0.792565
1.18184
1.47233
1.64882
1.74177
1.77586
-0.987878
-0.986077
-0.968608
-0.921992
-0.858252
-0.790129
-0.720514
-0.646343
-0.558047
-0.439583
-0.292241
-0.159011
-0.04605
0.148471
0.439443
0.694906
0.89587
1.02664
1.09477
1.11715
-0.913236
-0.912181
-0.899879
-0.865504
-0.815935
-0.762293
-0.708347
-0.651023
-0.579071
-0.471487
-0.325416
-0.171691
-0.0391968
0.0783465
0.261782
0.423044
0.548867
0.631911
0.68179
0.69431
-0.830599
-0.828872
-0.820881
-0.800019
-0.768695
-0.733919
-0.699448
-0.663737
-0.618225
-0.539017
-0.405984
-0.247454
-0.104918
-0.026836
0.0759536
0.188709
0.277229
0.336019
0.36239
0.367882
-0.766946
-0.765358
-0.760831
-0.749763
-0.734243
-0.717499
-0.704219
-0.697169
-0.693937
-0.678545
-0.585305
-0.41312
-0.254544
-0.185046
-0.122094
-0.0338397
0.0436248
0.0961967
0.123537
0.126577
-0.730046
-0.729355
-0.727811
-0.724551
-0.720444
-0.720068
-0.730598
-0.763129
-0.831986
-0.9333
-0.942584
-0.732398
-0.514388
-0.411226
-0.324443
-0.228704
-0.144427
-0.0873214
-0.0606074
-0.0607591
-0.705667
-0.706473
-0.707796
-0.709896
-0.715643
-0.731199
-0.76812
-0.85047
-1.02419
-1.3131
-1.46092
-1.21511
-0.890352
-0.714514
-0.578651
-0.433546
-0.318809
-0.244821
-0.216482
-0.21894
-0.673504
-0.675472
-0.679177
-0.685965
-0.699721
-0.729081
-0.788775
-0.918194
-1.19275
-1.66393
-1.96689
-1.673
-1.25879
-1.00407
-0.802441
-0.62049
-0.488815
-0.414702
-0.392062
-0.394231
-0.619343
-0.621943
-0.626942
-0.636253
-0.654665
-0.690567
-0.761633
-0.912274
-1.22704
-1.77728
-2.10714
-1.8179
-1.41372
-1.15064
-0.914188
-0.743586
-0.646537
-0.605339
-0.59216
-0.590947
-0.538326
-0.540818
-0.5457
-0.554866
-0.572467
-0.606329
-0.672615
-0.809808
-1.09698
-1.58398
-1.85515
-1.63475
-1.33708
-1.09081
-0.884706
-0.773048
-0.735643
-0.728791
-0.720753
-0.716536
-0.43671
-0.43853
-0.442232
-0.448972
-0.462123
-0.48704
-0.535103
-0.632676
-0.834582
-1.17347
-1.36369
-1.2353
-1.02353
-0.823376
-0.704954
-0.671641
-0.686759
-0.697247
-0.694776
-0.691465
-0.327689
-0.328628
-0.330701
-0.334433
-0.341793
-0.355583
-0.381709
-0.433383
-0.53753
-0.712869
-0.812854
-0.724035
-0.595403
-0.499454
-0.48604
-0.514954
-0.542892
-0.555149
-0.556452
-0.555311
-0.225365
-0.225562
-0.226281
-0.227553
-0.230152
-0.23493
-0.243653
-0.260122
-0.291224
-0.336196
-0.346931
-0.299818
-0.258314
-0.269796
-0.313046
-0.354792
-0.37844
-0.388251
-0.391364
-0.391482
-0.139666
-0.139424
-0.139355
-0.139252
-0.139079
-0.13861
-0.137538
-0.135273
-0.130744
-0.118968
-0.0966462
-0.0669123
-0.0853735
-0.135708
-0.183514
-0.217317
-0.234789
-0.243179
-0.246612
-0.247426
-0.0745339
-0.0741326
-0.0737856
-0.0732414
-0.0720691
-0.0695746
-0.0648098
-0.0562281
-0.0417725
-0.019649
-8.49734e-05
0.00446051
-0.0188921
-0.0609307
-0.0966877
-0.120713
-0.132971
-0.138941
-0.141935
-0.142845
-0.0290835
-0.0287013
-0.0283774
-0.0279237
-0.0268045
-0.0242488
-0.0192937
-0.0106191
0.00291497
0.0204988
0.0309839
0.0257548
0.0056933
-0.022099
-0.0453749
-0.0604629
-0.0687077
-0.0729241
-0.0751361
-0.0758571
0.000190017
0.000477204
0.000667195
0.000840148
0.00151557
0.00336658
0.00710983
0.0135987
0.0232355
0.0342483
0.0379527
0.0305509
0.0154196
-0.00204098
-0.0164022
-0.025901
-0.0312866
-0.0341072
-0.0355601
-0.0360373
0.017456
0.0176387
0.0176916
0.0175955
0.017808
0.0188547
0.0212268
0.0253637
0.0312231
0.0371115
0.0372216
0.0303619
0.0196654
0.00860951
-0.000331039
-0.00642664
-0.010047
-0.011968
-0.012907
-0.0132046
0.0264222
0.0265203
0.0264705
0.0261879
0.0260512
0.0264391
0.0276668
0.0299568
0.0331005
0.0357115
0.0342081
0.0285221
0.0211224
0.0139678
0.00823187
0.00419899
0.00169643
0.000358889
-0.000257738
-0.0004503
0.0299396
0.0299812
0.0298652
0.0294795
0.0291371
0.0290769
0.0295019
0.0304968
0.0318436
0.0325543
0.0305427
0.0260786
0.0209235
0.0161535
0.0123447
0.00959783
0.00783072
0.00688154
0.00646635
0.00634685
0.0300027
0.0300111
0.0298657
0.0294563
0.0290132
0.0286962
0.0286323
0.0288438
0.0291363
0.02883
0.026776
0.0233297
0.0196725
0.0164004
0.0137923
0.0118744
0.0106069
0.00992488
0.00964168
0.00956256
0.0279398
0.0279313
0.0277829
0.0273939
0.0269256
0.0264884
0.0261581
0.0259299
0.0256575
0.0248866
0.0230104
0.0203783
0.0177447
0.0154464
0.0136174
0.0122542
0.0113363
0.0108427
0.0106463
0.0105923
0.0246001
0.0245851
0.0244504
0.0241062
0.023665
0.0232023
0.0227638
0.0223345
0.0218081
0.020889
0.019282
0.01729
0.0153801
0.0137438
0.0124428
0.011464
0.0107962
0.010438
0.0103008
0.010264
0.0205105
0.020495
0.0203825
0.020095
0.0197088
0.0192804
0.018835
0.0183581
0.0177755
0.0168967
0.0155919
0.0141086
0.0127311
0.0115666
0.0106412
0.00993954
0.00945608
0.00919781
0.00910242
0.00907677
0.0159861
0.015973
0.0158855
0.0156583
0.0153427
0.0149838
0.0145951
0.014165
0.0136439
0.0129122
0.0119232
0.0108622
0.00989897
0.00909065
0.00844621
0.00795264
0.00760907
0.00742665
0.00736177
0.0073444
0.0112102
0.0112003
0.0111373
0.01097
0.0107347
0.0104678
0.0101769
0.00985258
0.00946324
0.00893802
0.00826533
0.00757029
0.00694854
0.00642724
0.00600743
0.00567967
0.00544726
0.00532441
0.00528225
0.00527055
0.00628565
0.00627891
0.00623985
0.00613387
0.00599004
0.0058337
0.00566585
0.00548026
0.00525965
0.00496867
0.00460586
0.00423793
0.00391141
0.00363721
0.00341298
0.00323149
0.00309687
0.00302536
0.00300136
0.00299296
0.00128836
0.00129252
0.00131494
0.00132908
0.00130547
0.00126442
0.00121808
0.00116876
0.00111209
0.00104126
0.000952125
0.000856119
0.000769677
0.000695778
0.00063476
0.000586439
0.000554943
0.000551945
0.000570882
0.000581942
-0.719756
-0.481566
-0.23462
-0.0316756
0.132081
0.264089
0.375809
0.46938
0.508955
0.49341
-0.310745
-0.158997
-0.00322773
0.131406
0.245638
0.341287
0.418768
0.47366
0.502915
0.515046
-0.0415094
0.0592721
0.163334
0.256496
0.336854
0.40421
0.457627
0.496931
0.524892
0.542052
0.146988
0.216357
0.289525
0.35637
0.414402
0.463463
0.503545
0.53548
0.560466
0.578271
0.290121
0.339637
0.393403
0.443097
0.487183
0.525398
0.557841
0.584766
0.606146
0.623788
0.405485
0.442462
0.48551
0.524918
0.560883
0.59297
0.620834
0.64419
0.662263
0.679715
0.504901
0.536158
0.573206
0.607896
0.639959
0.668957
0.694233
0.715139
0.730454
0.747862
0.597819
0.628705
0.664479
0.698178
0.729127
0.756878
0.780722
0.799851
0.812986
0.830465
0.695805
0.730195
0.76771
0.802405
0.833286
0.860156
0.882651
0.900181
0.911957
0.929798
0.812374
0.851302
0.890183
0.92504
0.954818
0.979925
1.00058
1.01656
1.02811
1.0465
0.958184
0.998033
1.03377
1.06449
1.09037
1.11268
1.13191
1.14761
1.16039
1.17856
1.1332
1.1656
1.19165
1.21414
1.23436
1.25325
1.27101
1.28766
1.30348
1.32171
1.32113
1.33884
1.35457
1.3713
1.38755
1.40218
1.41528
1.42932
1.44646
1.46617
1.50315
1.51403
1.52623
1.53706
1.54636
1.556
1.56698
1.57863
1.58861
1.6038
1.71414
1.71619
1.70106
1.68586
1.67955
1.68527
1.70389
1.73434
1.76651
1.79727
2.02007
1.88303
1.8068
1.76481
1.74739
1.75143
1.77883
1.83497
1.93843
2.15373
0.306504
0.303132
0.297213
0.287417
0.274488
0.262082
0.251786
0.243842
0.238166
0.234819
0.234311
0.236851
0.241784
0.248878
0.258189
0.269777
0.282835
0.294775
0.302202
0.306902
0.224483
0.230372
0.2373
0.242564
0.245437
0.245136
0.242258
0.238357
0.234775
0.232401
0.232083
0.234091
0.23758
0.241748
0.245542
0.247424
0.246216
0.242048
0.236092
0.22902
0.216798
0.219147
0.222524
0.22547
0.227729
0.229571
0.230569
0.230331
0.229273
0.228284
0.228277
0.229483
0.231078
0.232152
0.232012
0.230686
0.228752
0.226304
0.223073
0.220077
0.211611
0.212694
0.214607
0.217068
0.219107
0.220563
0.221698
0.222569
0.223025
0.223189
0.223486
0.223999
0.224262
0.223983
0.223252
0.222188
0.220607
0.218388
0.216153
0.214702
0.206502
0.207146
0.208319
0.210165
0.212106
0.213844
0.215193
0.21624
0.217117
0.217836
0.218346
0.218543
0.21838
0.217897
0.217058
0.215751
0.214048
0.212238
0.210747
0.209925
0.201614
0.202045
0.202908
0.204385
0.20608
0.207807
0.209442
0.210844
0.21199
0.212928
0.21357
0.213751
0.213482
0.212783
0.211665
0.210262
0.208751
0.207287
0.206156
0.205603
0.197026
0.197325
0.198025
0.199357
0.200949
0.202597
0.204288
0.205908
0.207301
0.208404
0.209173
0.209453
0.209146
0.208324
0.207152
0.205836
0.204476
0.203149
0.202197
0.201794
0.192797
0.192997
0.193566
0.194756
0.196229
0.197737
0.199229
0.200758
0.202306
0.203714
0.204696
0.204959
0.204629
0.203948
0.203074
0.202022
0.200832
0.19967
0.198878
0.198589
0.189053
0.189161
0.189623
0.190731
0.192156
0.193662
0.195226
0.196774
0.19826
0.199675
0.200821
0.201389
0.201394
0.200942
0.200146
0.199165
0.198081
0.197024
0.196355
0.196168
0.186092
0.186137
0.186463
0.187359
0.188593
0.189908
0.191313
0.19284
0.19448
0.196114
0.197503
0.198306
0.198477
0.198246
0.197746
0.197078
0.196269
0.195476
0.195021
0.19492
0.183527
0.183551
0.183756
0.18434
0.185236
0.186283
0.18749
0.188881
0.190457
0.192207
0.193892
0.195086
0.195709
0.19591
0.195832
0.195549
0.195178
0.194799
0.194598
0.194542
0.180603
0.180626
0.180783
0.181185
0.181852
0.18276
0.183918
0.185379
0.187159
0.189195
0.191269
0.192872
0.193832
0.194325
0.194469
0.194536
0.194514
0.194452
0.194402
0.194363
0.176894
0.176912
0.177059
0.17741
0.177986
0.178801
0.179937
0.181454
0.183405
0.185776
0.188332
0.190454
0.191869
0.192821
0.193387
0.19373
0.194
0.194136
0.194161
0.194136
0.172409
0.172415
0.172562
0.172951
0.173567
0.174498
0.17579
0.177558
0.179856
0.182699
0.185877
0.188615
0.19054
0.191827
0.192733
0.193338
0.193739
0.193937
0.193995
0.193987
0.167247
0.167241
0.167384
0.167855
0.168636
0.169703
0.171245
0.173337
0.176084
0.179562
0.183517
0.187003
0.189526
0.191295
0.192511
0.193344
0.193854
0.194113
0.194219
0.194233
0.161446
0.161423
0.161583
0.162109
0.163023
0.164458
0.166288
0.168789
0.172123
0.176397
0.181313
0.185727
0.188984
0.191298
0.192895
0.193973
0.194614
0.194973
0.195143
0.195173
0.154894
0.154861
0.155056
0.155645
0.156742
0.158387
0.160671
0.163738
0.167853
0.173146
0.179278
0.184828
0.188947
0.191881
0.193944
0.195326
0.196195
0.196704
0.196947
0.196988
0.14728
0.147238
0.147474
0.148205
0.14948
0.151419
0.154197
0.158022
0.163141
0.169743
0.1774
0.18434
0.189498
0.193216
0.195819
0.19758
0.198728
0.199423
0.199743
0.199792
0.138163
0.138115
0.138414
0.139302
0.140879
0.143267
0.146703
0.151481
0.157906
0.166176
0.175729
0.184359
0.190777
0.195416
0.19866
0.20088
0.202356
0.203259
0.203663
0.203723
0.127053
0.126993
0.127398
0.128526
0.130501
0.133516
0.137867
0.14393
0.152049
0.162426
0.174324
0.185003
0.192948
0.198652
0.202658
0.205416
0.207268
0.208407
0.208909
0.20898
0.113286
0.113214
0.113773
0.115266
0.117835
0.121736
0.127357
0.135138
0.145457
0.158497
0.173265
0.186403
0.196119
0.203102
0.208016
0.211413
0.213707
0.215122
0.215744
0.215828
0.0959256
0.0958474
0.0966491
0.0986848
0.102118
0.107307
0.114715
0.124833
0.138042
0.154428
0.172663
0.188696
0.200493
0.208976
0.214967
0.219129
0.221955
0.223699
0.224466
0.224562
0.0735466
0.0734782
0.0746822
0.0775636
0.0823311
0.0894694
0.0994745
0.112828
0.129809
0.150333
0.172675
0.192049
0.206237
0.216465
0.223733
0.228824
0.232306
0.234454
0.235387
0.2355
0.04379
0.0437796
0.0457139
0.0500731
0.057122
0.0673749
0.0812497
0.099065
0.120892
0.146423
0.173506
0.196636
0.213505
0.225721
0.234494
0.24072
0.245027
0.247689
0.248828
0.248955
0.00246822
0.00268236
0.00624589
0.0136786
0.0249346
0.0403182
0.0599205
0.0837528
0.111626
0.143016
0.175385
0.202594
0.222374
0.236799
0.247314
0.25493
0.26032
0.263657
0.26504
0.26517
-0.0582158
-0.056667
-0.0481092
-0.0340727
-0.0150678
0.0084775
0.0360862
0.0675649
0.102573
0.140493
0.178503
0.209965
0.232781
0.249554
0.261996
0.271246
0.277954
0.282203
0.283944
0.284102
-0.131098
-0.128279
-0.11207
-0.0875167
-0.0579952
-0.0249823
0.0113753
0.0510329
0.0937286
0.138927
0.183603
0.220512
0.247553
0.267815
0.283241
0.2951
0.304158
0.309802
0.311734
0.312238
-0.205769
-0.197519
-0.173586
-0.138992
-0.0997991
-0.0575955
-0.0125615
0.035253
0.0856426
0.138155
0.189577
0.232007
0.263281
0.287012
0.305444
0.319938
0.331212
0.338146
0.341446
0.34242
-0.263946
-0.254352
-0.225581
-0.184289
-0.137632
-0.0877225
-0.0350024
0.0203127
0.0779147
0.1373
0.19496
0.242282
0.277088
0.303492
0.323998
0.340129
0.352591
0.360874
0.36509
0.36628
-0.311128
-0.300975
-0.268803
-0.22276
-0.170543
-0.114577
-0.0554957
0.00631827
0.0703637
0.135984
0.199243
0.250766
0.288369
0.316663
0.338459
0.355517
0.368722
0.377768
0.382366
0.383589
-0.350238
-0.340004
-0.305723
-0.255994
-0.199287
-0.138417
-0.0740633
-0.00668934
0.063021
0.13421
0.202469
0.257615
0.297438
0.32708
0.34968
0.367186
0.380609
0.389889
0.394517
0.395835
-0.384151
-0.373925
-0.338106
-0.285421
-0.225053
-0.160061
-0.0911421
-0.0189158
0.0558274
0.132066
0.204872
0.26328
0.305073
0.335835
0.358993
0.376687
0.390131
0.399386
0.404012
0.40534
-0.414421
-0.404236
-0.36725
-0.312135
-0.248719
-0.180168
-0.107261
-0.0307076
0.0486145
0.129516
0.206647
0.268191
0.311814
0.343553
0.367157
0.385009
0.398441
0.407702
0.412344
0.413559
-0.442245
-0.432063
-0.394128
-0.336954
-0.27093
-0.199287
-0.122849
-0.0423833
0.0411465
0.126449
0.207726
0.272312
0.317783
0.35057
0.374713
0.392787
0.40628
0.415525
0.420181
0.421248
-0.468384
-0.458184
-0.419405
-0.360453
-0.292129
-0.217752
-0.138184
-0.0541966
0.0332092
0.122654
0.207985
0.275764
0.323281
0.35728
0.382075
0.400455
0.414055
0.423282
0.427919
0.428888
-0.493301
-0.483055
-0.443523
-0.383008
-0.312641
-0.235843
-0.153478
-0.0663067
0.024668
0.118077
0.207521
0.278654
0.328403
0.363815
0.38943
0.408248
0.422042
0.431291
0.43589
0.436824
-0.517364
-0.507013
-0.466695
-0.404901
-0.332677
-0.253713
-0.168841
-0.0787856
0.0155073
0.112716
0.206229
0.28089
0.333144
0.370228
0.396887
0.416304
0.430408
0.439735
0.444228
0.445144
-0.540761
-0.530236
-0.489264
-0.426238
-0.352333
-0.271451
-0.18434
-0.0916682
0.00566806
0.106441
0.203978
0.282388
0.337483
0.37654
0.404485
0.424682
0.439203
0.448658
0.45305
0.453924
-0.563516
-0.552803
-0.511286
-0.447063
-0.371684
-0.289105
-0.200002
-0.104997
-0.00491421
0.0991886
0.200699
0.283026
0.341293
0.382684
0.412192
0.433361
0.448414
0.458029
0.462312
0.46307
-0.585763
-0.574816
-0.532705
-0.467403
-0.390742
-0.306666
-0.215811
-0.118753
-0.0162023
0.0909789
0.1963
0.282651
0.344393
0.388522
0.41994
0.442301
0.457987
0.467765
0.471906
0.472526
-0.607433
-0.596258
-0.553554
-0.487278
-0.409476
-0.32409
-0.231708
-0.132861
-0.0281366
0.0818018
0.190711
0.281103
0.346592
0.39388
0.427637
0.451468
0.467881
0.477793
0.481742
0.482182
-0.628533
-0.617114
-0.573817
-0.506662
-0.427851
-0.341328
-0.247629
-0.147243
-0.0406572
0.0716956
0.183898
0.27823
0.347647
0.398532
0.43517
0.46086
0.478081
0.487967
0.491563
0.491807
-0.648929
-0.637319
-0.59344
-0.525504
-0.445808
-0.358296
-0.263499
-0.161822
-0.0536731
0.0607447
0.175853
0.273912
0.347298
0.402146
0.442332
0.470528
0.488723
0.498251
0.501177
0.501164
-0.668701
-0.656834
-0.612404
-0.543773
-0.463302
-0.374948
-0.279223
-0.176504
-0.0670752
0.0490516
0.166616
0.268061
0.345309
0.404306
0.448737
0.480501
0.500304
0.509005
0.510429
0.509951
-0.687732
-0.675603
-0.630685
-0.561418
-0.480258
-0.391205
-0.294717
-0.191161
-0.0807437
0.0367086
0.156272
0.260636
0.341486
0.404536
0.453711
0.490464
0.513599
0.521747
0.52002
0.517869
-0.706043
-0.693699
-0.648231
-0.578388
-0.496639
-0.406999
-0.309898