/*--------------------------------*- C++ -*----------------------------------*\
| =========                 |                                                 |
| \\      /  F ield         | OpenFOAM: The Open Source CFD Toolbox           |
|  \\    /   O peration     | Version:  2306                                  |
|   \\  /    A nd           | Website:  www.openfoam.com                      |
|    \\/     M anipulation  |                                                 |
\*---------------------------------------------------------------------------*/
FoamFile
{
    version     2.0;
    format      ascii;
    arch        "LSB;label=32;scalar=64";
    class       volVectorField;
    location    "19";
    object      U;
}
// * * * * * * * * * * * * * * * * * * * * * * * * * * * * * * * * * * * * * //

dimensions      [0 1 -1 0 0 0 0];

internalField   nonuniform List<vector> 
8800
(
(0.984953 -0.0884488 0)
(1.00212 -0.0568193 0)
(0.999688 -0.0305527 0)
(1.00003 -0.01585 0)
(1.00004 -0.00868477 0)
(1.00001 -0.00503493 0)
(1 -0.00296976 0)
(0.999995 -0.00169753 0)
(0.999996 -0.000821239 0)
(1.00005 -0.000132169 0)
(0.999998 0.000560629 0)
(0.999994 0.00132109 0)
(0.999998 0.00235195 0)
(1 0.00394052 0)
(1.00002 0.00664721 0)
(1.00006 0.011702 0)
(0.999931 0.022036 0)
(0.999199 0.0411614 0)
(1.00744 0.0768937 0)
(0.773647 0.0450686 0)
(0.361061 -0.0151656 0)
(1.04561 -0.0741683 0)
(1.08713 -0.0678443 0)
(1.04778 -0.0522437 0)
(1.02458 -0.0383503 0)
(1.01236 -0.0260973 0)
(1.00643 -0.0167655 0)
(1.00357 -0.010254 0)
(1.00218 -0.00563003 0)
(1.00154 -0.00209814 0)
(1.00142 0.00100804 0)
(1.00177 0.00426103 0)
(1.00272 0.00818083 0)
(1.00471 0.0135839 0)
(1.00884 0.021342 0)
(1.01741 0.0321544 0)
(1.03456 0.0455073 0)
(1.0656 0.0596493 0)
(1.09415 0.0728909 0)
(0.842409 0.0556751 0)
(0.217225 -0.00163855 0)
(1.07599 -0.0502373 0)
(1.09991 -0.0485641 0)
(1.06469 -0.039978 0)
(1.03992 -0.0327718 0)
(1.02365 -0.0254683 0)
(1.0139 -0.0181569 0)
(1.00843 -0.011587 0)
(1.00559 -0.0059517 0)
(1.00445 -0.000755477 0)
(1.00477 0.00427661 0)
(1.00663 0.00951937 0)
(1.01057 0.0154848 0)
(1.01788 0.0223643 0)
(1.03057 0.0296469 0)
(1.05082 0.0367213 0)
(1.08063 0.0441519 0)
(1.10651 0.0514501 0)
(0.943393 0.0411708 0)
(0.216862 0.00164967 0)
(0.176215 -0.000637105 0)
(1.01905 -0.0352007 0)
(1.10569 -0.0411547 0)
(1.07814 -0.0360249 0)
(1.05273 -0.0300328 0)
(1.03535 -0.0243106 0)
(1.02332 -0.0186234 0)
(1.0154 -0.0127209 0)
(1.01079 -0.00677862 0)
(1.0088 -0.000768423 0)
(1.00936 0.00517956 0)
(1.01247 0.0109924 0)
(1.01854 0.016775 0)
(1.02834 0.0223923 0)
(1.04277 0.0278972 0)
(1.06366 0.0336159 0)
(1.0942 0.0396008 0)
(1.09481 0.0413317 0)
(0.830254 0.0225248 0)
(0.175607 0.000650002 0)
(0.154949 -0.000474385 0)
(0.958392 -0.0251439 0)
(1.1043 -0.0344595 0)
(1.08781 -0.0319475 0)
(1.06119 -0.0274206 0)
(1.04325 -0.0225224 0)
(1.03084 -0.0174646 0)
(1.02216 -0.0122551 0)
(1.01653 -0.00670221 0)
(1.01388 -0.000572732 0)
(1.01461 0.00562918 0)
(1.01856 0.0112636 0)
(1.02551 0.0163941 0)
(1.03581 0.0212756 0)
(1.05059 0.0260633 0)
(1.07236 0.0305729 0)
(1.10136 0.0345883 0)
(1.07064 0.0330179 0)
(0.744275 0.0139447 0)
(0.154042 0.000488881 0)
(0.140869 -0.00034342 0)
(0.902766 -0.0184986 0)
(1.09706 -0.0290563 0)
(1.09599 -0.0281151 0)
(1.06861 -0.0244232 0)
(1.04959 -0.0205137 0)
(1.03657 -0.0161432 0)
(1.02758 -0.0112951 0)
(1.02165 -0.00601267 0)
(1.01874 -0.000179109 0)
(1.01947 0.00567983 0)
(1.02362 0.0109939 0)
(1.03077 0.0157703 0)
(1.04141 0.0200867 0)
(1.057 0.0239235 0)
(1.08001 0.027426 0)
(1.10416 0.0302242 0)
(1.04028 0.0266144 0)
(0.68014 0.00960853 0)
(0.1396 0.000360371 0)
(0.130891 -0.0002531 0)
(0.855436 -0.0136541 0)
(1.08523 -0.0241705 0)
(1.10127 -0.0244893 0)
(1.075 -0.0215101 0)
(1.05544 -0.0182108 0)
(1.04189 -0.0143753 0)
(1.03245 -0.00999514 0)
(1.02624 -0.00512362 0)
(1.02316 0.000290792 0)
(1.02381 0.00571254 0)
(1.02803 0.0105647 0)
(1.03544 0.0148109 0)
(1.04653 0.018519 0)
(1.06261 0.0217059 0)
(1.08604 0.0245168 0)
(1.10378 0.0263096 0)
(1.00812 0.0212531 0)
(0.632119 0.00692282 0)
(0.129185 0.00027382 0)
(0.123799 -0.000182073 0)
(0.817302 -0.00982162 0)
(1.0712 -0.0193044 0)
(1.10425 -0.0203756 0)
(1.08034 -0.0178633 0)
(1.06055 -0.0149466 0)
(1.04672 -0.0118143 0)
(1.0369 -0.00827914 0)
(1.03034 -0.00409574 0)
(1.02705 0.000850923 0)
(1.02761 0.00586056 0)
(1.0319 0.010037 0)
(1.03956 0.0133971 0)
(1.05089 0.0161934 0)
(1.06715 0.0187425 0)
(1.09079 0.0211508 0)
(1.10085 0.0221804 0)
(0.977419 0.0164898 0)
(0.596328 0.00497295 0)
(0.121561 0.000207917 0)
(0.118878 -0.000130153 0)
(0.788147 -0.00665771 0)
(1.05701 -0.0147035 0)
(1.10622 -0.0163934 0)
(1.08516 -0.0145262 0)
(1.06486 -0.0122932 0)
(1.05097 -0.00968277 0)
(1.04132 -0.00651607 0)
(1.03481 -0.00277926 0)
(1.03139 0.00157675 0)
(1.03179 0.00587291 0)
(1.03589 0.00946028 0)
(1.04322 0.0123035 0)
(1.05434 0.0145327 0)
(1.07087 0.0163042 0)
(1.09451 0.0179916 0)
(1.09614 0.0182086 0)
(0.950242 0.0123139 0)
(0.570278 0.00343857 0)
(0.115989 0.000162847 0)
(0.115954 -5.93121e-05 0)
(0.767595 -0.00371235 0)
(1.04323 -0.00996261 0)
(1.10627 -0.0123729 0)
(1.08825 -0.0115207 0)
(1.06774 -0.00985438 0)
(1.05369 -0.00773503 0)
(1.04395 -0.00499187 0)
(1.03739 -0.00156707 0)
(1.03385 0.00239621 0)
(1.03405 0.00624112 0)
(1.03791 0.00936699 0)
(1.04509 0.0116476 0)
(1.05619 0.0132859 0)
(1.07278 0.0144132 0)
(1.09587 0.0150997 0)
(1.08918 0.0140956 0)
(0.927309 0.00827387 0)
(0.552773 0.00205059 0)
(0.112268 0.000100613 0)
(0.114923 6.64241e-06 0)
(0.75511 -0.00158783 0)
(1.03111 -0.00579921 0)
(1.10444 -0.00833103 0)
(1.09032 -0.00813434 0)
(1.07057 -0.00693227 0)
(1.05703 -0.00522024 0)
(1.04759 -0.00288615 0)
(1.04104 -1.58339e-05 0)
(1.03733 0.00339642 0)
(1.03726 0.00667506 0)
(1.04082 0.00903736 0)
(1.04753 0.0106373 0)
(1.05794 0.0115048 0)
(1.07393 0.0120405 0)
(1.09501 0.0120241 0)
(1.08057 0.0102779 0)
(0.909577 0.0052178 0)
(0.542224 0.00114981 0)
(0.110247 4.45906e-05 0)
(0.114996 3.41647e-05 0)
(0.748167 -0.000621172 0)
(1.02224 -0.00330937 0)
(1.10236 -0.00517523 0)
(1.09156 -0.0050909 0)
(1.07242 -0.00406788 0)
(1.05899 -0.00271051 0)
(1.04966 -0.000844244 0)
(1.04324 0.00159426 0)
(1.0395 0.0045764 0)
(1.03901 0.00734169 0)
(1.04199 0.00914669 0)
(1.04821 0.0100874 0)
(1.0583 0.0104506 0)
(1.07396 0.0103601 0)
(1.09313 0.00989983 0)
(1.07241 0.00804745 0)
(0.896447 0.00392814 0)
(0.535259 0.000881521 0)
(0.109093 2.83684e-05 0)
(0.115493 4.02498e-05 0)
(0.743776 -0.000259609 0)
(1.01591 -0.00231342 0)
(1.10108 -0.00379398 0)
(1.09284 -0.00352184 0)
(1.0743 -0.00250904 0)
(1.06101 -0.00115119 0)
(1.05185 0.000726683 0)
(1.04552 0.00317207 0)
(1.04162 0.0059879 0)
(1.04069 0.00845725 0)
(1.04311 0.00991275 0)
(1.04878 0.0105514 0)
(1.05828 0.0106248 0)
(1.07314 0.0103529 0)
(1.0908 0.00962704 0)
(1.06498 0.00765331 0)
(0.885407 0.00375909 0)
(0.529182 0.00091241 0)
(0.108036 3.69528e-05 0)
(0.116107 4.20045e-05 0)
(0.740538 7.86682e-05 0)
(1.00998 -0.00182395 0)
(1.09966 -0.00385416 0)
(1.09441 -0.00387324 0)
(1.0763 -0.00293022 0)
(1.0633 -0.00128561 0)
(1.05445 0.00119277 0)
(1.04813 0.00430798 0)
(1.04391 0.00764308 0)
(1.04244 0.0105073 0)
(1.04415 0.0122537 0)
(1.049 0.013078 0)
(1.05786 0.0129763 0)
(1.07218 0.0123911 0)
(1.08804 0.0113161 0)
(1.05661 0.00839771 0)
(0.874241 0.00391217 0)
(0.522985 0.00101217 0)
(0.106769 5.48829e-05 0)
(0.116944 4.96306e-05 0)
(0.738486 0.000562571 0)
(1.00347 -0.00093791 0)
(1.09621 -0.00374459 0)
(1.0947 -0.00464538 0)
(1.0786 -0.00402568 0)
(1.06634 -0.00196626 0)
(1.05779 0.00130132 0)
(1.05133 0.00528613 0)
(1.04663 0.00965802 0)
(1.04451 0.0133733 0)
(1.04553 0.0156827 0)
(1.0495 0.0168755 0)
(1.05718 0.0171034 0)
(1.07028 0.016132 0)
(1.08269 0.0137629 0)
(1.04518 0.00901138 0)
(0.86248 0.00390294 0)
(0.516687 0.00108797 0)
(0.105248 7.11692e-05 0)
(0.118154 6.19245e-05 0)
(0.738693 0.00122996 0)
(0.997648 0.000601841 0)
(1.09059 -0.00226466 0)
(1.09435 -0.00416487 0)
(1.08084 -0.00365569 0)
(1.07011 -0.00140807 0)
(1.06207 0.00244885 0)
(1.05554 0.00710958 0)
(1.05026 0.0122764 0)
(1.04731 0.0165645 0)
(1.0473 0.0191826 0)
(1.05032 0.0203854 0)
(1.05617 0.0201836 0)
(1.06676 0.0187139 0)
(1.07376 0.0148092 0)
(1.03136 0.00884536 0)
(0.851171 0.00379202 0)
(0.510489 0.00116581 0)
(0.103529 8.27623e-05 0)
(0.119916 8.66867e-05 0)
(0.741181 0.00192093 0)
(0.994474 0.00251066 0)
(1.08491 0.000671908 0)
(1.09276 -0.00115573 0)
(1.08313 -0.000867617 0)
(1.07429 0.00169222 0)
(1.06671 0.00569008 0)
(1.06007 0.0105206 0)
(1.05407 0.0157182 0)
(1.05005 0.0197541 0)
(1.0489 0.0218926 0)
(1.05036 0.022404 0)
(1.0545 0.0216079 0)
(1.06111 0.0189765 0)
(1.0628 0.014204 0)
(1.01772 0.0083297 0)
(0.841075 0.00384724 0)
(0.504218 0.00130286 0)
(0.1016 9.38159e-05 0)
(0.122389 0.000120807 0)
(0.746685 0.00274862 0)
(0.995186 0.00444589 0)
(1.08186 0.00424365 0)
(1.09175 0.00360559 0)
(1.08558 0.00435143 0)
(1.07839 0.00702744 0)
(1.0713 0.0109469 0)
(1.06441 0.0155585 0)
(1.05749 0.0201566 0)
(1.05214 0.0232712 0)
(1.04966 0.0242786 0)
(1.04936 0.023633 0)
(1.05113 0.0216818 0)
(1.05418 0.0182088 0)
(1.05195 0.0134195 0)
(1.00584 0.00822369 0)
(0.831817 0.00424477 0)
(0.497346 0.0015442 0)
(0.0993547 0.000111178 0)
(0.125705 0.000163173 0)
(0.755233 0.00364991 0)
(0.999237 0.00641646 0)
(1.08247 0.0077373 0)
(1.0929 0.0085928 0)
(1.08865 0.010436 0)
(1.08258 0.0135694 0)
(1.07569 0.0175702 0)
(1.06824 0.0219276 0)
(1.0601 0.0257122 0)
(1.05315 0.0275774 0)
(1.04905 0.0271746 0)
(1.04681 0.0252277 0)
(1.04642 0.02204 0)
(1.04688 0.0180973 0)
(1.04217 0.0135485 0)
(0.995517 0.00892517 0)
(0.822412 0.0050165 0)
(0.489266 0.00188548 0)
(0.096662 0.000134697 0)
(0.129998 0.000215439 0)
(0.766715 0.00477166 0)
(1.00692 0.00868344 0)
(1.08662 0.011425 0)
(1.09662 0.013629 0)
(1.09309 0.0167904 0)
(1.08735 0.0207684 0)
(1.08017 0.0252058 0)
(1.07169 0.0294959 0)
(1.06189 0.0325631 0)
(1.05295 0.0331325 0)
(1.047 0.0311917 0)
(1.04288 0.0279143 0)
(1.04067 0.0238182 0)
(1.03932 0.0194289 0)
(1.03313 0.014928 0)
(0.985685 0.0104205 0)
(0.811837 0.00612412 0)
(0.479397 0.0023374 0)
(0.0933559 0.000166342 0)
(0.135636 0.000291968 0)
(0.781685 0.00630061 0)
(1.01798 0.0114964 0)
(1.09395 0.0155036 0)
(1.10303 0.0191594 0)
(1.0993 0.0237003 0)
(1.09317 0.0288277 0)
(1.08505 0.0339973 0)
(1.07493 0.038453 0)
(1.06294 0.0409956 0)
(1.05162 0.0403723 0)
(1.04352 0.03703 0)
(1.03767 0.0323495 0)
(1.03389 0.0272907 0)
(1.0312 0.0222992 0)
(1.02396 0.0174977 0)
(0.975177 0.0126342 0)
(0.799197 0.00758191 0)
(0.467207 0.00289859 0)
(0.089293 0.000204635 0)
(0.143119 0.000406983 0)
(0.801109 0.00845522 0)
(1.03273 0.0152548 0)
(1.10455 0.0206039 0)
(1.11219 0.0257568 0)
(1.10759 0.0318669 0)
(1.10028 0.0383683 0)
(1.09047 0.0444839 0)
(1.07807 0.0492864 0)
(1.06331 0.0513894 0)
(1.04917 0.049561 0)
(1.03865 0.0447653 0)
(1.03103 0.0386951 0)
(1.02583 0.0324804 0)
(1.02203 0.0266229 0)
(1.01382 0.0211633 0)
(0.963062 0.015563 0)
(0.783693 0.00943392 0)
(0.452125 0.00359134 0)
(0.0843258 0.000251551 0)
(0.153209 0.00057946 0)
(0.826263 0.0115834 0)
(1.05199 0.0204043 0)
(1.11884 0.0272686 0)
(1.12448 0.034182 0)
(1.11822 0.0421357 0)
(1.1089 0.0502367 0)
(1.09657 0.057466 0)
(1.08112 0.062644 0)
(1.06291 0.0641978 0)
(1.04549 0.0609972 0)
(1.0323 0.0545843 0)
(1.0228 0.0469773 0)
(1.01616 0.0393803 0)
(1.01128 0.0323749 0)
(1.00199 0.0259438 0)
(0.948512 0.0192851 0)
(0.764836 0.0117386 0)
(0.433733 0.00440245 0)
(0.0783395 0.000296667 0)
(0.167183 0.000859325 0)
(0.859086 0.0163038 0)
(1.07709 0.0276997 0)
(1.13756 0.0363783 0)
(1.14047 0.0456586 0)
(1.13163 0.0558003 0)
(1.11925 0.0656306 0)
(1.10336 0.0738988 0)
(1.08397 0.0792194 0)
(1.06159 0.0798904 0)
(1.04042 0.0749902 0)
(1.02432 0.0666949 0)
(1.01273 0.0573195 0)
(1.00451 0.0481032 0)
(0.998438 0.03968 0)
(0.987801 0.0319951 0)
(0.930744 0.0239513 0)
(0.741825 0.0145939 0)
(0.411463 0.00539645 0)
(0.0711895 0.000350585 0)
(0.18728 0.00136441 0)
(0.90295 0.0238917 0)
(1.11025 0.0388346 0)
(1.16201 0.0498464 0)
(1.16075 0.0621746 0)
(1.14791 0.0746642 0)
(1.13111 0.086005 0)
(1.11047 0.0948406 0)
(1.08623 0.0997209 0)
(1.05903 0.0989067 0)
(1.03369 0.091817 0)
(1.01447 0.0813035 0)
(1.00058 0.0699129 0)
(0.990593 0.0588673 0)
(0.983086 0.0488029 0)
(0.970658 0.0396033 0)
(0.908857 0.0298547 0)
(0.713539 0.0182277 0)
(0.384524 0.00665362 0)
(0.0627475 0.000408576 0)
(0.216885 0.00250957 0)
(0.963742 0.0374224 0)
(1.15361 0.0576187 0)
(1.19348 0.0715708 0)
(1.18525 0.0869346 0)
(1.16642 0.101199 0)
(1.14363 0.113098 0)
(1.11711 0.121422 0)
(1.08724 0.124802 0)
(1.05474 0.121593 0)
(1.025 0.11168 0)
(1.00251 0.0985844 0)
(0.986172 0.0849759 0)
(0.974207 0.0719809 0)
(0.964953 0.0601754 0)
(0.950047 0.0493456 0)
(0.881827 0.0374668 0)
(0.678819 0.0229114 0)
(0.352841 0.00832394 0)
(0.0532726 0.000449406 0)
(0.257919 0.00913033 -2.76418e-20)
(1.04541 0.0652434 -2.20589e-20)
(1.20533 0.0901708 6.29741e-21)
(1.2295 0.10722 0)
(1.21155 0.123758 2.46054e-35)
(1.18518 0.137789 -2.25878e-23)
(1.15533 0.148532 -2.00144e-21)
(1.1222 0.154965 0)
(1.08616 0.155808 8.62185e-35)
(1.04786 0.149512 -6.74797e-21)
(1.01323 0.136431 0)
(0.986995 0.12065 -9.876e-21)
(0.967677 0.104841 -3.03087e-20)
(0.953155 0.0900311 -1.46906e-20)
(0.941421 0.0767955 -4.63939e-21)
(0.923137 0.0646767 -2.80931e-21)
(0.846954 0.0505978 0)
(0.634311 0.0316752 2.00524e-21)
(0.315307 0.0129654 2.36992e-21)
(0.0445389 0.00148963 4.13801e-20)
(0.284388 0.0253294 -4.90509e-20)
(1.1116 0.110029 9.93454e-22)
(1.24941 0.138203 -2.95236e-21)
(1.2618 0.15629 0)
(1.23514 0.17113 5.27543e-21)
(1.20143 0.183409 3.4216e-21)
(1.16458 0.192254 -1.06328e-21)
(1.12471 0.196546 -1.05688e-20)
(1.0821 0.194929 0)
(1.03721 0.185799 2.86817e-20)
(0.996519 0.169944 3.2132e-20)
(0.965208 0.151917 1.04186e-20)
(0.941599 0.134354 4.14511e-20)
(0.923278 0.118049 6.12793e-20)
(0.907729 0.103505 0)
(0.883931 0.0901881 9.12386e-20)
(0.802357 0.0740419 1.32681e-19)
(0.58844 0.0500276 1.47096e-19)
(0.287684 0.02388 -1.69928e-19)
(0.0397565 0.00339431 -3.09107e-21)
(0.281483 0.0413509 0)
(1.15036 0.167751 -1.50246e-20)
(1.28171 0.198609 0)
(1.2869 0.21515 2.51779e-20)
(1.25354 0.226475 0)
(1.21351 0.235305 1.41695e-20)
(1.17036 0.240896 5.6085e-22)
(1.12429 0.242041 -1.44679e-20)
(1.07556 0.237276 -3.10281e-21)
(1.02459 0.224966 1.3797e-20)
(0.978354 0.206344 7.54621e-20)
(0.942477 0.186413 -5.80071e-22)
(0.915045 0.16769 -3.12568e-20)
(0.893396 0.150781 -6.09803e-20)
(0.874888 0.135894 7.40342e-20)
(0.848972 0.122248 -1.33052e-19)
(0.772593 0.104056 -1.81629e-20)
(0.575062 0.0753348 0)
(0.296336 0.0391824 2.07922e-22)
(0.0455799 0.00645825 0)
(0.272562 0.0550673 -3.6552e-19)
(1.16863 0.22842 1.53264e-19)
(1.30258 0.264336 8.37624e-20)
(1.30342 0.278736 -1.63138e-20)
(1.26538 0.286195 2.50376e-20)
(1.22058 0.290985 -3.35417e-20)
(1.1724 0.292701 -6.08628e-22)
(1.12108 0.29013 0)
(1.06697 0.281793 -5.22396e-20)
(1.01059 0.266035 0)
(0.959562 0.244602 -3.84086e-20)
(0.9199 0.222868 -5.47397e-20)
(0.889476 0.203214 -3.51651e-20)
(0.86542 0.185995 -4.55867e-20)
(0.845083 0.17113 0)
(0.81902 0.157389 0)
(0.749361 0.138767 -1.22793e-19)
(0.573248 0.105151 2.44155e-20)
(0.309993 0.0578352 -1.41969e-20)
(0.0523524 0.0102652 -1.63281e-20)
(0.263622 0.0673197 2.68807e-19)
(1.17418 0.288614 0)
(1.31389 0.330831 -2.33549e-19)
(1.31222 0.343489 -6.08539e-20)
(1.27091 0.347273 -4.72606e-20)
(1.22262 0.3481 0)
(1.17057 0.345906 -7.85232e-21)
(1.11504 0.339486 1.19139e-20)
(1.05647 0.327402 2.22212e-20)
(0.995479 0.308038 7.05282e-20)
(0.940468 0.283684 0)
(0.897844 0.260084 -1.19469e-19)
(0.865303 0.239423 -7.68544e-20)
(0.839733 0.221825 -4.63875e-20)
(0.818432 0.207022 3.05561e-19)
(0.793042 0.193507 3.75424e-20)
(0.730102 0.174493 1.79061e-19)
(0.57016 0.135875 -8.60493e-19)
(0.317196 0.0769161 5.08313e-19)
(0.0566423 0.0140807 -6.07178e-19)
(0.255775 0.0783477 2.82951e-19)
(1.17186 0.346398 -5.35005e-20)
(1.31816 0.396261 4.09035e-20)
(1.31493 0.407615 1.12031e-19)
(1.27129 0.40793 6.9606e-20)
(1.22039 0.405038 3.31635e-21)
(1.16528 0.399138 7.32612e-21)
(1.10635 0.38899 7.38562e-21)
(1.04412 0.373178 -4.90447e-20)
(0.979254 0.350152 0)
(0.920933 0.322716 -5.10382e-20)
(0.876104 0.297025 -3.00948e-21)
(0.842104 0.275092 -8.62129e-20)
(0.815623 0.256835 0)
(0.79399 0.241797 -6.67307e-20)
(0.769728 0.228172 -1.62409e-19)
(0.712331 0.208137 4.48987e-19)
(0.563039 0.164154 -4.44366e-19)
(0.317585 0.0936512 6.26945e-19)
(0.057954 0.0172909 -6.45832e-19)
(0.249459 0.0885788 -8.3401e-22)
(1.16478 0.401182 6.5234e-20)
(1.3172 0.459547 1.94904e-19)
(1.31297 0.469953 -6.83158e-20)
(1.26767 0.467151 3.9619e-20)
(1.2147 0.460888 0)
(1.15715 0.45152 1.96794e-20)
(1.09543 0.437847 -4.20606e-21)
(1.03008 0.418447 -2.17948e-20)
(0.961941 0.391756 0)
(0.900766 0.361077 -4.95694e-20)
(0.854073 0.333018 -7.04728e-20)
(0.818992 0.309473 9.44232e-20)
(0.79207 0.290148 -6.06956e-20)
(0.770554 0.274371 -2.94273e-19)
(0.7475 0.26018 1.81059e-19)
(0.694113 0.238492 5.71719e-20)
(0.551894 0.188982 0)
(0.312909 0.107677 -6.10257e-19)
(0.0573995 0.0198383 -2.21467e-20)
(0.244545 0.0983306 4.61948e-20)
(1.15497 0.452851 -7.48668e-20)
(1.31239 0.520045 -1.06446e-19)
(1.30755 0.529865 -2.10373e-19)
(1.26096 0.524365 1.91259e-19)
(1.20638 0.515069 -1.04129e-19)
(1.14686 0.502522 -4.1475e-20)
(1.08276 0.485566 -5.16438e-21)
(1.01468 0.462761 2.35406e-20)
(0.943584 0.43247 -1.7236e-19)
(0.879887 0.398444 -6.14659e-20)
(0.831692 0.367697 0)
(0.795912 0.342181 1.03354e-19)
(0.768827 0.32141 1.28084e-19)
(0.74757 0.304543 1.57957e-19)
(0.725531 0.289282 -1.976e-19)
(0.674921 0.265638 -5.94133e-20)
(0.537432 0.210478 6.99894e-20)
(0.30443 0.119046 0)
(0.0556807 0.021762 -4.8259e-20)
(0.240811 0.107728 -5.34983e-19)
(1.1438 0.501539 3.423e-19)
(1.30491 0.577544 1.16912e-19)
(1.29957 0.587045 -1.60168e-19)
(1.25197 0.579195 1.13896e-19)
(1.1961 0.567212 -7.72652e-21)
(1.13493 0.551809 4.10168e-20)
(1.0688 0.531851 -2.99387e-21)
(0.998316 0.505862 -3.95559e-20)
(0.92454 0.472116 3.33881e-22)
(0.858587 0.434658 -1.82534e-19)
(0.808969 0.401007 1.80355e-19)
(0.772582 0.37317 -1.16004e-19)
(0.745405 0.350593 1.44655e-19)
(0.724453 0.332276 0)
(0.703224 0.315634 -1.07304e-19)
(0.654415 0.289512 -2.44717e-21)
(0.520316 0.228615 -3.06221e-19)
(0.293087 0.127953 -4.49618e-20)
(0.0529728 0.0230249 0)
(0.238079 0.116867 0)
(1.13205 0.547491 3.71042e-19)
(1.29549 0.631989 2.71909e-19)
(1.28972 0.64135 1.80366e-19)
(1.2413 0.631462 1.10055e-19)
(1.1844 0.617109 0)
(1.12187 0.59916 3.70762e-20)
(1.05399 0.576501 -2.40686e-21)
(0.981357 0.547598 8.37407e-20)
(0.905083 0.51057 -2.08179e-20)
(0.836762 0.469687 -1.3399e-19)
(0.785628 0.432967 9.00005e-20)
(0.74864 0.402496 -3.88571e-21)
(0.721447 0.37777 1.52229e-19)
(0.700805 0.357681 9.98325e-20)
(0.680215 0.339331 -2.33756e-19)
(0.632509 0.310274 2.82469e-19)
(0.500866 0.243474 8.39306e-20)
(0.27943 0.134502 3.44465e-19)
(0.0495093 0.0236012 -9.10618e-19)
(0.236206 0.125899 -1.36867e-19)
(1.12027 0.590871 2.13628e-19)
(1.28478 0.683419 -1.68732e-19)
(1.27859 0.692771 -2.08711e-19)
(1.2295 0.681085 0)
(1.17175 0.664642 8.90812e-20)
(1.10807 0.644447 -1.07721e-19)
(1.03866 0.619387 -3.7493e-21)
(0.964032 0.587861 0)
(0.885261 0.547781 -3.25648e-19)
(0.814558 0.503525 3.65484e-19)
(0.761795 0.463595 0)
(0.723974 0.430224 1.37426e-19)
(0.696717 0.403026 -3.90519e-21)
(0.676371 0.380859 -3.15702e-19)
(0.656277 0.360485 1.24028e-19)
(0.609119 0.32808 0)
(0.479406 0.255203 4.55413e-19)
(0.263888 0.138699 0)
(0.0455155 0.0235894 -4.34088e-19)
(0.235005 0.13482 1.52363e-19)
(1.10871 0.63193 2.43813e-19)
(1.27337 0.731845 -1.76725e-19)
(1.2666 0.741338 0)
(1.21695 0.728055 1.50215e-19)
(1.1585 0.709773 0)
(1.09385 0.687599 1.39368e-19)
(1.02306 0.660435 1.66119e-20)
(0.946561 0.626604 7.45157e-21)
(0.865373 0.583771 -1.60768e-19)
(0.792194 0.536314 3.5263e-20)
(0.737595 0.493067 0)
(0.69868 0.456543 -2.9216e-19)
(0.671156 0.426533 4.04014e-21)
(0.651055 0.402012 0)
(0.631281 0.379298 4.82979e-21)
(0.58415 0.343073 4.15981e-19)
(0.45587 0.263717 -3.98829e-19)
(0.246558 0.140504 1.17035e-19)
(0.0409868 0.0229441 0)
(0.234118 0.143515 0)
(1.09753 0.670767 2.72321e-19)
(1.2615 0.777427 2.06597e-19)
(1.25407 0.787118 -4.35832e-21)
(1.20398 0.772405 9.35332e-20)
(1.14498 0.752509 2.09309e-19)
(1.0795 0.728614 -4.51127e-20)
(1.00748 0.699634 7.76629e-21)
(0.929248 0.663815 4.83476e-20)
(0.84565 0.618575 -2.49656e-19)
(0.769769 0.568143 -6.16866e-21)
(0.713042 0.521611 -1.18866e-19)
(0.672825 0.481779 4.79058e-19)
(0.64474 0.44872 -4.82671e-21)
(0.624738 0.421481 -2.4906e-19)
(0.605085 0.39602 -4.55193e-19)
(0.557504 0.355426 0)
(0.430265 0.269174 0)
(0.227513 0.139817 1.28704e-19)
(0.036113 0.0216597 -7.41028e-20)
(0.233817 0.15209 1.88943e-19)
(1.08695 0.707335 -5.95901e-19)
(1.24934 0.820299 -2.20947e-19)
(1.24128 0.830174 0)
(1.19087 0.81419 -2.98482e-21)
(1.13142 0.792883 2.49924e-19)
(1.06523 0.767508 -1.48655e-19)
(0.992143 0.736983 -7.25598e-20)
(0.912284 0.699497 4.64724e-20)
(0.826257 0.652218 -1.90785e-19)
(0.747486 0.599132 -3.08153e-19)
(0.688218 0.549403 3.16662e-19)
(0.646336 0.506116 0)
(0.617437 0.469719 -1.12055e-19)
(0.597355 0.439435 -2.73613e-19)
(0.577586 0.410778 -3.29939e-19)
(0.529067 0.365095 -4.00025e-19)
(0.402468 0.27141 1.19228e-19)
(0.206674 0.136316 -6.9636e-20)
(0.0308368 0.0196976 7.95228e-22)
(0.233515 0.160504 0)
(1.07708 0.741704 0)
(1.23714 0.860565 4.85473e-21)
(1.22845 0.870596 0)
(1.17779 0.853492 -3.49488e-19)
(1.11799 0.830953 -2.1971e-19)
(1.05124 0.804302 0)
(0.977202 0.772487 -1.64943e-20)
(0.895816 0.733646 5.15614e-20)
(0.807396 0.684729 -4.37744e-19)
(0.72554 0.629379 0)
(0.663315 0.576667 -2.02601e-19)
(0.619204 0.529845 -5.93945e-21)
(0.589123 0.489779 -4.90556e-21)
(0.568765 0.456046 2.91962e-19)
(0.548677 0.42362 -8.28881e-22)
(0.498731 0.372024 -8.6909e-19)
(0.372272 0.270153 2.59936e-19)
(0.184144 0.130037 7.67937e-20)
(0.0251969 0.017084 0)
(0.233241 0.168624 -6.92315e-19)
(1.06764 0.774311 -3.65702e-19)
(1.225 0.898341 -5.50555e-19)
(1.21572 0.908491 7.72804e-19)
(1.16489 0.890382 -6.5324e-19)
(1.10484 0.866778 0)
(1.03764 0.839042 -1.24413e-19)
(0.962784 0.806171 3.12375e-20)
(0.88 0.766281 7.34292e-21)
(0.789238 0.716135 3.48087e-20)
(0.704118 0.658967 3.84348e-19)
(0.638543 0.603594 -6.90926e-20)
(0.591615 0.553284 -2.95144e-19)
(0.559751 0.509263 -1.33109e-19)
(0.538799 0.471506 1.62702e-19)
(0.518158 0.434546 -6.77403e-22)
(0.466345 0.375991 2.38465e-19)
(0.339443 0.265115 -5.63871e-19)
(0.159939 0.120808 6.68329e-19)
(0.0194721 0.0139948 9.53164e-20)
(0.232869 0.176399 2.53707e-19)
(1.05862 0.805173 -1.99784e-19)
(1.21306 0.933745 1.15958e-20)
(1.20322 0.943983 4.3523e-19)
(1.15229 0.924969 1.52067e-19)
(1.09207 0.900431 4.36447e-19)
(1.02454 0.871778 -5.44395e-20)
(0.948996 0.838059 1.47643e-19)
(0.864952 0.797402 -1.22405e-20)
(0.77192 0.746429 -2.35668e-19)
(0.683422 0.687946 0)
(0.6141 0.630352 -3.11065e-19)
(0.563734 0.576773 4.28275e-19)
(0.529289 0.528571 0)
(0.5072 0.486059 -3.48024e-19)
(0.485736 0.443369 2.15774e-19)
(0.431856 0.376514 -2.57639e-19)
(0.304769 0.256035 -3.08773e-19)
(0.135119 0.109079 -5.43882e-19)
(0.0138495 0.0105468 -4.17901e-19)
(0.232657 0.183939 -2.78099e-19)
(1.04985 0.834288 2.13276e-19)
(1.20138 0.966869 5.10509e-19)
(1.19102 0.977161 5.96824e-19)
(1.14006 0.957344 -3.17818e-19)
(1.07976 0.931997 2.99621e-19)
(1.01201 0.902564 -1.69262e-19)
(0.935909 0.868195 1.79852e-19)
(0.850736 0.827027 5.12174e-21)
(0.755561 0.775611 2.21865e-19)
(0.66364 0.716345 8.12012e-19)
(0.590245 0.657059 0)
(0.535773 0.600589 0)
(0.497726 0.548202 -1.53798e-19)
(0.473544 0.500069 0)
(0.450752 0.449738 4.69826e-19)
(0.394946 0.372436 5.63004e-19)
(0.268988 0.24204 0)
(0.110995 0.0950575 0)
(0.00879592 0.00709147 4.54908e-19)
(0.232184 0.190966 3.05952e-19)
(1.04138 0.861677 2.54463e-19)
(1.19002 0.997837 3.65889e-19)
(1.17919 1.00816 -5.30941e-19)
(1.12827 0.987612 -3.53106e-19)
(1.06796 0.961553 -3.95634e-19)
(1.00009 0.931464 2.49902e-19)
(0.923564 0.896607 7.33609e-22)
(0.837415 0.85516 -9.38424e-21)
(0.740246 0.803662 -1.18565e-20)
(0.644946 0.744154 4.10177e-19)
(0.567233 0.683765 0)
(0.508082 0.624995 4.31259e-19)
(0.465219 0.568777 3.23646e-19)
(0.43729 0.514344 8.283e-19)
(0.411864 0.45346 2.53306e-19)
(0.354579 0.361713 -3.10756e-19)
(0.233829 0.220726 -1.81969e-19)
(0.0914938 0.078675 0)
(0.00556048 0.00414977 4.94078e-19)
(0.231895 0.197912 -6.70558e-19)
(1.03317 0.88745 0)
(1.17898 1.02673 4.07242e-19)
(1.16775 1.03706 -4.33562e-19)
(1.11694 1.01587 3.97997e-19)
(1.0567 0.989185 5.75284e-19)
(0.988819 0.958538 -5.75556e-19)
(0.911984 0.923337 6.79893e-21)
(0.825014 0.88181 0)
(0.726035 0.830539 -2.00537e-19)
(0.627486 0.771329 -8.44803e-19)
(0.545322 0.710484 4.19558e-20)
(0.481074 0.650099 5.84525e-19)
(0.432172 0.590933 0)
(0.398032 0.530134 5.58398e-19)
(0.366974 0.455475 0)
(0.30693 0.341923 0)
(0.199435 0.183962 -2.0265e-19)
(0.0905115 0.0499012 0)
(0.024914 0.0105828 1.33373e-19)
(0.231287 0.204221 -7.30628e-19)
(1.02521 0.911885 0)
(1.16826 1.05374 6.56822e-19)
(1.15668 1.0641 0)
(1.10606 1.04236 -2.1495e-19)
(1.04591 1.01517 0)
(0.978126 0.984088 -4.26081e-20)
(0.901075 0.948713 -3.05729e-20)
(0.813421 0.907329 -2.90105e-21)
(0.71279 0.856619 -1.91773e-19)
(0.611142 0.798278 2.17615e-20)
(0.524422 0.737743 3.46677e-19)
(0.454653 0.676411 5.64504e-19)
(0.398471 0.615631 8.09676e-20)
(0.354901 0.549689 4.36267e-19)
(0.312879 0.459167 0)
(0.240661 0.315057 6.78118e-19)
(0.140847 0.11933 -3.98574e-19)
(0.0548975 0.0599918 4.54411e-19)
(-0.0561878 0.396513 -5.36353e-19)
(0.230664 0.210259 5.94258e-19)
(1.01725 0.934932 9.59181e-19)
(1.15779 1.07919 0)
(1.14585 1.08968 9.29252e-21)
(1.09544 1.06764 5.82494e-19)
(1.03537 1.04016 -1.10507e-18)
(0.967734 1.00888 -2.51526e-19)
(0.890482 0.973636 0)
(0.802177 0.932772 -6.45692e-20)
(0.699938 0.883174 -4.82564e-21)
(0.595132 0.826451 0)
(0.503555 0.767312 0)
(0.427686 0.705811 4.94177e-19)
(0.363204 0.644834 -2.5298e-19)
(0.3061 0.576953 -4.34548e-19)
(0.245575 0.472824 0)
(0.133651 0.297153 3.40077e-19)
(0.0267659 0.437582 -3.96815e-19)
(0.0439403 1.78425 -2.0816e-19)
(0.0794218 2.7545 -2.78396e-19)
(0.22986 0.215531 -4.30839e-19)
(1.00947 0.956674 -1.20536e-18)
(1.14755 1.10308 3.761e-19)
(1.13527 1.11367 3.64298e-19)
(1.08515 1.09151 0)
(1.02513 1.06388 -7.8874e-19)
(0.957816 1.0326 -4.19367e-19)
(0.880359 0.997689 2.001e-20)
(0.79151 0.95763 -8.76315e-21)
(0.687806 0.90958 1.37018e-19)
(0.580004 0.855116 3.68573e-19)
(0.483666 0.7986 3.52484e-19)
(0.401396 0.73783 4.8324e-19)
(0.328752 0.67679 -5.74738e-19)
(0.257689 0.613526 -6.40786e-19)
(0.170009 0.505779 0)
(0.0736613 0.809127 0)
(0.128102 2.47355 1.75927e-19)
(0.134146 3.16507 0)
(0.135502 3.37301 3.76298e-19)
(0.231917 0.220621 0)
(1.00245 0.977293 0)
(1.13729 1.12528 0)
(1.12472 1.13586 1.01053e-19)
(1.07489 1.11376 5.17086e-19)
(1.01496 1.0862 -5.99643e-19)
(0.948273 1.05517 -2.9933e-19)
(0.870649 1.02076 2.25799e-20)
(0.781369 0.981755 -1.4493e-19)
(0.676401 0.935677 -1.99916e-20)
(0.565863 0.884102 6.54693e-19)
(0.465094 0.831357 -4.13534e-20)
(0.376324 0.772946 5.38835e-20)
(0.296602 0.708879 8.13919e-20)
(0.215679 0.656378 3.07177e-21)
(0.137772 0.910767 3.36455e-21)
(0.177398 2.60826 -8.76614e-19)
(0.196603 3.26864 -3.27377e-19)
(0.179506 3.42425 1.47449e-19)
(0.161089 3.45055 -1.49017e-19)
(0.15121 0.173077 2.36453e-19)
(0.989724 0.999861 0)
(1.12683 1.14594 -7.29885e-19)
(1.11486 1.15676 -9.3149e-19)
(1.06527 1.13502 1.07713e-18)
(1.00564 1.10768 6.37009e-19)
(0.938961 1.07664 3.46509e-19)
(0.861411 1.04295 -3.80399e-19)
(0.771912 1.0052 1.51834e-19)
(0.66607 0.961401 0)
(0.553256 0.913206 2.74442e-19)
(0.44859 0.864876 -2.58159e-19)
(0.353464 0.812742 0)
(0.267314 0.744537 6.88465e-20)
(0.197821 0.844739 1.67492e-19)
(0.186366 2.27173 -2.10394e-19)
(0.267917 3.30604 2.29481e-19)
(0.2443 3.44487 1.09295e-19)
(0.203558 3.47093 1.21927e-19)
(0.176641 3.48299 1.47242e-19)
(0.269641 0.255416 -4.26263e-19)
(0.971386 1.00599 0)
(1.10743 1.16858 7.4094e-19)
(1.10118 1.18774 9.60724e-19)
(1.04987 1.16619 -1.09542e-18)
(0.990153 1.13938 -6.70244e-19)
(0.922966 1.10968 -5.33418e-19)
(0.845267 1.0772 -2.8309e-20)
(0.7551 1.04168 -2.15114e-19)
(0.647494 1.00198 -2.15128e-20)
(0.531082 0.960574 9.68178e-21)
(0.420316 0.920886 1.9336e-19)
(0.312447 0.883549 4.27418e-20)
(0.244326 0.983519 -6.23876e-20)
(0.273007 2.15796 -1.4515e-19)
(0.345294 3.30546 9.50314e-20)
(0.333633 3.48489 -8.15627e-20)
(0.291025 3.51078 -4.55409e-20)
(0.249242 3.54077 2.2647e-20)
(0.189182 3.53194 2.58354e-22)
(0.257559 0.251812 0)
(0.96776 1.02649 1.94137e-19)
(1.09909 1.19019 -1.47391e-19)
(1.09123 1.20931 -1.07495e-19)
(1.04022 1.18781 -7.21146e-19)
(0.980772 1.16121 6.55658e-19)
(0.913523 1.13169 3.59175e-19)
(0.836047 1.1 -2.96597e-20)
(0.745988 1.06599 2.65031e-19)
(0.638072 1.02919 -2.77564e-20)
(0.520419 0.992761 -3.18451e-19)
(0.407322 0.959688 2.72831e-20)
(0.30182 0.94556 -3.62184e-20)
(0.288674 1.3865 -5.02472e-20)
(0.383082 2.99266 3.68917e-20)
(0.421824 3.47313 2.1668e-21)
(0.372411 3.55132 -9.42751e-20)
(0.330198 3.57925 -1.18448e-19)
(0.272326 3.60514 1.58889e-19)
(0.20541 3.59777 5.51046e-20)
(0.240925 0.248727 4.72616e-19)
(0.962298 1.04918 1.31546e-18)
(1.09009 1.21356 -4.22132e-19)
(1.08085 1.23225 -4.09298e-19)
(1.03013 1.21061 0)
(0.97098 1.184 9.60184e-19)
(0.903959 1.1547 5.48091e-19)
(0.826991 1.12375 -3.11628e-20)
(0.737381 1.09128 2.76213e-20)
(0.629695 1.05753 1.55222e-19)
(0.511608 1.0263 -7.89515e-20)
(0.398092 1.00085 -1.7728e-19)
(0.308285 1.05139 -2.27299e-19)
(0.366494 1.9753 2.50888e-19)
(0.481195 3.34868 9.68752e-20)
(0.47811 3.54922 0)
(0.419284 3.59926 0)
(0.379388 3.65184 1.58995e-19)
(0.303166 3.72545 0)
(0.217216 3.68367 2.39293e-19)
(0.229376 0.249056 -6.92284e-19)
(0.954661 1.07247 -1.09827e-18)
(1.07966 1.2379 0)
(1.06928 1.25593 1.05458e-20)
(1.01889 1.23388 -7.04661e-19)
(0.960162 1.20714 1.42839e-18)
(0.893703 1.17804 3.68707e-19)
(0.817473 1.14773 -3.85227e-20)
(0.728592 1.11671 2.93503e-19)
(0.621588 1.08593 -1.58812e-20)
(0.503922 1.05999 0)
(0.392369 1.04402 0)