0.490941 	0.864359 	0.00614448 	3.00286 	0
0.561075 	0.864359 	0.00614448 	3.00286 	0
0.63121 	0.864359 	0.00614448 	3.00286 	0
0.701344 	0.864359 	0.00614448 	3.00286 	0
0.771478 	0.864359 	0.00614448 	3.00286 	0
0.841613 	0.864359 	0.00614448 	3.00286 	0
0.911747 	0.864359 	0.00614448 	3.00286 	0
0.981881 	0.864359 	0.00614448 	3.00286 	0
1.05202 	0.864359 	0.00614448 	3.00286 	0
1.12215 	0.864359 	0.00614448 	3.00286 	0
1.19228 	0.864359 	0.00614448 	3.00286 	0
1.26242 	0.838221 	0.0115416 	3.00786 	0
1.33255 	0.838221 	0.0115416 	3.00786 	0
1.40269 	0.838221 	0.0115416 	3.00786 	0
1.47282 	0.838221 	0.0115416 	3.00786 	0
1.54296 	0.838221 	0.0115416 	3.00786 	0
1.61309 	0.838221 	0.0115416 	3.00786 	0
1.68323 	0.838221 	0.0115416 	3.00786 	0
1.75336 	0.838221 	0.0115416 	3.00786 	0
1.82349 	0.788476 	0.0147656 	3.02411 	3.01013e-19
1.89363 	0.788476 	0.0147656 	3.02411 	3.01013e-19
1.96376 	0.788476 	0.0147656 	3.02411 	3.01013e-19
2.0339 	0.788476 	0.0147656 	3.02411 	3.01013e-19
2.10403 	0.788476 	0.0147656 	3.02411 	3.01013e-19
2.17417 	0.788476 	0.0147656 	3.02411 	3.01013e-19
2.2443 	0.788476 	0.0147656 	3.02411 	3.01013e-19
2.31443 	0.788476 	0.0147656 	3.02411 	3.01013e-19
2.38457 	0.788476 	0.0147656 	3.02411 	3.01013e-19
2.4547 	0.788476 	0.0147656 	3.02411 	3.01013e-19
2.52484 	0.788476 	0.0147656 	3.02411 	3.01013e-19
2.59497 	0.75382 	0.00725207 	3.03675 	-4.71126e-19
2.66511 	0.75382 	0.00725207 	3.03675 	-4.71126e-19
2.73524 	0.75382 	0.00725207 	3.03675 	-4.71126e-19
2.80538 	0.75382 	0.00725207 	3.03675 	-4.71126e-19
2.87551 	0.75382 	0.00725207 	3.03675 	-4.71126e-19
2.94564 	0.75382 	0.00725207 	3.03675 	-4.71126e-19
3.01578 	0.75382 	0.00725207 	3.03675 	-4.71126e-19
3.08591 	0.75382 	0.00725207 	3.03675 	-4.71126e-19
3.15605 	0.75382 	0.00725207 	3.03675 	-4.71126e-19
3.22618 	0.75382 	0.00725207 	3.03675 	-4.71126e-19
3.29632 	0.721331 	0.0198605 	3.04358 	4.7661e-19
3.36645 	0.721331 	0.0198605 	3.04358 	4.7661e-19
3.43659 	0.721331 	0.0198605 	3.04358 	4.7661e-19
3.50672 	0.721331 	0.0198605 	3.04358 	4.7661e-19
3.57685 	0.721331 	0.0198605 	3.04358 	4.7661e-19
3.64699 	0.721331 	0.0198605 	3.04358 	4.7661e-19
3.71712 	0.721331 	0.0198605 	3.04358 	4.7661e-19
3.78726 	0.721331 	0.0198605 	3.04358 	4.7661e-19
3.85739 	0.721331 	0.0198605 	3.04358 	4.7661e-19
3.92753 	0.721331 	0.0198605 	3.04358 	4.7661e-19
3.99766 	0.721331 	0.0198605 	3.04358 	4.7661e-19
4.06779 	0.702923 	0.00395538 	3.05016 	-1.3247e-20
4.13793 	0.702923 	0.00395538 	3.05016 	-1.3247e-20
4.20806 	0.702923 	0.00395538 	3.05016 	-1.3247e-20
4.2782 	0.702923 	0.00395538 	3.05016 	-1.3247e-20
4.34833 	0.702923 	0.00395538 	3.05016 	-1.3247e-20
4.41847 	0.702923 	0.00395538 	3.05016 	-1.3247e-20
4.4886 	0.677964 	0.0161945 	3.05816 	0
4.55874 	0.677964 	0.0161945 	3.05816 	0
4.62887 	0.677964 	0.0161945 	3.05816 	0
4.699 	0.677964 	0.0161945 	3.05816 	0
4.76914 	0.677964 	0.0161945 	3.05816 	0
4.83927 	0.677964 	0.0161945 	3.05816 	0
4.90941 	0.677964 	0.0161945 	3.05816 	0
4.97954 	0.677964 	0.0161945 	3.05816 	0
5.04968 	0.677964 	0.0161945 	3.05816 	0
5.11981 	0.677964 	0.0161945 	3.05816 	0
5.18994 	0.655623 	0.0060611 	3.06456 	-6.13879e-21
5.26008 	0.655623 	0.0060611 	3.06456 	-6.13879e-21
5.33021 	0.655623 	0.0060611 	3.06456 	-6.13879e-21
5.40035 	0.655623 	0.0060611 	3.06456 	-6.13879e-21
5.47048 	0.655623 	0.0060611 	3.06456 	-6.13879e-21
5.54062 	0.655623 	0.0060611 	3.06456 	-6.13879e-21
5.61075 	0.655623 	0.0060611 	3.06456 	-6.13879e-21
5.68089 	0.626801 	0.0109418 	3.07503 	0
5.75102 	0.626801 	0.0109418 	3.07503 	0
5.82115 	0.626801 	0.0109418 	3.07503 	0
5.89129 	0.626801 	0.0109418 	3.07503 	0
5.96142 	0.626801 	0.0109418 	3.07503 	0
6.03156 	0.626801 	0.0109418 	3.07503 	0
6.10169 	0.626801 	0.0109418 	3.07503 	0
6.17183 	0.626801 	0.0109418 	3.07503 	0
6.24196 	0.626801 	0.0109418 	3.07503 	0
6.3121 	0.59838 	0.00730992 	3.08184 	0
6.38223 	0.59838 	0.00730992 	3.08184 	0
6.45236 	0.59838 	0.00730992 	3.08184 	0
6.5225 	0.59838 	0.00730992 	3.08184 	0
6.59263 	0.59838 	0.00730992 	3.08184 	0
6.66277 	0.59838 	0.00730992 	3.08184 	0
6.7329 	0.59838 	0.00730992 	3.08184 	0
6.80304 	0.59838 	0.00730992 	3.08184 	0
6.87317 	0.571882 	0.00592598 	3.0919 	1.94746e-19
6.9433 	0.571882 	0.00592598 	3.0919 	1.94746e-19
7.01344 	0.571882 	0.00592598 	3.0919 	1.94746e-19
7.08357 	0.571882 	0.00592598 	3.0919 	1.94746e-19
7.15371 	0.571882 	0.00592598 	3.0919 	1.94746e-19
7.22384 	0.571882 	0.00592598 	3.0919 	1.94746e-19
7.29398 	0.571882 	0.00592598 	3.0919 	1.94746e-19
7.36411 	0.571882 	0.00592598 	3.0919 	1.94746e-19
7.43425 	0.571882 	0.00592598 	3.0919 	1.94746e-19
7.50438 	0.541398 	0.00861092 	3.09955 	-1.42748e-18
7.57451 	0.541398 	0.00861092 	3.09955 	-1.42748e-18
7.64465 	0.541398 	0.00861092 	3.09955 	-1.42748e-18
7.71478 	0.541398 	0.00861092 	3.09955 	-1.42748e-18
7.78492 	0.541398 	0.00861092 	3.09955 	-1.42748e-18
7.85505 	0.541398 	0.00861092 	3.09955 	-1.42748e-18
7.92519 	0.541398 	0.00861092 	3.09955 	-1.42748e-18
7.99532 	0.541398 	0.00861092 	3.09955 	-1.42748e-18
8.06545 	0.521221 	0.00204827 	3.10492 	1.42877e-18
8.13559 	0.521221 	0.00204827 	3.10492 	1.42877e-18
8.20572 	0.521221 	0.00204827 	3.10492 	1.42877e-18
8.27586 	0.521221 	0.00204827 	3.10492 	1.42877e-18
8.34599 	0.521221 	0.00204827 	3.10492 	1.42877e-18
8.41613 	0.521221 	0.00204827 	3.10492 	1.42877e-18
8.48626 	0.521221 	0.00204827 	3.10492 	1.42877e-18
8.5564 	0.521221 	0.00204827 	3.10492 	1.42877e-18
8.62653 	0.521221 	0.00204827 	3.10492 	1.42877e-18
8.69666 	0.488995 	0.0117252 	3.11909 	1.11909e-18
8.7668 	0.488995 	0.0117252 	3.11909 	1.11909e-18
8.83693 	0.488995 	0.0117252 	3.11909 	1.11909e-18
8.90707 	0.488995 	0.0117252 	3.11909 	1.11909e-18
8.9772 	0.488995 	0.0117252 	3.11909 	1.11909e-18
9.04734 	0.488995 	0.0117252 	3.11909 	1.11909e-18
9.11747 	0.488995 	0.0117252 	3.11909 	1.11909e-18
9.18761 	0.488995 	0.0117252 	3.11909 	1.11909e-18
9.25774 	0.457003 	0.00549392 	3.11863 	-1.0269e-18
9.32787 	0.457003 	0.00549392 	3.11863 	-1.0269e-18
9.39801 	0.457003 	0.00549392 	3.11863 	-1.0269e-18
9.46814 	0.457003 	0.00549392 	3.11863 	-1.0269e-18
9.53828 	0.457003 	0.00549392 	3.11863 	-1.0269e-18
9.60841 	0.457003 	0.00549392 	3.11863 	-1.0269e-18
9.67855 	0.457003 	0.00549392 	3.11863 	-1.0269e-18
9.74868 	0.457003 	0.00549392 	3.11863 	-1.0269e-18
9.81881 	0.442514 	0.0195005 	3.1294 	-3.4703e-19
9.88895 	0.442514 	0.0195005 	3.1294 	-3.4703e-19
9.95908 	0.442514 	0.0195005 	3.1294 	-3.4703e-19
10.0292 	0.442514 	0.0195005 	3.1294 	-3.4703e-19
10.0994 	0.442514 	0.0195005 	3.1294 	-3.4703e-19
10.1695 	0.442514 	0.0195005 	3.1294 	-3.4703e-19
10.2396 	0.442514 	0.0195005 	3.1294 	-3.4703e-19
10.3098 	0.442514 	0.0195005 	3.1294 	-3.4703e-19
10.3799 	0.442514 	0.0195005 	3.1294 	-3.4703e-19
10.45 	0.442514 	0.0195005 	3.1294 	-3.4703e-19
10.5202 	0.442514 	0.0195005 	3.1294 	-3.4703e-19
10.5903 	0.442514 	0.0195005 	3.1294 	-3.4703e-19
10.6604 	0.465103 	0.0172199 	3.12527 	5.10799e-19
10.7306 	0.411147 	0.0390672 	3.13983 	0
10.8007 	0.411147 	0.0390672 	3.13983 	0
10.8708 	0.411147 	0.0390672 	3.13983 	0
10.941 	0.411147 	0.0390672 	3.13983 	0
11.0111 	0.411147 	0.0390672 	3.13983 	0
11.0812 	0.411147 	0.0390672 	3.13983 	0
11.1514 	0.411147 	0.0390672 	3.13983 	0
11.2215 	0.411147 	0.0390672 	3.13983 	0
11.2916 	0.411147 	0.0390672 	3.13983 	0
11.3618 	0.411147 	0.0390672 	3.13983 	0
11.4319 	0.411147 	0.0390672 	3.13983 	0
11.502 	0.411147 	0.0390672 	3.13983 	0
11.5722 	0.411147 	0.0390672 	3.13983 	0
11.6423 	0.411147 	0.0390672 	3.13983 	0
11.7124 	0.419958 	0.0263663 	3.12819 	0
11.7826 	0.354491 	0.082179 	3.16304 	5.21974e-19
11.8527 	0.354491 	0.082179 	3.16304 	5.21974e-19
11.9228 	0.354491 	0.082179 	3.16304 	5.21974e-19
11.993 	0.354491 	0.082179 	3.16304 	5.21974e-19
12.0631 	0.354491 	0.082179 	3.16304 	5.21974e-19
12.1332 	0.354491 	0.082179 	3.16304 	5.21974e-19
12.2034 	0.249651 	0.0746594 	3.19113 	-2.25464e-19
12.2735 	0.249651 	0.0746594 	3.19113 	-2.25464e-19
12.3437 	0.249651 	0.0746594 	3.19113 	-2.25464e-19
12.4138 	0.249651 	0.0746594 	3.19113 	-2.25464e-19
12.4839 	0.249651 	0.0746594 	3.19113 	-2.25464e-19
12.5541 	0.249651 	0.0746594 	3.19113 	-2.25464e-19
12.6242 	0.249651 	0.0746594 	3.19113 	-2.25464e-19
12.6943 	0.249651 	0.0746594 	3.19113 	-2.25464e-19
12.7645 	0.249651 	0.0746594 	3.19113 	-2.25464e-19
12.8346 	0.129514 	0.0407242 	3.18626 	1.20524e-19
12.9047 	0.110475 	0.142418 	3.22834 	-7.40373e-21
12.9749 	0.110475 	0.142418 	3.22834 	-7.40373e-21
13.045 	0.110475 	0.142418 	3.22834 	-7.40373e-21
13.1151 	0.110475 	0.142418 	3.22834 	-7.40373e-21
13.1853 	0.110475 	0.142418 	3.22834 	-7.40373e-21
13.2554 	0.110475 	0.142418 	3.22834 	-7.40373e-21
13.3255 	0.110475 	0.142418 	3.22834 	-7.40373e-21
13.3957 	0.337686 	0.149481 	3.19949 	8.17169e-19
13.4658 	0.337686 	0.149481 	3.19949 	8.17169e-19
13.5359 	0.337686 	0.149481 	3.19949 	8.17169e-19
13.6061 	0.337686 	0.149481 	3.19949 	8.17169e-19
13.6762 	0.337686 	0.149481 	3.19949 	8.17169e-19
13.7463 	0.337686 	0.149481 	3.19949 	8.17169e-19
13.8165 	0.406399 	0.12948 	2.87663 	-6.76363e-19
13.8866 	0.590134 	0.153138 	2.97022 	1.25684e-19
13.9567 	0.590134 	0.153138 	2.97022 	1.25684e-19
14.0269 	0.0161285 	0.262042 	3.04306 	-7.32782e-19
14.097 	0.0161285 	0.262042 	3.04306 	-7.32782e-19
14.1671 	0.0161285 	0.262042 	3.04306 	-7.32782e-19
14.2373 	0.0161285 	0.262042 	3.04306 	-7.32782e-19
14.3074 	0.0161285 	0.262042 	3.04306 	-7.32782e-19
14.3776 	0.0161285 	0.262042 	3.04306 	-7.32782e-19
14.4477 	0.0161285 	0.262042 	3.04306 	-7.32782e-19
14.5178 	0.0161285 	0.262042 	3.04306 	-7.32782e-19
14.588 	0.0161285 	0.262042 	3.04306 	-7.32782e-19
14.6581 	0.0161285 	0.262042 	3.04306 	-7.32782e-19
14.7282 	0.0161285 	0.262042 	3.04306 	-7.32782e-19
14.7984 	0.0161285 	0.262042 	3.04306 	-7.32782e-19
14.8685 	0.0161285 	0.262042 	3.04306 	-7.32782e-19
14.9386 	-0.163737 	0.354194 	3.20387 	0
15.0088 	-0.163737 	0.354194 	3.20387 	0
15.0789 	-0.163737 	0.354194 	3.20387 	0
15.149 	-0.163737 	0.354194 	3.20387 	0
15.2192 	-0.163737 	0.354194 	3.20387 	0
15.2893 	-0.669897 	0.346619 	3.43717 	-4.41674e-19
15.3594 	-0.669897 	0.346619 	3.43717 	-4.41674e-19
15.4296 	-0.669897 	0.346619 	3.43717 	-4.41674e-19
15.4997 	-0.669897 	0.346619 	3.43717 	-4.41674e-19
15.5698 	-0.669897 	0.346619 	3.43717 	-4.41674e-19
15.64 	-0.669897 	0.346619 	3.43717 	-4.41674e-19
15.7101 	-1.16777 	0.401831 	3.50794 	0
15.7802 	-1.16777 	0.401831 	3.50794 	0
15.8504 	-1.07084 	0.653386 	3.56876 	1.65709e-18
15.9205 	-1.07084 	0.653386 	3.56876 	1.65709e-18
15.9906 	-1.07084 	0.653386 	3.56876 	1.65709e-18
16.0608 	-1.07084 	0.653386 	3.56876 	1.65709e-18
16.1309 	-1.07084 	0.653386 	3.56876 	1.65709e-18
16.201 	-1.07084 	0.653386 	3.56876 	1.65709e-18
16.2712 	-1.07084 	0.653386 	3.56876 	1.65709e-18
16.3413 	-1.07084 	0.653386 	3.56876 	1.65709e-18
16.4114 	-1.07084 	0.653386 	3.56876 	1.65709e-18
16.4816 	-1.07084 	0.653386 	3.56876 	1.65709e-18
16.5517 	-1.07084 	0.653386 	3.56876 	1.65709e-18
16.6219 	-1.07084 	0.653386 	3.56876 	1.65709e-18
16.692 	-1.07084 	0.653386 	3.56876 	1.65709e-18
16.7621 	-1.07084 	0.653386 	3.56876 	1.65709e-18
16.8323 	-0.654387 	0.885882 	3.13676 	4.06266e-19
16.9024 	-0.654387 	0.885882 	3.13676 	4.06266e-19
16.9725 	-0.654387 	0.885882 	3.13676 	4.06266e-19
17.0427 	-0.654387 	0.885882 	3.13676 	4.06266e-19
17.1128 	-0.654387 	0.885882 	3.13676 	4.06266e-19
17.1829 	-0.654387 	0.885882 	3.13676 	4.06266e-19
17.2531 	-0.654387 	0.885882 	3.13676 	4.06266e-19
17.3232 	-0.654387 	0.885882 	3.13676 	4.06266e-19
17.3933 	-0.654387 	0.885882 	3.13676 	4.06266e-19
17.4635 	-0.654387 	0.885882 	3.13676 	4.06266e-19
17.5336 	-0.566869 	0.906026 	3.05649 	-4.6909e-19
17.6037 	-0.566869 	0.906026 	3.05649 	-4.6909e-19
17.6739 	-0.566869 	0.906026 	3.05649 	-4.6909e-19
17.744 	-0.645208 	1.02711 	3.18811 	4.9435e-19
17.8141 	-0.645208 	1.02711 	3.18811 	4.9435e-19
17.8843 	-0.645208 	1.02711 	3.18811 	4.9435e-19
17.9544 	-0.645208 	1.02711 	3.18811 	4.9435e-19
18.0245 	-0.645208 	1.02711 	3.18811 	4.9435e-19
18.0947 	-0.645208 	1.02711 	3.18811 	4.9435e-19
18.1648 	-0.645208 	1.02711 	3.18811 	4.9435e-19
18.2349 	-0.645208 	1.02711 	3.18811 	4.9435e-19
18.3051 	-0.645208 	1.02711 	3.18811 	4.9435e-19
18.3752 	-0.357077 	0.987591 	2.80074 	-3.75504e-19
18.4453 	-0.357077 	0.987591 	2.80074 	-3.75504e-19
18.5155 	-0.357077 	0.987591 	2.80074 	-3.75504e-19
18.5856 	-0.357077 	0.987591 	2.80074 	-3.75504e-19
18.6557 	-0.357077 	0.987591 	2.80074 	-3.75504e-19
18.7259 	-0.357077 	0.987591 	2.80074 	-3.75504e-19
18.796 	-0.357077 	0.987591 	2.80074 	-3.75504e-19
18.8662 	-0.276474 	1.00834 	2.8583 	3.07456e-19
18.9363 	-0.276474 	1.00834 	2.8583 	3.07456e-19
19.0064 	-0.276474 	1.00834 	2.8583 	3.07456e-19
19.0766 	-0.276474 	1.00834 	2.8583 	3.07456e-19
19.1467 	-0.276474 	1.00834 	2.8583 	3.07456e-19
19.2168 	-0.276474 	1.00834 	2.8583 	3.07456e-19
19.287 	-0.276474 	1.00834 	2.8583 	3.07456e-19
19.3571 	-0.276474 	1.00834 	2.8583 	3.07456e-19
19.4272 	-0.276474 	1.00834 	2.8583 	3.07456e-19
19.4974 	-0.276474 	1.00834 	2.8583 	3.07456e-19
19.5675 	-0.276474 	1.00834 	2.8583 	3.07456e-19
19.6376 	-0.276474 	1.00834 	2.8583 	3.07456e-19
19.7078 	-0.276474 	1.00834 	2.8583 	3.07456e-19
19.7779 	-0.146907 	0.968138 	2.50562 	-4.65707e-20
19.848 	-0.146907 	0.968138 	2.50562 	-4.65707e-20
19.9182 	-0.146907 	0.968138 	2.50562 	-4.65707e-20
19.9883 	-0.146907 	0.968138 	2.50562 	-4.65707e-20
20.0584 	-0.146907 	0.968138 	2.50562 	-4.65707e-20
20.1286 	-0.146907 	0.968138 	2.50562 	-4.65707e-20
20.1987 	-0.146907 	0.968138 	2.50562 	-4.65707e-20
20.2688 	-0.160484 	0.970926 	2.52438 	-1.87954e-19
20.339 	-0.160484 	0.970926 	2.52438 	-1.87954e-19
20.4091 	-0.160484 	0.970926 	2.52438 	-1.87954e-19
20.4792 	-0.160484 	0.970926 	2.52438 	-1.87954e-19
20.5494 	-0.160484 	0.970926 	2.52438 	-1.87954e-19
20.6195 	-0.160484 	0.970926 	2.52438 	-1.87954e-19
20.6896 	-0.160484 	0.970926 	2.52438 	-1.87954e-19
20.7598 	-0.160484 	0.970926 	2.52438 	-1.87954e-19
20.8299 	-0.160484 	0.970926 	2.52438 	-1.87954e-19
20.9 	-0.160484 	0.970926 	2.52438 	-1.87954e-19
20.9702 	-0.160484 	0.970926 	2.52438 	-1.87954e-19
21.0403 	-0.160484 	0.970926 	2.52438 	-1.87954e-19
21.1105 	-0.160484 	0.970926 	2.52438 	-1.87954e-19
21.1806 	-0.160484 	0.970926 	2.52438 	-1.87954e-19
21.2507 	-0.160484 	0.970926 	2.52438 	-1.87954e-19
21.3209 	-0.160484 	0.970926 	2.52438 	-1.87954e-19
21.391 	-0.160484 	0.970926 	2.52438 	-1.87954e-19
21.4611 	-0.149155 	0.687511 	1.98009 	1.63907e-19
21.5313 	-0.149155 	0.687511 	1.98009 	1.63907e-19
21.6014 	-0.149155 	0.687511 	1.98009 	1.63907e-19
21.6715 	-0.185472 	0.557572 	1.56724 	1.44545e-19
21.7417 	-0.185472 	0.557572 	1.56724 	1.44545e-19
21.8118 	-0.185472 	0.557572 	1.56724 	1.44545e-19
21.8819 	-0.185472 	0.557572 	1.56724 	1.44545e-19
21.9521 	-0.185472 	0.557572 	1.56724 	1.44545e-19
22.0222 	-0.237439 	0.868005 	2.38608 	-2.02566e-19
22.0923 	-0.237439 	0.868005 	2.38608 	-2.02566e-19
22.1625 	-0.237439 	0.868005 	2.38608 	-2.02566e-19
22.2326 	-0.237439 	0.868005 	2.38608 	-2.02566e-19
22.3027 	-0.237439 	0.868005 	2.38608 	-2.02566e-19
22.3729 	-0.237439 	0.868005 	2.38608 	-2.02566e-19
22.443 	-0.237439 	0.868005 	2.38608 	-2.02566e-19
22.5131 	-0.237439 	0.868005 	2.38608 	-2.02566e-19
22.5833 	-0.237439 	0.868005 	2.38608 	-2.02566e-19
22.6534 	-0.237439 	0.868005 	2.38608 	-2.02566e-19
22.7235 	-0.237439 	0.868005 	2.38608 	-2.02566e-19
22.7937 	-0.237439 	0.868005 	2.38608 	-2.02566e-19
22.8638 	-0.237439 	0.868005 	2.38608 	-2.02566e-19
22.9339 	-0.237439 	0.868005 	2.38608 	-2.02566e-19
23.0041 	-0.237439 	0.868005 	2.38608 	-2.02566e-19
23.0742 	-0.237439 	0.868005 	2.38608 	-2.02566e-19
23.1443 	-0.237439 	0.868005 	2.38608 	-2.02566e-19
23.2145 	-0.237439 	0.868005 	2.38608 	-2.02566e-19
23.2846 	-0.237439 	0.868005 	2.38608 	-2.02566e-19
23.3548 	-0.237439 	0.868005 	2.38608 	-2.02566e-19
23.4249 	-0.237439 	0.868005 	2.38608 	-2.02566e-19
23.495 	-0.019799 	0.82958 	2.36557 	9.89235e-21
23.5652 	-0.019799 	0.82958 	2.36557 	9.89235e-21
23.6353 	-0.019799 	0.82958 	2.36557 	9.89235e-21
23.7054 	-0.019799 	0.82958 	2.36557 	9.89235e-21
23.7756 	-0.019799 	0.82958 	2.36557 	9.89235e-21
23.8457 	-0.019799 	0.82958 	2.36557 	9.89235e-21
23.9158 	-0.019799 	0.82958 	2.36557 	9.89235e-21
23.986 	0.135615 	0.818411 	2.16701 	7.18555e-22
24.0561 	0.135615 	0.818411 	2.16701 	7.18555e-22
24.1262 	0.135615 	0.818411 	2.16701 	7.18555e-22
24.1964 	0.135615 	0.818411 	2.16701 	7.18555e-22
24.2665 	0.135615 	0.818411 	2.16701 	7.18555e-22
24.3366 	0.135615 	0.818411 	2.16701 	7.18555e-22
24.4068 	0.135615 	0.818411 	2.16701 	7.18555e-22
24.4769 	0.135615 	0.818411 	2.16701 	7.18555e-22
24.547 	0.135615 	0.818411 	2.16701 	7.18555e-22
24.6172 	0.135615 	0.818411 	2.16701 	7.18555e-22
24.6873 	0.135615 	0.818411 	2.16701 	7.18555e-22
24.7574 	0.135615 	0.818411 	2.16701 	7.18555e-22
24.8276 	0.135615 	0.818411 	2.16701 	7.18555e-22
24.8977 	0.135615 	0.818411 	2.16701 	7.18555e-22
24.9678 	0.135615 	0.818411 	2.16701 	7.18555e-22
25.038 	0.135615 	0.818411 	2.16701 	7.18555e-22
25.1081 	0.135615 	0.818411 	2.16701 	7.18555e-22
25.1782 	0.0313352 	0.588567 	1.4476 	0
25.2484 	0.0313352 	0.588567 	1.4476 	0
25.3185 	0.0313352 	0.588567 	1.4476 	0
25.3886 	0.0313352 	0.588567 	1.4476 	0
25.4588 	0.0313352 	0.588567 	1.4476 	0
25.5289 	0.0313352 	0.588567 	1.4476 	0
25.5991 	0.0313352 	0.588567 	1.4476 	0
25.6692 	0.0313352 	0.588567 	1.4476 	0
25.7393 	0.0313352 	0.588567 	1.4476 	0
25.8095 	0.0313352 	0.588567 	1.4476 	0
25.8796 	0.0313352 	0.588567 	1.4476 	0
25.9497 	0.0313352 	0.588567 	1.4476 	0
26.0199 	0.0313352 	0.588567 	1.4476 	0
26.09 	0.0313352 	0.588567 	1.4476 	0
26.1601 	0.0313352 	0.588567 	1.4476 	0
26.2303 	-0.177932 	0.711528 	1.42645 	5.22025e-19
26.3004 	-0.177932 	0.711528 	1.42645 	5.22025e-19
26.3705 	-0.177932 	0.711528 	1.42645 	5.22025e-19
26.4407 	-0.177932 	0.711528 	1.42645 	5.22025e-19
26.5108 	-0.177932 	0.711528 	1.42645 	5.22025e-19
26.5809 	-0.177932 	0.711528 	1.42645 	5.22025e-19
26.6511 	-0.177932 	0.711528 	1.42645 	5.22025e-19
26.7212 	-0.177932 	0.711528 	1.42645 	5.22025e-19
26.7913 	-0.177932 	0.711528 	1.42645 	5.22025e-19
26.8615 	-0.177932 	0.711528 	1.42645 	5.22025e-19
26.9316 	-0.177932 	0.711528 	1.42645 	5.22025e-19
27.0017 	-0.177932 	0.711528 	1.42645 	5.22025e-19
27.0719 	-0.177932 	0.711528 	1.42645 	5.22025e-19
27.142 	-0.177932 	0.711528 	1.42645 	5.22025e-19
27.2121 	-0.177932 	0.711528 	1.42645 	5.22025e-19
27.2823 	-0.177932 	0.711528 	1.42645 	5.22025e-19
27.3524 	-0.340672 	0.758147 	1.5362 	-5.55028e-19
27.4225 	-0.340672 	0.758147 	1.5362 	-5.55028e-19
27.4927 	-0.340672 	0.758147 	1.5362 	-5.55028e-19
27.5628 	-0.340672 	0.758147 	1.5362 	-5.55028e-19
27.6329 	-0.340672 	0.758147 	1.5362 	-5.55028e-19
27.7031 	-0.340672 	0.758147 	1.5362 	-5.55028e-19
27.7732 	-0.340672 	0.758147 	1.5362 	-5.55028e-19
27.8434 	-0.340672 	0.758147 	1.5362 	-5.55028e-19
27.9135 	-0.340672 	0.758147 	1.5362 	-5.55028e-19
27.9836 	-0.340672 	0.758147 	1.5362 	-5.55028e-19
28.0538 	-0.340672 	0.758147 	1.5362 	-5.55028e-19
28.1239 	-0.340672 	0.758147 	1.5362 	-5.55028e-19
28.194 	-0.340672 	0.758147 	1.5362 	-5.55028e-19
28.2642 	-0.340672 	0.758147 	1.5362 	-5.55028e-19
28.3343 	-0.340672 	0.758147 	1.5362 	-5.55028e-19
28.4044 	-0.340672 	0.758147 	1.5362 	-5.55028e-19
28.4746 	-0.340672 	0.758147 	1.5362 	-5.55028e-19
28.5447 	-0.340672 	0.758147 	1.5362 	-5.55028e-19
28.6148 	-0.340672 	0.758147 	1.5362 	-5.55028e-19
28.685 	-0.340672 	0.758147 	1.5362 	-5.55028e-19
28.7551 	-0.340672 	0.758147 	1.5362 	-5.55028e-19
28.8252 	-0.340672 	0.758147 	1.5362 	-5.55028e-19
28.8954 	-0.340672 	0.758147 	1.5362 	-5.55028e-19
28.9655 	-0.476156 	0.81796 	1.42109 	-4.14984e-20
29.0356 	-0.476156 	0.81796 	1.42109 	-4.14984e-20
29.1058 	-0.476156 	0.81796 	1.42109 	-4.14984e-20
29.1759 	-0.476156 	0.81796 	1.42109 	-4.14984e-20
29.246 	-0.476156 	0.81796 	1.42109 	-4.14984e-20
29.3162 	-0.476156 	0.81796 	1.42109 	-4.14984e-20
29.3863 	-0.476156 	0.81796 	1.42109 	-4.14984e-20
29.4564 	-0.476156 	0.81796 	1.42109 	-4.14984e-20
29.5266 	-0.476156 	0.81796 	1.42109 	-4.14984e-20
29.5967 	-0.476156 	0.81796 	1.42109 	-4.14984e-20
29.6668 	-0.476156 	0.81796 	1.42109 	-4.14984e-20
29.737 	-0.476156 	0.81796 	1.42109 	-4.14984e-20
29.8071 	-0.476156 	0.81796 	1.42109 	-4.14984e-20
29.8773 	-0.476156 	0.81796 	1.42109 	-4.14984e-20
29.9474 	-0.476156 	0.81796 	1.42109 	-4.14984e-20
30.0175 	-0.476156 	0.81796 	1.42109 	-4.14984e-20
30.0877 	-0.476156 	0.81796 	1.42109 	-4.14984e-20
30.1578 	-0.476156 	0.81796 	1.42109 	-4.14984e-20
30.2279 	-0.476156 	0.81796 	1.42109 	-4.14984e-20
30.2981 	-0.476156 	0.81796 	1.42109 	-4.14984e-20
30.3682 	-0.476156 	0.81796 	1.42109 	-4.14984e-20
30.4383 	-0.476156 	0.81796 	1.42109 	-4.14984e-20
30.5085 	-0.476156 	0.81796 	1.42109 	-4.14984e-20
30.5786 	-0.476156 	0.81796 	1.42109 	-4.14984e-20
30.6487 	-0.476156 	0.81796 	1.42109 	-4.14984e-20
30.7189 	-0.476156 	0.81796 	1.42109 	-4.14984e-20
30.789 	-0.575606 	0.275586 	1.51405 	1.2e-18
30.8591 	-0.575606 	0.275586 	1.51405 	1.2e-18
30.9293 	-0.575606 	0.275586 	1.51405 	1.2e-18
30.9994 	-0.575606 	0.275586 	1.51405 	1.2e-18
31.0695 	-0.575606 	0.275586 	1.51405 	1.2e-18
31.1397 	-0.575606 	0.275586 	1.51405 	1.2e-18
31.2098 	-0.575606 	0.275586 	1.51405 	1.2e-18
31.2799 	-0.575606 	0.275586 	1.51405 	1.2e-18
31.3501 	-0.575606 	0.275586 	1.51405 	1.2e-18
31.4202 	-0.575606 	0.275586 	1.51405 	1.2e-18
31.4903 	-0.575606 	0.275586 	1.51405 	1.2e-18
31.5605 	-0.575606 	0.275586 	1.51405 	1.2e-18
31.6306 	-0.575606 	0.275586 	1.51405 	1.2e-18
31.7007 	-0.575606 	0.275586 	1.51405 	1.2e-18
31.7709 	-0.575606 	0.275586 	1.51405 	1.2e-18
31.841 	-0.575606 	0.275586 	1.51405 	1.2e-18
31.9111 	-0.575606 	0.275586 	1.51405 	1.2e-18
31.9813 	-0.575606 	0.275586 	1.51405 	1.2e-18
32.0514 	-0.575606 	0.275586 	1.51405 	1.2e-18
32.1216 	-0.575606 	0.275586 	1.51405 	1.2e-18
32.1917 	-0.575606 	0.275586 	1.51405 	1.2e-18
32.2618 	-0.575606 	0.275586 	1.51405 	1.2e-18
32.332 	-0.575606 	0.275586 	1.51405 	1.2e-18
32.4021 	-0.575606 	0.275586 	1.51405 	1.2e-18
32.4722 	-0.575606 	0.275586 	1.51405 	1.2e-18
32.5424 	-0.575606 	0.275586 	1.51405 	1.2e-18
32.6125 	-0.575606 	0.275586 	1.51405 	1.2e-18
32.6826 	-0.575606 	0.275586 	1.51405 	1.2e-18
32.7528 	-0.575606 	0.275586 	1.51405 	1.2e-18
32.8229 	-0.575606 	0.275586 	1.51405 	1.2e-18
32.893 	-0.575606 	0.275586 	1.51405 	1.2e-18
32.9632 	-0.575606 	0.275586 	1.51405 	1.2e-18
33.0333 	-0.575606 	0.275586 	1.51405 	1.2e-18
33.1034 	-0.575606 	0.275586 	1.51405 	1.2e-18
33.1736 	-0.575606 	0.275586 	1.51405 	1.2e-18
33.2437 	-0.575606 	0.275586 	1.51405 	1.2e-18
33.3138 	-0.575606 	0.275586 	1.51405 	1.2e-18
33.384 	-0.575606 	0.275586 	1.51405 	1.2e-18
33.4541 	-0.575606 	0.275586 	1.51405 	1.2e-18
33.5242 	-0.575606 	0.275586 	1.51405 	1.2e-18
33.5944 	-0.575606 	0.275586 	1.51405 	1.2e-18
33.6645 	-0.575606 	0.275586 	1.51405 	1.2e-18
33.7346 	-0.571862 	0.18184 	1.44108 	-7.35568e-19
33.8048 	-0.571862 	0.18184 	1.44108 	-7.35568e-19
33.8749 	-0.571862 	0.18184 	1.44108 	-7.35568e-19
33.945 	-0.571862 	0.18184 	1.44108 	-7.35568e-19
34.0152 	-0.571862 	0.18184 	1.44108 	-7.35568e-19
34.0853 	-0.571862 	0.18184 	1.44108 	-7.35568e-19
34.1554 	-0.490831 	-0.112168 	1.34314 	5.58109e-19
34.2256 	-0.490831 	-0.112168 	1.34314 	5.58109e-19
34.2957 	-0.490831 	-0.112168 	1.34314 	5.58109e-19
34.3659 	-0.490831 	-0.112168 	1.34314 	5.58109e-19
34.436 	-0.490831 	-0.112168 	1.34314 	5.58109e-19
34.5061 	-0.490831 	-0.112168 	1.34314 	5.58109e-19
34.5763 	-0.490831 	-0.112168 	1.34314 	5.58109e-19
34.6464 	-0.490831 	-0.112168 	1.34314 	5.58109e-19
34.7165 	-0.287043 	-0.214995 	2.05826 	-3.54872e-19
34.7867 	-0.287043 	-0.214995 	2.05826 	-3.54872e-19
34.8568 	-0.287043 	-0.214995 	2.05826 	-3.54872e-19
34.9269 	-0.287043 	-0.214995 	2.05826 	-3.54872e-19
34.9971 	-0.287043 	-0.214995 	2.05826 	-3.54872e-19
35.0672 	-0.287043 	-0.214995 	2.05826 	-3.54872e-19
35.1373 	-0.287043 	-0.214995 	2.05826 	-3.54872e-19
35.2075 	-0.287043 	-0.214995 	2.05826 	-3.54872e-19
35.2776 	-0.287043 	-0.214995 	2.05826 	-3.54872e-19
35.3477 	-0.287043 	-0.214995 	2.05826 	-3.54872e-19
35.4179 	-0.287043 	-0.214995 	2.05826 	-3.54872e-19
35.488 	-0.287043 	-0.214995 	2.05826 	-3.54872e-19
35.5581 	-0.287043 	-0.214995 	2.05826 	-3.54872e-19
35.6283 	-0.287043 	-0.214995 	2.05826 	-3.54872e-19
35.6984 	-0.287043 	-0.214995 	2.05826 	-3.54872e-19
35.7685 	-0.287043 	-0.214995 	2.05826 	-3.54872e-19
35.8387 	-0.287043 	-0.214995 	2.05826 	-3.54872e-19
35.9088 	-0.287043 	-0.214995 	2.05826 	-3.54872e-19
35.9789 	-0.287043 	-0.214995 	2.05826 	-3.54872e-19
36.0491 	-0.166397 	-0.25583 	2.0252 	0
36.1192 	-0.166397 	-0.25583 	2.0252 	0
36.1893 	-0.166397 	-0.25583 	2.0252 	0
36.2595 	-0.166397 	-0.25583 	2.0252 	0
36.3296 	-0.166397 	-0.25583 	2.0252 	0
36.3997 	-0.166397 	-0.25583 	2.0252 	0
36.4699 	-0.166397 	-0.25583 	2.0252 	0
36.54 	-0.166397 	-0.25583 	2.0252 	0
36.6102 	-0.166397 	-0.25583 	2.0252 	0
36.6803 	-0.166397 	-0.25583 	2.0252 	0
36.7504 	-0.166397 	-0.25583 	2.0252 	0
36.8206 	-0.166397 	-0.25583 	2.0252 	0
36.8907 	-0.118092 	-0.308649 	1.95379 	-4.28724e-20
36.9608 	-0.118092 	-0.308649 	1.95379 	-4.28724e-20
37.031 	-0.118092 	-0.308649 	1.95379 	-4.28724e-20
37.1011 	-0.118092 	-0.308649 	1.95379 	-4.28724e-20
37.1712 	-0.118092 	-0.308649 	1.95379 	-4.28724e-20
37.2414 	-0.118092 	-0.308649 	1.95379 	-4.28724e-20
37.3115 	-0.118092 	-0.308649 	1.95379 	-4.28724e-20
37.3816 	-0.118092 	-0.308649 	1.95379 	-4.28724e-20
37.4518 	-0.118092 	-0.308649 	1.95379 	-4.28724e-20
37.5219 	-0.118092 	-0.308649 	1.95379 	-4.28724e-20
37.592 	-0.118092 	-0.308649 	1.95379 	-4.28724e-20
37.6622 	-0.118092 	-0.308649 	1.95379 	-4.28724e-20
37.7323 	-0.118092 	-0.308649 	1.95379 	-4.28724e-20
37.8024 	-0.118092 	-0.308649 	1.95379 	-4.28724e-20
37.8726 	-0.118092 	-0.308649 	1.95379 	-4.28724e-20
37.9427 	-0.118092 	-0.308649 	1.95379 	-4.28724e-20
38.0128 	-0.118092 	-0.308649 	1.95379 	-4.28724e-20
38.083 	-0.118092 	-0.308649 	1.95379 	-4.28724e-20
38.1531 	-0.118092 	-0.308649 	1.95379 	-4.28724e-20
38.2232 	0.0169126 	-0.273525 	1.94652 	4.82503e-20
38.2934 	0.0169126 	-0.273525 	1.94652 	4.82503e-20
38.3635 	0.0169126 	-0.273525 	1.94652 	4.82503e-20
38.4336 	0.0169126 	-0.273525 	1.94652 	4.82503e-20
38.5038 	0.0169126 	-0.273525 	1.94652 	4.82503e-20
38.5739 	0.0169126 	-0.273525 	1.94652 	4.82503e-20
38.644 	0.0169126 	-0.273525 	1.94652 	4.82503e-20
38.7142 	0.0169126 	-0.273525 	1.94652 	4.82503e-20
38.7843 	0.0169126 	-0.273525 	1.94652 	4.82503e-20
38.8545 	0.0169126 	-0.273525 	1.94652 	4.82503e-20
38.9246 	0.0169126 	-0.273525 	1.94652 	4.82503e-20
38.9947 	0.0169126 	-0.273525 	1.94652 	4.82503e-20
39.0649 	0.0169126 	-0.273525 	1.94652 	4.82503e-20
39.135 	0.0169126 	-0.273525 	1.94652 	4.82503e-20
39.2051 	0.0436141 	-0.247669 	1.93947 	0
39.2753 	0.0436141 	-0.247669 	1.93947 	0
39.3454 	0.0436141 	-0.247669 	1.93947 	0
39.4155 	0.0436141 	-0.247669 	1.93947 	0
39.4857 	0.0436141 	-0.247669 	1.93947 	0
39.5558 	0.0436141 	-0.247669 	1.93947 	0
39.6259 	0.0436141 	-0.247669 	1.93947 	0
39.6961 	0.0436141 	-0.247669 	1.93947 	0
39.7662 	0.0436141 	-0.247669 	1.93947 	0
39.8363 	0.0436141 	-0.247669 	1.93947 	0
39.9065 	0.0436141 	-0.247669 	1.93947 	0
39.9766 	0.0436141 	-0.247669 	1.93947 	0
40.0467 	0.0436141 	-0.247669 	1.93947 	0
40.1169 	0.0436141 	-0.247669 	1.93947 	0
40.187 	0.0436141 	-0.247669 	1.93947 	0
40.2571 	0.0436141 	-0.247669 	1.93947 	0
40.3273 	0.0436141 	-0.247669 	1.93947 	0
40.3974 	0.0436141 	-0.247669 	1.93947 	0
40.4675 	0.0436141 	-0.247669 	1.93947 	0
40.5377 	0.0436141 	-0.247669 	1.93947 	0
40.6078 	0.0436141 	-0.247669 	1.93947 	0
40.6779 	-0.00309013 	-0.212469 	1.90647 	-1.5054e-20
40.7481 	-0.00309013 	-0.212469 	1.90647 	-1.5054e-20
40.8182 	-0.00309013 	-0.212469 	1.90647 	-1.5054e-20
40.8883 	-0.00309013 	-0.212469 	1.90647 	-1.5054e-20
40.9585 	-0.00309013 	-0.212469 	1.90647 	-1.5054e-20
41.0286 	-0.00309013 	-0.212469 	1.90647 	-1.5054e-20
41.0988 	-0.00309013 	-0.212469 	1.90647 	-1.5054e-20
41.1689 	-0.00309013 	-0.212469 	1.90647 	-1.5054e-20
41.239 	0.0428738 	-0.189674 	1.88756 	2.72612e-20
41.3092 	0.0428738 	-0.189674 	1.88756 	2.72612e-20
41.3793 	0.0428738 	-0.189674 	1.88756 	2.72612e-20
41.4494 	0.0428738 	-0.189674 	1.88756 	2.72612e-20
41.5196 	0.0428738 	-0.189674 	1.88756 	2.72612e-20
41.5897 	0.0428738 	-0.189674 	1.88756 	2.72612e-20
41.6598 	0.0428738 	-0.189674 	1.88756 	2.72612e-20
41.73 	0.0428738 	-0.189674 	1.88756 	2.72612e-20
41.8001 	0.0428738 	-0.189674 	1.88756 	2.72612e-20
41.8702 	0.0428738 	-0.189674 	1.88756 	2.72612e-20
41.9404 	0.0428738 	-0.189674 	1.88756 	2.72612e-20
42.0105 	0.0428738 	-0.189674 	1.88756 	2.72612e-20
42.0806 	0.0428738 	-0.189674 	1.88756 	2.72612e-20
42.1508 	0.0428738 	-0.189674 	1.88756 	2.72612e-20
42.2209 	0.0428738 	-0.189674 	1.88756 	2.72612e-20
42.291 	0.0428738 	-0.189674 	1.88756 	2.72612e-20
42.3612 	0.0428738 	-0.189674 	1.88756 	2.72612e-20
42.4313 	0.0428738 	-0.189674 	1.88756 	2.72612e-20
42.5014 	0.0428738 	-0.189674 	1.88756 	2.72612e-20
42.5716 	0.0428738 	-0.189674 	1.88756 	2.72612e-20
42.6417 	0.0428738 	-0.189674 	1.88756 	2.72612e-20
42.7118 	0.0529457 	-0.155892 	1.87159 	0
42.782 	0.0529457 	-0.155892 	1.87159 	0
42.8521 	0.0529457 	-0.155892 	1.87159 	0
42.9222 	0.0529457 	-0.155892 	1.87159 	0
42.9924 	0.0642587 	-0.0989891 	1.84052 	0
43.0625 	0.0642587 	-0.0989891 	1.84052 	0
43.1327 	0.0642587 	-0.0989891 	1.84052 	0
43.2028 	0.0642587 	-0.0989891 	1.84052 	0
43.2729 	0.0642587 	-0.0989891 	1.84052 	0
43.3431 	0.0642587 	-0.0989891 	1.84052 	0
43.4132 	0.0642587 	-0.0989891 	1.84052 	0
43.4833 	0.0642587 	-0.0989891 	1.84052 	0