/*--------------------------------*- C++ -*----------------------------------*\
| =========                 |                                                 |
| \\      /  F ield         | OpenFOAM: The Open Source CFD Toolbox           |
|  \\    /   O peration     | Version:  2306                                  |
|   \\  /    A nd           | Website:  www.openfoam.com                      |
|    \\/     M anipulation  |                                                 |
\*---------------------------------------------------------------------------*/
FoamFile
{
    version     2.0;
    format      ascii;
    arch        "LSB;label=32;scalar=64";
    class       volScalarField;
    location    "47";
    object      p;
}
// * * * * * * * * * * * * * * * * * * * * * * * * * * * * * * * * * * * * * //

dimensions      [0 2 -2 0 0 0 0];

internalField   nonuniform List<scalar> 
8800
(
0.846469
0.798417
0.760038
0.731392
0.710761
0.695997
0.685381
0.67786
0.673
0.670909
0.67216
0.676351
0.683012
0.692344
0.705094
0.72268
0.747122
0.780734
0.823179
0.880304
0.679004
0.686209
0.694645
0.698057
0.696136
0.690605
0.683882
0.677703
0.672924
0.670041
0.669735
0.672232
0.676733
0.682723
0.689628
0.696245
0.700375
0.69986
0.693796
0.684818
0.655721
0.661896
0.666091
0.669446
0.671939
0.672725
0.671601
0.669435
0.667371
0.666431
0.667371
0.66975
0.672571
0.674781
0.675309
0.673775
0.670924
0.667285
0.66275
0.658965
0.650599
0.653299
0.656014
0.658318
0.659955
0.661268
0.662158
0.662339
0.662045
0.661974
0.662696
0.663831
0.664605
0.664532
0.663729
0.662528
0.660775
0.658272
0.655845
0.654314
0.645424
0.646845
0.648639
0.650686
0.652428
0.653719
0.654724
0.65557
0.656214
0.656769
0.657379
0.657807
0.657816
0.657449
0.656741
0.655529
0.653825
0.651941
0.650616
0.649793
0.640439
0.641352
0.642582
0.644154
0.645794
0.647302
0.64855
0.649597
0.650554
0.651429
0.652071
0.652337
0.652247
0.651791
0.650904
0.649675
0.648313
0.647038
0.646214
0.64567
0.635599
0.636264
0.637215
0.638505
0.639905
0.64136
0.642781
0.644069
0.64523
0.646293
0.647063
0.647382
0.647262
0.64672
0.645874
0.644892
0.643861
0.642925
0.642336
0.641936
0.630881
0.631393
0.632168
0.633283
0.634544
0.635901
0.637329
0.638771
0.640153
0.64143
0.642374
0.642786
0.642707
0.642268
0.64162
0.640862
0.640064
0.639364
0.638925
0.638613
0.626223
0.62663
0.627277
0.628268
0.629455
0.630758
0.632175
0.633696
0.635268
0.636796
0.637961
0.638537
0.638626
0.638391
0.637955
0.637398
0.636794
0.636279
0.635949
0.635697
0.621543
0.621875
0.622434
0.623345
0.624481
0.625766
0.62721
0.628817
0.630562
0.632361
0.633815
0.634655
0.634997
0.634995
0.634771
0.63442
0.633997
0.633634
0.633388
0.633177
0.61676
0.617035
0.617532
0.618396
0.619511
0.620816
0.622326
0.624058
0.62601
0.628115
0.629938
0.631128
0.631775
0.632036
0.632041
0.631893
0.631647
0.631417
0.631236
0.631055
0.611789
0.61202
0.612477
0.613324
0.61446
0.615827
0.617444
0.619355
0.621579
0.624067
0.626342
0.62795
0.62895
0.62951
0.629765
0.629826
0.629753
0.629641
0.629515
0.629356
0.606546
0.606741
0.607179
0.608039
0.609236
0.610711
0.61249
0.614649
0.617225
0.620197
0.623023
0.625125
0.626534
0.627429
0.627963
0.628236
0.628345
0.628344
0.628264
0.628121
0.600938
0.601105
0.60154
0.602443
0.603741
0.605374
0.607383
0.609869
0.612899
0.616481
0.619974
0.622662
0.624547
0.625825
0.626671
0.627202
0.627488
0.627588
0.627547
0.627414
0.594857
0.594999
0.595447
0.59642
0.597866
0.599715
0.602027
0.604928
0.608525
0.612856
0.617163
0.62056
0.623015
0.624746
0.625946
0.626752
0.627238
0.627447
0.627443
0.627317
0.588175
0.588291
0.588764
0.58984
0.591485
0.593619
0.596319
0.599748
0.604051
0.609298
0.614596
0.61885
0.621988
0.624252
0.625866
0.626986
0.627697
0.628018
0.628048
0.627926
0.580726
0.580819
0.581334
0.582547
0.584446
0.586943
0.590143
0.594245
0.599437
0.605816
0.612317
0.617589
0.62153
0.624421
0.62653
0.628015
0.628974
0.629413
0.629477
0.629355
0.572293
0.572388
0.572954
0.57432
0.576547
0.579515
0.583355
0.58831
0.594613
0.60239
0.61034
0.616828
0.621716
0.625344
0.628044
0.629957
0.631198
0.631764
0.631862
0.631736
0.562588
0.562664
0.563316
0.5649
0.567548
0.571118
0.575764
0.581785
0.589466
0.598956
0.608659
0.6166
0.62262
0.627128
0.630518
0.632939
0.634505
0.635211
0.635342
0.635209
0.551243
0.5513
0.552048
0.553942
0.557132
0.561476
0.567155
0.574534
0.583937
0.595516
0.607335
0.617002
0.624352
0.629897
0.634086
0.63711
0.639044
0.639902
0.640064
0.639922
0.537728
0.537772
0.538665
0.540965
0.544872
0.550237
0.557272
0.566412
0.578008
0.592172
0.606493
0.618155
0.627035
0.633783
0.63891
0.642623
0.644966
0.645981
0.64617
0.646013
0.521296
0.521328
0.522431
0.525302
0.530191
0.536938
0.54578
0.557202
0.571539
0.588829
0.606118
0.620115
0.630765
0.638893
0.645104
0.649606
0.652399
0.65357
0.653778
0.653603
0.500831
0.500861
0.502295
0.506015
0.512312
0.521001
0.532323
0.546777
0.564603
0.58568
0.606405
0.623021
0.635656
0.645338
0.652757
0.65816
0.661425
0.662742
0.662954
0.662756
0.474551
0.4746
0.476617
0.481728
0.490223
0.501797
0.516638
0.53514
0.557346
0.582913
0.607532
0.627036
0.64183
0.65322
0.66195
0.668314
0.67204
0.673463
0.673655
0.673429
0.439429
0.439585
0.442802
0.45049
0.462717
0.478705
0.498559
0.522371
0.549924
0.580683
0.609612
0.632228
0.649308
0.662492
0.67266
0.679978
0.684091
0.685548
0.685688
0.685432
0.389715
0.390694
0.397135
0.410145
0.428884
0.451714
0.478499
0.509039
0.542923
0.579473
0.612964
0.638763
0.658157
0.673149
0.684746
0.692917
0.697257
0.698643
0.698703
0.698415
0.316666
0.323924
0.338827
0.361724
0.390178
0.422165
0.457416
0.495701
0.536624
0.579502
0.617971
0.647278
0.669255
0.686305
0.699455
0.708451
0.712991
0.714325
0.714345
0.714092
0.238187
0.254883
0.279055
0.312583
0.35123
0.39254
0.436368
0.482655
0.531095
0.581086
0.625567
0.659365
0.684727
0.704379
0.719502
0.729434
0.734029
0.73522
0.735273
0.735143
0.1722
0.192059
0.224028
0.266576
0.314241
0.364351
0.416516
0.470658
0.526465
0.583362
0.633584
0.671586
0.700061
0.722081
0.738779
0.74926
0.753763
0.755
0.75513
0.755076
0.118123
0.139854
0.177291
0.226271
0.281007
0.338523
0.398073
0.459436
0.522181
0.585657
0.641317
0.683245
0.714568
0.738645
0.756716
0.768005
0.773137
0.77436
0.774498
0.774487
0.0731235
0.0960915
0.137305
0.191387
0.251804
0.315426
0.381291
0.44906
0.518142
0.58775
0.648508
0.694094
0.728034
0.754068
0.77356
0.785827
0.791424
0.792733
0.79293
0.792949
0.0347642
0.0584588
0.102525
0.160661
0.22586
0.294675
0.366011
0.439456
0.514284
0.589553
0.655064
0.704031
0.740382
0.76819
0.78891
0.802003
0.80806
0.809613
0.809891
0.80994
0.00104576
0.0252349
0.0715923
0.133039
0.202283
0.275611
0.351804
0.430355
0.510442
0.590967
0.660907
0.713006
0.751537
0.780869
0.80257
0.816274
0.822711
0.824603
0.824954
0.825003
-0.0294929
-0.00487069
0.0433662
0.107653
0.180378
0.257658
0.338203
0.421411
0.506365
0.591822
0.665941
0.720954
0.76145
0.79211
0.814607
0.828735
0.835505
0.837617
0.838003
0.838036
-0.0577835
-0.0327608
0.0171232
0.0838079
0.15961
0.240393
0.324847
0.41232
0.501822
0.591963
0.670094
0.72789
0.770209
0.80202
0.825041
0.83946
0.846418
0.848684
0.849097
0.849111
-0.0845845
-0.0591261
-0.00771422
0.0610446
0.139589
0.223494
0.311481
0.402874
0.496639
0.591267
0.673325
0.733876
0.777966
0.810769
0.834201
0.848747
0.855831
0.858218
0.858619
0.858601
-0.110236
-0.0843267
-0.0317806
0.0390632
0.120041
0.206743
0.297931
0.39293
0.490697
0.589658
0.675628
0.738988
0.784857
0.818598
0.8424
0.857079
0.864227
0.866618
0.867017
0.866967
-0.135132
-0.108624
-0.0550459
0.0176435
0.10078
0.189996
0.28409
0.382406
0.483922
0.587078
0.677003
0.74329
0.791012
0.825702
0.849851
0.864625
0.871773
0.874113
0.874489
0.874419
-0.159393
-0.132439
-0.0776603
-0.0033567
0.0817073
0.173181
0.269902
0.37126
0.476282
0.583501
0.677448
0.746835
0.796542
0.832243
0.856764
0.871595
0.87869
0.880955
0.881253
0.881138
-0.183133
-0.155608
-0.0997753
-0.024014
0.0627879
0.156279
0.25536
0.359484
0.467765
0.5789
0.676935
0.749638
0.801532
0.838374
0.863306
0.878143
0.885057
0.887164
0.887373
0.887213
-0.206441
-0.178301
-0.121458
-0.0443501
0.0440063
0.139299
0.240492
0.347113
0.458392
0.573261
0.675415
0.75167
0.806048
0.844236
0.869603
0.884331
0.89094
0.892797
0.892906
0.892717
-0.229327
-0.200495
-0.142693
-0.0643486
0.0254024
0.122279
0.225352
0.334199
0.448201
0.566574
0.672827
0.752863
0.8101
0.849963
0.87584
0.89027
0.896358
0.897877
0.897883
0.897676
-0.251627
-0.222144
-0.163418
-0.0839712
0.00701782
0.105294
0.210007
0.320823
0.437259
0.558866
0.669104
0.753115
0.813636
0.855674
0.882288
0.896209
0.901418
0.902427
0.902317
0.90211
-0.273308
-0.243212
-0.183617
-0.103164
-0.011085
0.0884064
0.194552
0.30707
0.42565
0.550169
0.664197
0.752293
0.816533
0.861399
0.889294
0.902658
0.906442
0.906524
0.906223
0.906065
-0.294436
-0.263652
-0.203257
-0.12189
-0.0288407
0.0717038
0.179078
0.293044
0.413468
0.540548
0.658059
0.750257
0.818579
0.86698
0.897121
0.910466
0.912397
0.910623
0.909682
0.909751
-0.31483
-0.283445
-0.222274
-0.140082
-0.0461877
0.0552705
0.163682
0.278858
0.400831
0.530101
0.650683
0.746853
0.819493
0.872
0.905596
0.92053
0.921376
0.916911
0.913699
0.912983
-0.334581
-0.302586
-0.24068
-0.157767
-0.0631587
0.0390627
0.148307
0.26445
0.387665
0.518752
0.641924
0.741809
0.818958
0.875859
0.913875
0.932876
0.935586
0.929939
0.920395
0.910734
-0.35361
-0.32106
-0.258604
-0.175142
-0.0800487
0.0227408
0.132532
0.249329
0.373421
0.505851
0.631118
0.734312
0.81636
0.877688
0.919917
0.94459
0.950299
0.939814
0.919936
0.912632
-0.371739
-0.338879
-0.275865
-0.191994
-0.096558
0.00663562
0.116581
0.233826
0.35841
0.491664
0.618378
0.723902
0.81103
0.876364
0.919211
0.94364
0.952846
0.929555
0.863301
0.833986
-0.3885
-0.357289
-0.292075
-0.207756
-0.111918
-0.00873109
0.100755
0.218192
0.342882
0.476344
0.603706
0.710265
0.801856
0.871276
0.907325
0.925053
0.918255
0.86596
0.797738
0.756348
-0.439233
-0.374484
-0.306909
-0.223285
-0.127424
-0.0246241
0.0850805
0.202207
0.326526
0.45948
0.586569
0.692963
0.78517
0.861009
0.873923
0.874384
0.830453
0.763485
0.688194
0.646604
-0.406167
-0.389088
-0.32906
-0.24519
-0.150506
-0.0478899
0.0609322
0.17739
0.300692
0.432065
0.556974
0.661244
0.744469
0.824686
0.816325
0.708152
0.607922
0.53736
0.466064
0.498973
-0.438167
-0.407628
-0.34622
-0.263133
-0.168348
-0.0659659
0.0430624
0.158882
0.281149
0.41075
0.532817
0.633069
0.707512
0.750369
0.70472
0.561329
0.439405
0.351617
0.255957
0.307339
-0.46252
-0.429563
-0.366366
-0.283073
-0.188225
-0.0859088
0.0230429
0.138056
0.258966
0.38619
0.50449
0.598748
0.664045
0.672257
0.569616
0.403495
0.257682
0.143549
0.0178323
0.0537103
-0.486407
-0.452063
-0.387536
-0.303393
-0.208375
-0.106165
0.00230967
0.11639
0.235748
0.36022
0.473888
0.561104
0.61086
0.588441
0.433913
0.244433
0.0633665
-0.0974077
-0.279506
-0.288098
-0.509797
-0.474999
-0.409544
-0.324656
-0.229402
-0.127363
-0.0194927
0.0935358
0.211095
0.332459
0.440846
0.520811
0.551663
0.493615
0.304819
0.0993065
-0.107714
-0.283195
-0.527257
-0.789275
-0.533524
-0.498686
-0.43269
-0.347281
-0.251777
-0.149851
-0.0425132
0.069443
0.18511
0.303152
0.406002
0.47761
0.48841
0.380006
0.191856
-0.0158518
-0.216325
-0.377805
-0.453212
-0.560709
-0.558541
-0.523608
-0.457315
-0.371621
-0.276011
-0.174287
-0.0675692
0.0431506
0.156615
0.270844
0.367774
0.428723
0.415306
0.272765
0.0907147
-0.100493
-0.264923
-0.354401
-0.377072
-0.393365
-0.58513
-0.550077
-0.483586
-0.397767
-0.302238
-0.200881
-0.0950206
0.0141658
0.125013
0.234785
0.325336
0.372549
0.341361
0.172725
-0.00128561
-0.167816
-0.293274
-0.331014
-0.34296
-0.344129
-0.6135
-0.578254
-0.511551
-0.425708
-0.330399
-0.229636
-0.124885
-0.0175633
0.0902279
0.194946
0.278292
0.311063
0.259784
0.0804691
-0.0846349
-0.232114
-0.30656
-0.323848
-0.324843
-0.324605
-0.643699
-0.608168
-0.541225
-0.455432
-0.360504
-0.260534
-0.157165
-0.0520553
0.0522579
0.151384
0.226568
0.247491
0.161384
-0.00391291
-0.161089
-0.280554
-0.317092
-0.314655
-0.313972
-0.313394
-0.675427
-0.639697
-0.572495
-0.486844
-0.392454
-0.293516
-0.191827
-0.0892876
0.0111263
0.104182
0.170953
0.175561
0.0712368
-0.082856
-0.221613
-0.29406
-0.304594
-0.307211
-0.307526
-0.307136
-0.708106
-0.672259
-0.605113
-0.519707
-0.426052
-0.328409
-0.228713
-0.129135
-0.0330009
0.0536484
0.111872
0.102032
-0.0107399
-0.150501
-0.263619
-0.301091
-0.304627
-0.304673
-0.304258
-0.303788
-0.741262
-0.705298
-0.63858
-0.553605
-0.460931
-0.364877
-0.267527
-0.171317
-0.0798708
0.000449546
0.0480623
0.0309209
-0.0859748
-0.205848
-0.29381
-0.302109
-0.301249
-0.301551
-0.301481
-0.301254
-0.774008
-0.738179
-0.671977
-0.587888
-0.496522
-0.402419
-0.307791
-0.215354
-0.129055
-0.0548557
-0.0175085
-0.0369583
-0.152269
-0.248224
-0.301391
-0.310815
-0.304511
-0.299712
-0.298187
-0.297897
-0.804731
-0.769725
-0.704343
-0.621597
-0.532016
-0.440291
-0.348803
-0.26053
-0.179774
-0.1119
-0.0784512
-0.114488
-0.208393
-0.285918
-0.302694
-0.311205
-0.306567
-0.30044
-0.297949
-0.296846
-0.831803
-0.797834
-0.734591
-0.653543
-0.566323
-0.477483
-0.389631
-0.305893
-0.230898
-0.169972
-0.137779
-0.192755
-0.264178
-0.295566
-0.32856
-0.326441
-0.323815
-0.32248
-0.321014
-0.319533
-0.853108
-0.820878
-0.760329
-0.682288
-0.598065
-0.512764
-0.429075
-0.350243
-0.281212
-0.227746
-0.200148
-0.269411
-0.330753
-0.323706
-0.341193
-0.373341
-0.3917
-0.398697
-0.396889
-0.3935
-0.866374
-0.836839
-0.779939
-0.705759
-0.625627
-0.544658
-0.465732
-0.392145
-0.329286
-0.283788
-0.261135
-0.353379
-0.448212
-0.45081
-0.430846
-0.48095
-0.518985
-0.523238
-0.512717
-0.509656
-0.868881
-0.84335
-0.791288
-0.72213
-0.647188
-0.571527
-0.497965
-0.429939
-0.373229
-0.336062
-0.31425
-0.43733
-0.628381
-0.772041
-0.696766
-0.618522
-0.568721
-0.54609
-0.538815
-0.537574
-0.858728
-0.837956
-0.792199
-0.729722
-0.661154
-0.591662
-0.524
-0.461664
-0.410797
-0.380322
-0.364086
-0.484558
-0.683418
-1.05777
-0.961005
-0.669875
-0.533662
-0.502096
-0.494069
-0.490997
-0.833376
-0.817581
-0.780822
-0.727212
-0.666364
-0.603817
-0.542232
-0.485262
-0.438689
-0.411508
-0.399859
-0.405301
-0.361835
-0.395165
-0.425819
-0.389073
-0.388798
-0.388022
-0.38817
-0.387589
-0.795175
-0.784822
-0.757691
-0.714662
-0.662682
-0.60752
-0.551766
-0.498924
-0.454403
-0.427663
-0.403459
-0.285872
0.00645271
0.488671
0.519215
0.121177
-0.153034
-0.244214
-0.279587
-0.281056
-0.750379
-0.74446
-0.727394
-0.694713
-0.651938
-0.603513
-0.552733
-0.502187
-0.457383
-0.425216
-0.409906
-0.347972
-0.323518
-0.435396
-0.776558
-1.06075
-1.03875
-0.80467
-0.648018
-0.638672
-0.708197
-0.704723
-0.695904
-0.672686
-0.637206
-0.594047
-0.546456
-0.496376
-0.446991
-0.410777
-0.39688
-0.513008
-0.932484
-1.57097
-1.95483
-2.24213
-2.2167
-2.01211
-1.78954
-1.62731
-0.675848
-0.67368
-0.669137
-0.653446
-0.623369
-0.582727
-0.535465
-0.482348
-0.426292
-0.371383
-0.342044
-0.411819
-0.694467
-1.02386
-1.20015
-1.11073
-0.872733
-0.622743
-0.421803
-0.318181
-0.649911
-0.649042
-0.647629
-0.639023
-0.613602
-0.573519
-0.523128
-0.464477
-0.397342
-0.318119
-0.23614
-0.145378
-0.0735271
0.141994
0.418495
0.727504
1.03467
1.26321
1.39785
1.44698
-0.633823
-0.633309
-0.632739
-0.62881
-0.608379
-0.567279
-0.511797
-0.444479
-0.364368
-0.264241
-0.140652
0.0227532
0.290099
0.684515
1.17048
1.64239
2.01658
2.25211
2.36344
2.39561
-0.623681
-0.623351
-0.622762
-0.621617
-0.606256
-0.564931
-0.504068
-0.428403
-0.336131
-0.22469
-0.0934084
0.0380237
0.292798
0.73364
1.27166
1.7605
2.12162
2.32833
2.41887
2.44232
-0.618062
-0.617204
-0.615182
-0.61426
-0.606138
-0.56849
-0.502804
-0.419159
-0.319694
-0.206921
-0.0828481
0.0439838
0.213848
0.61797
1.07276
1.46803
1.7576
1.9197
1.98875
2.00641
-0.626338
-0.623284
-0.617638
-0.616203
-0.616327
-0.582085
-0.507488
-0.414478
-0.311241
-0.198229
-0.0855782
0.0288204
0.148837
0.439875
0.791353
1.07663
1.28672
1.40316
1.4525
1.46451
-0.662402
-0.659908
-0.660382
-0.664789
-0.663821
-0.610386
-0.514732
-0.408405
-0.301605
-0.191423
-0.0915884
0.00168689
0.0916348
0.287607
0.52873
0.726962
0.872559
0.952059
0.985714
0.993369
-0.712349
-0.719315
-0.735743
-0.743478
-0.721611
-0.633809
-0.511695
-0.393478
-0.286567
-0.185197
-0.101631
-0.0318626
0.0256308
0.165787
0.333098
0.464937
0.559869
0.610447
0.630534
0.634596
-0.692284
-0.704557
-0.724369
-0.730445
-0.697215
-0.597356
-0.473041
-0.360034
-0.26352
-0.177273
-0.111334
-0.0621731
-0.0245001
0.0703554
0.186176
0.275915
0.33772
0.369891
0.383029
0.384898
-0.532611
-0.544377
-0.560023
-0.564307
-0.536285
-0.464934
-0.38199
-0.300697
-0.226811
-0.160396
-0.109197
-0.0760663
-0.0499129
0.0206809
0.0964127
0.152747
0.189563
0.208328
0.215413
0.215941
-0.295618
-0.301719
-0.311349
-0.319389
-0.314001
-0.29227
-0.260064
-0.220779
-0.178176
-0.133964
-0.0991152
-0.0787898
-0.0605752
-0.0125853
0.0382923
0.0750583
0.0971957
0.108066
0.111879
0.111705
-0.092205
-0.0951495
-0.102809
-0.116463
-0.133283
-0.145781
-0.14937
-0.143079
-0.127608
-0.104671
-0.0829976
-0.0673863
-0.0541155
-0.0221741
0.00967858
0.0316419
0.0452711
0.0519406
0.0542453
0.0537703
0.027967
0.0261798
0.0192658
0.00298658
-0.0224646
-0.0495195
-0.0707713
-0.0825703
-0.0836305
-0.0743555
-0.0601833
-0.0466608
-0.03327
-0.0114219
0.00695421
0.0179658
0.0237122
0.0261832
0.0266235
0.025858
0.0775034
0.076177
0.0703383
0.0556448
0.031584
0.00403281
-0.0210245
-0.0395848
-0.0490305
-0.0481351
-0.0390182
-0.025002
-0.0107692
0.00259006
0.00910606
0.0134911
0.0165883
0.0179797
0.0182501
0.0173391
0.0872857
0.0863044
0.0819467
0.070785
0.0520373
0.0293155
0.0066711
-0.0123626
-0.0249014
-0.0283929
-0.0217038
-0.00817782
0.00616376
0.011922
0.0132887
0.0147367
0.0160613
0.0169137
0.0166525
0.0155225
0.0797098
0.0790498
0.0760633
0.0682776
0.0548259
0.037651
0.0193512
0.0027711
-0.00957034
-0.01491
-0.0106992
0.000740491
0.0122471
0.0125108
0.0107576
0.0114545
0.0132462
0.0146515
0.0144201
0.013185
0.0660928
0.0656839
0.0637387
0.0585508
0.0493038
0.0369733
0.0230318
0.00945126
-0.00176124
-0.00817381
-0.00689529
0.000231711
0.00647838
0.00385776
0.00209572
0.00326532
0.00541304
0.00660865
0.00632598
0.00517644
0.0513543
0.0511072
0.0498806
0.0465242
0.0403259
0.031673
0.0213739
0.0106333
0.000736883
-0.00658609
-0.00895399
-0.00745397
-0.00660989
-0.0109157
-0.0120317
-0.00979741
-0.00753259
-0.00684744
-0.00719698
-0.00816155
0.037548
0.0373797
0.0366274
0.034535
0.0305082
0.0245742
0.0170731
0.00860262
-0.000204943
-0.00846037
-0.0147129
-0.0196628
-0.0255055
-0.0311561
-0.0295293
-0.0260926
-0.0235384
-0.0229842
-0.0233592
-0.024105
0.0256475
0.0255159
0.0250316
0.0237786
0.021246
0.0172477
0.011817
0.00510408
-0.00281533
-0.0119594
-0.0218293
-0.0329482
-0.0428303
-0.046946
-0.0438438
-0.0401069
-0.0382083
-0.0379802
-0.0383156
-0.0388387
0.0160435
0.0159354
0.0156181
0.0148984
0.0133727
0.010747
0.00681754
0.0014429
-0.00569768
-0.0153234
-0.0279279
-0.0426295
-0.0553446
-0.0576104
-0.0533014
-0.049497
-0.0478972
-0.047838
-0.0480795
-0.0484832
0.00892359
0.00881592
0.00860046
0.00818752
0.00730853
0.0056119
0.00278358
-0.0014987
-0.00775496
-0.0172776
-0.0308639
-0.0474574
-0.0603972
-0.0603331
-0.0554106
-0.0520233
-0.051048
-0.0512337
-0.0514033
-0.0517182
0.00416069
0.00405139
0.00388896
0.00364706
0.00314912
0.00204367
2.85769e-06
-0.00335755
-0.0086414
-0.0170409
-0.0295975
-0.0449698
-0.0558575
-0.0539635
-0.0497086
-0.0476253
-0.0474677
-0.0477353
-0.0478535
-0.0481213
0.00136632
0.00127736
0.00113678
0.000988856
0.000703957
2.99765e-07
-0.00142462
-0.00390487
-0.00797971
-0.0145528
-0.0241792
-0.0354869
-0.0424595
-0.0400511
-0.03749
-0.0372005
-0.0376577
-0.0378886
-0.03804
-0.0383413
5.5701e-05
-2.0768e-05
-0.000125043
-0.000233212
-0.000399597
-0.000839573
-0.00174854
-0.00342113
-0.00613774
-0.0104769
-0.0161966
-0.0214879
-0.023567
-0.0218391
-0.0223319
-0.0235974
-0.0241894
-0.0242448
-0.0244885
-0.0248644
-0.000285997
-0.000349186
-0.000423327
-0.000475818
-0.000557135
-0.000780689
-0.00127378
-0.00213255
-0.0035358
-0.005742
-0.00801811
-0.00820064
-0.00605957
-0.0059569
-0.00855535
-0.0105473
-0.010608
-0.0101021
-0.010445
-0.0110068
3.78799e-05
1.56604e-05
1.02626e-05
-3.50067e-05
-0.000100704
-0.000105966
-0.000145692
-0.00024376
-0.00044747
-0.000689407
-0.00112845
-0.000339028
0.00248992
0.00204771
-0.000503993
-0.00149118
-0.00236042
-0.00295104
-0.00310638
-0.00280273
-0.0911093
0.0969364
0.298011
0.466836
0.601835
0.708568
0.79746
0.872113
0.902589
0.886358
0.235106
0.35867
0.488022
0.599807
0.694056
0.77225
0.835201
0.879288
0.902162
0.914988
0.455358
0.539154
0.627137
0.705449
0.772674
0.828842
0.873324
0.906069
0.930103
0.947974
0.615544
0.675084
0.736813
0.793977
0.843527
0.885505
0.919996
0.94786
0.970488
0.988749
0.741005
0.783687
0.830839
0.874129
0.912768
0.946513
0.975432
0.9998
1.01966
1.03761
0.844965
0.878086
0.916625
0.952097
0.984622
1.01388
1.03952
1.06127
1.07834
1.09594
0.937599
0.966514
1.00059
1.03281
1.06275
1.08996
1.11383
1.1337
1.14833
1.16578
1.02622
1.05567
1.08965
1.12181
1.15143
1.17805
1.20099
1.21944
1.2321
1.24956
1.12157
1.15516
1.19158
1.22529
1.25533
1.28148
1.30339
1.32048
1.33193
1.34972
1.23646
1.27502
1.31325
1.34745
1.3767
1.40136
1.42164
1.43734
1.44866
1.46701
1.38117
1.42064
1.45619
1.48659
1.51215
1.53419
1.55319
1.56871
1.58136
1.59948
1.55589
1.58794
1.61372
1.63605
1.65609
1.67483
1.69245
1.709
1.72474
1.74293
1.74349
1.76104
1.77657
1.79315
1.8093
1.82384
1.83687
1.85084
1.86792
1.8876
1.92507
1.93604
1.94819
1.95897
1.96823
1.97778
1.98866
2.00025
2.01019
2.02537
2.13609
2.13811
2.12295
2.10772
2.10133
2.10699
2.1256
2.15601
2.18815
2.2189
2.442
2.30495
2.22866
2.18656
2.16912
2.17315
2.2005
2.25665
2.3601
2.57538
0.742761
0.739385
0.733457
0.723648
0.710702
0.698275
0.687957
0.680002
0.674335
0.671038
0.670648
0.67337
0.678476
0.685718
0.695149
0.706834
0.719962
0.731951
0.739407
0.744126
0.660779
0.666664
0.673566
0.678802
0.681644
0.68131
0.678398
0.674466
0.670886
0.668578
0.668395
0.670574
0.674245
0.678589
0.682527
0.684523
0.683406
0.679311
0.673416
0.666371
0.65313
0.655477
0.658824
0.661727
0.663937
0.66573
0.666679
0.666411
0.665363
0.664443
0.66458
0.665977
0.667771
0.669034
0.669067
0.667886
0.666071
0.663723
0.660564
0.657599
0.647996
0.649083
0.650945
0.653321
0.655274
0.656656
0.657739
0.658581
0.659028
0.659246
0.6597
0.66045
0.660967
0.660913
0.660373
0.659487
0.658073
0.656008
0.653891
0.652475
0.642913
0.643568
0.644673
0.646387
0.648183
0.649787
0.651037
0.652043
0.652937
0.653724
0.654413
0.654891
0.655002
0.65477
0.654188
0.653141
0.651688
0.650105
0.648774
0.647989
0.638004
0.63846
0.639239
0.640527
0.64201
0.643528
0.644976
0.646237
0.647337
0.648357
0.649218
0.649715
0.649802
0.649493
0.648768
0.647738
0.646577
0.645425
0.644504
0.643982
0.633231
0.633572
0.634177
0.635235
0.636511
0.637872
0.639298
0.640718
0.642045
0.643266
0.644304
0.644922
0.645038
0.644709
0.644057
0.643236
0.642354
0.64147
0.640788
0.640404
0.628552
0.628818
0.629305
0.630203
0.631356
0.632631
0.634001
0.63546
0.636954
0.638406
0.639667
0.640443
0.640661
0.640465
0.640011
0.639403
0.638718
0.638051
0.637546
0.637254
0.623894
0.624105
0.62451
0.625297
0.626368
0.627593
0.628947
0.630441
0.632059
0.633737
0.635263
0.636273
0.636703
0.636729
0.63649
0.636089
0.635596
0.635112
0.634743
0.634513
0.619173
0.619343
0.61969
0.620403
0.621427
0.622627
0.624003
0.625571
0.62733
0.629242
0.631084
0.63242
0.633146
0.633435
0.633427
0.633235
0.632938
0.632616
0.632359
0.632176
0.614306
0.614444
0.614749
0.615418
0.616422
0.617643
0.61908
0.620763
0.622712
0.62491
0.627137
0.628882
0.629965
0.630558
0.630809
0.630838
0.63073
0.630562
0.630398
0.630251
0.609211
0.609322
0.609599
0.610248
0.611269
0.612555
0.614096
0.615948
0.618158
0.62072
0.623425
0.625662
0.627161
0.628101
0.628641
0.628904
0.628989
0.628972
0.628889
0.62877
0.603798
0.603886
0.604147
0.6048
0.605874
0.607267
0.608968
0.611058
0.613609
0.616643
0.619941
0.622764
0.624749
0.626085
0.626947
0.627481
0.627773
0.627896
0.627884
0.627787
0.597968
0.598034
0.598288
0.598969
0.600134
0.601682
0.603605
0.60601
0.608993
0.612617
0.616641
0.620174
0.62274
0.624543
0.625773
0.626604
0.627125
0.627396
0.627451
0.627373
0.591601
0.591647
0.591902
0.592633
0.593928
0.595686
0.597901
0.600707
0.604237
0.608591
0.613502
0.617895
0.62116
0.623518
0.625178
0.626344
0.627127
0.627557
0.627678
0.627616
0.584558
0.584587
0.584845
0.585647
0.587116
0.589145
0.591736
0.595055
0.599273
0.604525
0.61052
0.615957
0.62006
0.623074
0.625243
0.626799
0.627881
0.628483
0.628671
0.628622
0.576652
0.576666
0.576927
0.577827
0.579524
0.581892
0.584969
0.588949
0.594042
0.600423
0.607744
0.614423
0.619509
0.62329
0.626058
0.628087
0.629505
0.630295
0.630553
0.630515
0.567599
0.567583
0.567902
0.568935
0.570907
0.573721
0.57742
0.582227
0.588409
0.596181
0.605117
0.613294
0.619556
0.624251
0.627731
0.630321
0.632128
0.63313
0.63346
0.633431
0.557116
0.557074
0.557437
0.558657
0.560989
0.564374
0.568862
0.574718
0.582266
0.591755
0.602655
0.612626
0.620283
0.626061
0.630386
0.633626
0.635891
0.637129
0.637536
0.637514
0.544736
0.544668
0.545106
0.546568
0.549375
0.553507
0.559017
0.566229
0.575519
0.587147
0.600424
0.612526
0.621806
0.628843
0.634161
0.638157
0.640946
0.642445
0.64293
0.64291
0.529827
0.52973
0.530288
0.532094
0.535536
0.540671
0.547546
0.556538
0.568064
0.582361
0.598496
0.613074
0.624237
0.632723
0.639191
0.64406
0.647438
0.649216
0.649773
0.649751
0.51148
0.511357
0.512108
0.51441
0.518738
0.525257
0.533988
0.545346
0.559733
0.577305
0.596846
0.61432
0.627644
0.637792
0.64557
0.651438
0.655479
0.657546
0.658166
0.658134
0.488276
0.488138
0.489219
0.492295
0.497963
0.506521
0.517904
0.532509
0.550644
0.572282
0.595808
0.616511
0.6322
0.644179
0.653397
0.660384
0.665126
0.667469
0.668127
0.668074
0.457885
0.457773
0.459456
0.46388
0.471815
0.483562
0.498847
0.517907
0.540817
0.567323
0.595408
0.619711
0.637976
0.651921
0.662699
0.670895
0.67632
0.678884
0.67954
0.679452
0.416186
0.416241
0.419258
0.426518
0.438661
0.455632
0.4767
0.501778
0.530657
0.562871
0.596011
0.624121
0.645064
0.661037
0.67344
0.682856
0.688854
0.691512
0.692106
0.691974
0.355486
0.356671
0.364068
0.377721
0.397589
0.422884
0.452097
0.484832
0.520769
0.559354
0.597863
0.629877
0.653501
0.671468
0.685432
0.695907
0.702306
0.704848
0.705277
0.705106
0.282858
0.284917
0.299206
0.32278
0.353392
0.388515
0.426625
0.467557
0.511114
0.556797
0.601636
0.638598
0.665843
0.686554
0.702538
0.714322
0.721151
0.723704
0.724155
0.724091
0.208011
0.21438
0.235646
0.26932
0.310271
0.354986
0.401994
0.451204
0.502494
0.555413
0.606782
0.648891
0.679872
0.703506
0.721769
0.734819
0.741837
0.744131
0.744426
0.744439
0.146958
0.155436
0.181264
0.221992
0.270983
0.323856
0.378903
0.435871
0.494547
0.554438
0.612059
0.65902
0.693459
0.719652
0.739752
0.753853
0.760998
0.763303
0.763917
0.764013
0.0971355
0.106223
0.135594
0.181538
0.236618
0.296049
0.357881
0.421693
0.487115
0.553527
0.617052
0.668564
0.706207
0.734756
0.756548
0.771747
0.779554
0.782409
0.783145
0.783271
0.0553132
0.0646762
0.0964924
0.146447
0.206509
0.271389
0.338953
0.408726
0.48019
0.552586
0.621608
0.677364
0.717962
0.74868
0.772147
0.788418
0.797085
0.800328
0.801179
0.801301
0.0190975
0.0285824
0.0622498
0.115411
0.179592
0.249123
0.321679
0.396723
0.473633
0.55152
0.625657
0.685355
0.728675
0.761339
0.786198
0.803409
0.812743
0.816323
0.817292
0.817418
-0.013156
-0.00361338
0.0314817
0.0873625
0.154998
0.228529
0.305505
0.385292
0.467182
0.550158
0.629084
0.692462
0.738266
0.772663
0.798639
0.816563
0.826481
0.83039
0.831397
0.831522
-0.0426842
-0.0330732
0.00319238
0.0614176
0.132033
0.209067
0.289968
0.374055
0.460536
0.548287
0.631758
0.698627
0.746742
0.782675
0.809607
0.828045
0.838286
0.842426
0.843483
0.843596
-0.070312
-0.0606344
-0.0233012
0.0369158
0.110188
0.190329
0.274735
0.362731
0.453468
0.545736
0.633581
0.703845
0.754189
0.791529
0.819217
0.837927
0.848329
0.852647
0.853777
0.85387
-0.0965847
-0.0868053
-0.048472
0.0134162
0.0891055
0.172008
0.259573
0.351131
0.445819
0.542374
0.634486
0.708141
0.760723
0.799405
0.827721
0.846688
0.857183
0.861564
0.862687
0.862772
-0.12195
-0.111972
-0.0727998
-0.00929108
0.0685374
0.153904
0.244321
0.33913
0.43749
0.538119
0.634435
0.711556
0.766447
0.806477
0.835394
0.854582
0.865161
0.869522
0.870605
0.870624
-0.146635
-0.136423
-0.0964817
-0.0313749
0.0483263
0.135894
0.228886
0.326662
0.428418
0.532927
0.633408
0.714114
0.771451
0.812893
0.842429
0.86181
0.872411
0.876716
0.87774
0.87775
-0.170728
-0.160289
-0.11949
-0.0529981
0.0283867
0.117935
0.213232
0.313699
0.418586
0.526764
0.631377
0.715827
0.7758
0.818783
0.849005
0.868579
0.879143
0.883311
0.884235
0.884201
-0.194346
-0.183596
-0.142018
-0.0742223
0.00868636
0.100004
0.197362
0.300254
0.408006
0.519633
0.628308
0.716665
0.77953
0.824268
0.855274
0.874999
0.885408
0.889357
0.890128
0.890039
-0.217465
-0.206418
-0.164065
-0.0950618
-0.0107678
0.0821242
0.181319
0.286375
0.396716
0.511542
0.624168
0.716562
0.782628
0.82944
0.86139
0.881194
0.891261
0.894844
0.895434
0.8953
-0.240123
-0.228741
-0.185573
-0.115479
-0.0299424
0.0643383
0.165154
0.27213
0.38478
0.502525
0.618925
0.715435
0.785026
0.834356
0.867548
0.887371
0.896815
0.899821
0.900185
0.900014
-0.262121
-0.250489
-0.206525
-0.135429
-0.0487806
0.0467261
0.148942
0.257597
0.37228
0.492648
0.612562
0.713191
0.786611
0.838996
0.873959
0.893905
0.902353
0.904383
0.904394
0.904196
-0.283595
-0.271606
-0.226895
-0.154883
-0.0672457
0.0293329
0.13278
0.242864
0.359309
0.481994
0.605089
0.709728
0.78722
0.843221
0.88074
0.901347
0.908557
0.908901
0.908129
0.907889
-0.304378
-0.292061
-0.24665
-0.173788
-0.0852543
0.0122468
0.116752
0.228054
0.345979
0.470636
0.596546
0.704951
0.786653
0.846743
0.887726
0.910215
0.916759
0.914736
0.911995
0.910968
-0.324518
-0.311894
-0.265729
-0.192084
-0.102765
-0.00446069
0.100946
0.213251
0.332402
0.458709
0.58701
0.698775
0.784701
0.849148
0.894285
0.920347
0.928391
0.925214
0.918574
0.909286
-0.343935
-0.331071
-0.284217
-0.209932
-0.119994