0.490941 	1.16908 	0.00612428 	3.00279 	0
0.561075 	1.16908 	0.00612428 	3.00279 	0
0.63121 	1.16908 	0.00612428 	3.00279 	0
0.701344 	1.16908 	0.00612428 	3.00279 	0
0.771478 	1.16908 	0.00612428 	3.00279 	0
0.841613 	1.16908 	0.00612428 	3.00279 	0
0.911747 	1.16908 	0.00612428 	3.00279 	0
0.981881 	1.16908 	0.00612428 	3.00279 	0
1.05202 	1.16908 	0.00612428 	3.00279 	0
1.12215 	1.16908 	0.00612428 	3.00279 	0
1.19228 	1.16908 	0.00612428 	3.00279 	0
1.26242 	1.14293 	0.0115082 	3.00797 	0
1.33255 	1.14293 	0.0115082 	3.00797 	0
1.40269 	1.14293 	0.0115082 	3.00797 	0
1.47282 	1.14293 	0.0115082 	3.00797 	0
1.54296 	1.14293 	0.0115082 	3.00797 	0
1.61309 	1.14293 	0.0115082 	3.00797 	0
1.68323 	1.14293 	0.0115082 	3.00797 	0
1.75336 	1.14293 	0.0115082 	3.00797 	0
1.82349 	1.09312 	0.0148216 	3.02394 	4.1905e-19
1.89363 	1.09312 	0.0148216 	3.02394 	4.1905e-19
1.96376 	1.09312 	0.0148216 	3.02394 	4.1905e-19
2.0339 	1.09312 	0.0148216 	3.02394 	4.1905e-19
2.10403 	1.09312 	0.0148216 	3.02394 	4.1905e-19
2.17417 	1.09312 	0.0148216 	3.02394 	4.1905e-19
2.2443 	1.09312 	0.0148216 	3.02394 	4.1905e-19
2.31443 	1.09312 	0.0148216 	3.02394 	4.1905e-19
2.38457 	1.09312 	0.0148216 	3.02394 	4.1905e-19
2.4547 	1.09312 	0.0148216 	3.02394 	4.1905e-19
2.52484 	1.09312 	0.0148216 	3.02394 	4.1905e-19
2.59497 	1.05855 	0.00734107 	3.03678 	-6.64865e-19
2.66511 	1.05855 	0.00734107 	3.03678 	-6.64865e-19
2.73524 	1.05855 	0.00734107 	3.03678 	-6.64865e-19
2.80538 	1.05855 	0.00734107 	3.03678 	-6.64865e-19
2.87551 	1.05855 	0.00734107 	3.03678 	-6.64865e-19
2.94564 	1.05855 	0.00734107 	3.03678 	-6.64865e-19
3.01578 	1.05855 	0.00734107 	3.03678 	-6.64865e-19
3.08591 	1.05855 	0.00734107 	3.03678 	-6.64865e-19
3.15605 	1.05855 	0.00734107 	3.03678 	-6.64865e-19
3.22618 	1.05855 	0.00734107 	3.03678 	-6.64865e-19
3.29632 	1.02613 	0.0201511 	3.04339 	6.7172e-19
3.36645 	1.02613 	0.0201511 	3.04339 	6.7172e-19
3.43659 	1.02613 	0.0201511 	3.04339 	6.7172e-19
3.50672 	1.02613 	0.0201511 	3.04339 	6.7172e-19
3.57685 	1.02613 	0.0201511 	3.04339 	6.7172e-19
3.64699 	1.02613 	0.0201511 	3.04339 	6.7172e-19
3.71712 	1.02613 	0.0201511 	3.04339 	6.7172e-19
3.78726 	1.02613 	0.0201511 	3.04339 	6.7172e-19
3.85739 	1.02613 	0.0201511 	3.04339 	6.7172e-19
3.92753 	1.02613 	0.0201511 	3.04339 	6.7172e-19
3.99766 	1.02613 	0.0201511 	3.04339 	6.7172e-19
4.06779 	1.00781 	0.00363222 	3.05024 	-1.89018e-20
4.13793 	1.00781 	0.00363222 	3.05024 	-1.89018e-20
4.20806 	1.00781 	0.00363222 	3.05024 	-1.89018e-20
4.2782 	1.00781 	0.00363222 	3.05024 	-1.89018e-20
4.34833 	1.00781 	0.00363222 	3.05024 	-1.89018e-20
4.41847 	1.00781 	0.00363222 	3.05024 	-1.89018e-20
4.4886 	0.982815 	0.0166301 	3.05778 	0
4.55874 	0.982815 	0.0166301 	3.05778 	0
4.62887 	0.982815 	0.0166301 	3.05778 	0
4.699 	0.982815 	0.0166301 	3.05778 	0
4.76914 	0.982815 	0.0166301 	3.05778 	0
4.83927 	0.982815 	0.0166301 	3.05778 	0
4.90941 	0.982815 	0.0166301 	3.05778 	0
4.97954 	0.982815 	0.0166301 	3.05778 	0
5.04968 	0.982815 	0.0166301 	3.05778 	0
5.11981 	0.982815 	0.0166301 	3.05778 	0
5.18994 	0.960461 	0.00583211 	3.06492 	-8.94755e-21
5.26008 	0.960461 	0.00583211 	3.06492 	-8.94755e-21
5.33021 	0.960461 	0.00583211 	3.06492 	-8.94755e-21
5.40035 	0.960461 	0.00583211 	3.06492 	-8.94755e-21
5.47048 	0.960461 	0.00583211 	3.06492 	-8.94755e-21
5.54062 	0.960461 	0.00583211 	3.06492 	-8.94755e-21
5.61075 	0.960461 	0.00583211 	3.06492 	-8.94755e-21
5.68089 	0.931745 	0.0111705 	3.07426 	0
5.75102 	0.931745 	0.0111705 	3.07426 	0
5.82115 	0.931745 	0.0111705 	3.07426 	0
5.89129 	0.931745 	0.0111705 	3.07426 	0
5.96142 	0.931745 	0.0111705 	3.07426 	0
6.03156 	0.931745 	0.0111705 	3.07426 	0
6.10169 	0.931745 	0.0111705 	3.07426 	0
6.17183 	0.931745 	0.0111705 	3.07426 	0
6.24196 	0.931745 	0.0111705 	3.07426 	0
6.3121 	0.90237 	0.00719213 	3.08252 	0
6.38223 	0.90237 	0.00719213 	3.08252 	0
6.45236 	0.90237 	0.00719213 	3.08252 	0
6.5225 	0.90237 	0.00719213 	3.08252 	0
6.59263 	0.90237 	0.00719213 	3.08252 	0
6.66277 	0.90237 	0.00719213 	3.08252 	0
6.7329 	0.90237 	0.00719213 	3.08252 	0
6.80304 	0.90237 	0.00719213 	3.08252 	0
6.87317 	0.876756 	0.0063369 	3.09169 	3.01094e-19
6.9433 	0.876756 	0.0063369 	3.09169 	3.01094e-19
7.01344 	0.876756 	0.0063369 	3.09169 	3.01094e-19
7.08357 	0.876756 	0.0063369 	3.09169 	3.01094e-19
7.15371 	0.876756 	0.0063369 	3.09169 	3.01094e-19
7.22384 	0.876756 	0.0063369 	3.09169 	3.01094e-19
7.29398 	0.876756 	0.0063369 	3.09169 	3.01094e-19
7.36411 	0.876756 	0.0063369 	3.09169 	3.01094e-19
7.43425 	0.876756 	0.0063369 	3.09169 	3.01094e-19
7.50438 	0.845755 	0.00866138 	3.09862 	-2.24099e-18
7.57451 	0.845755 	0.00866138 	3.09862 	-2.24099e-18
7.64465 	0.845755 	0.00866138 	3.09862 	-2.24099e-18
7.71478 	0.845755 	0.00866138 	3.09862 	-2.24099e-18
7.78492 	0.845755 	0.00866138 	3.09862 	-2.24099e-18
7.85505 	0.845755 	0.00866138 	3.09862 	-2.24099e-18
7.92519 	0.845755 	0.00866138 	3.09862 	-2.24099e-18
7.99532 	0.845755 	0.00866138 	3.09862 	-2.24099e-18
8.06545 	0.82496 	0.00187287 	3.10681 	2.19981e-18
8.13559 	0.82496 	0.00187287 	3.10681 	2.19981e-18
8.20572 	0.82496 	0.00187287 	3.10681 	2.19981e-18
8.27586 	0.82496 	0.00187287 	3.10681 	2.19981e-18
8.34599 	0.82496 	0.00187287 	3.10681 	2.19981e-18
8.41613 	0.82496 	0.00187287 	3.10681 	2.19981e-18
8.48626 	0.82496 	0.00187287 	3.10681 	2.19981e-18
8.5564 	0.82496 	0.00187287 	3.10681 	2.19981e-18
8.62653 	0.82496 	0.00187287 	3.10681 	2.19981e-18
8.69666 	0.794809 	0.0157821 	3.11822 	1.91495e-18
8.7668 	0.794809 	0.0157821 	3.11822 	1.91495e-18
8.83693 	0.794809 	0.0157821 	3.11822 	1.91495e-18
8.90707 	0.794809 	0.0157821 	3.11822 	1.91495e-18
8.9772 	0.794809 	0.0157821 	3.11822 	1.91495e-18
9.04734 	0.794809 	0.0157821 	3.11822 	1.91495e-18
9.11747 	0.794809 	0.0157821 	3.11822 	1.91495e-18
9.18761 	0.794809 	0.0157821 	3.11822 	1.91495e-18
9.25774 	0.764871 	0.00454101 	3.11793 	-1.784e-18
9.32787 	0.764871 	0.00454101 	3.11793 	-1.784e-18
9.39801 	0.764871 	0.00454101 	3.11793 	-1.784e-18
9.46814 	0.764871 	0.00454101 	3.11793 	-1.784e-18
9.53828 	0.764871 	0.00454101 	3.11793 	-1.784e-18
9.60841 	0.764871 	0.00454101 	3.11793 	-1.784e-18
9.67855 	0.764871 	0.00454101 	3.11793 	-1.784e-18
9.74868 	0.764871 	0.00454101 	3.11793 	-1.784e-18
9.81881 	0.747197 	0.0166481 	3.12962 	-5.78696e-19
9.88895 	0.747197 	0.0166481 	3.12962 	-5.78696e-19
9.95908 	0.747197 	0.0166481 	3.12962 	-5.78696e-19
10.0292 	0.747197 	0.0166481 	3.12962 	-5.78696e-19
10.0994 	0.747197 	0.0166481 	3.12962 	-5.78696e-19
10.1695 	0.747197 	0.0166481 	3.12962 	-5.78696e-19
10.2396 	0.747197 	0.0166481 	3.12962 	-5.78696e-19
10.3098 	0.747197 	0.0166481 	3.12962 	-5.78696e-19
10.3799 	0.747197 	0.0166481 	3.12962 	-5.78696e-19
10.45 	0.747197 	0.0166481 	3.12962 	-5.78696e-19
10.5202 	0.747197 	0.0166481 	3.12962 	-5.78696e-19
10.5903 	0.747197 	0.0166481 	3.12962 	-5.78696e-19
10.6604 	0.769272 	0.0145011 	3.12568 	8.51729e-19
10.7306 	0.717068 	0.0352632 	3.13996 	0
10.8007 	0.717068 	0.0352632 	3.13996 	0
10.8708 	0.717068 	0.0352632 	3.13996 	0
10.941 	0.717068 	0.0352632 	3.13996 	0
11.0111 	0.717068 	0.0352632 	3.13996 	0
11.0812 	0.717068 	0.0352632 	3.13996 	0
11.1514 	0.717068 	0.0352632 	3.13996 	0
11.2215 	0.717068 	0.0352632 	3.13996 	0
11.2916 	0.717068 	0.0352632 	3.13996 	0
11.3618 	0.717068 	0.0352632 	3.13996 	0
11.4319 	0.717068 	0.0352632 	3.13996 	0
11.502 	0.717068 	0.0352632 	3.13996 	0
11.5722 	0.717068 	0.0352632 	3.13996 	0
11.6423 	0.717068 	0.0352632 	3.13996 	0
11.7124 	0.725537 	0.0224008 	3.12972 	0
11.7826 	0.665016 	0.0765472 	3.16064 	9.70355e-19
11.8527 	0.665016 	0.0765472 	3.16064 	9.70355e-19
11.9228 	0.665016 	0.0765472 	3.16064 	9.70355e-19
11.993 	0.665016 	0.0765472 	3.16064 	9.70355e-19
12.0631 	0.665016 	0.0765472 	3.16064 	9.70355e-19
12.1332 	0.665016 	0.0765472 	3.16064 	9.70355e-19
12.2034 	0.568067 	0.0693905 	3.18643 	-4.80863e-19
12.2735 	0.568067 	0.0693905 	3.18643 	-4.80863e-19
12.3437 	0.568067 	0.0693905 	3.18643 	-4.80863e-19
12.4138 	0.568067 	0.0693905 	3.18643 	-4.80863e-19
12.4839 	0.568067 	0.0693905 	3.18643 	-4.80863e-19
12.5541 	0.568067 	0.0693905 	3.18643 	-4.80863e-19
12.6242 	0.568067 	0.0693905 	3.18643 	-4.80863e-19
12.6943 	0.568067 	0.0693905 	3.18643 	-4.80863e-19
12.7645 	0.568067 	0.0693905 	3.18643 	-4.80863e-19
12.8346 	0.453987 	0.0360964 	3.17874 	4.50564e-19
12.9047 	0.440531 	0.137418 	3.22204 	-2.2553e-19
12.9749 	0.440531 	0.137418 	3.22204 	-2.2553e-19
13.045 	0.440531 	0.137418 	3.22204 	-2.2553e-19
13.1151 	0.440531 	0.137418 	3.22204 	-2.2553e-19
13.1853 	0.440531 	0.137418 	3.22204 	-2.2553e-19
13.2554 	0.440531 	0.137418 	3.22204 	-2.2553e-19
13.3255 	0.440531 	0.137418 	3.22204 	-2.2553e-19
13.3957 	0.667756 	0.142423 	3.19323 	1.49851e-18
13.4658 	0.667756 	0.142423 	3.19323 	1.49851e-18
13.5359 	0.667756 	0.142423 	3.19323 	1.49851e-18
13.6061 	0.667756 	0.142423 	3.19323 	1.49851e-18
13.6762 	0.667756 	0.142423 	3.19323 	1.49851e-18
13.7463 	0.667756 	0.142423 	3.19323 	1.49851e-18
13.8165 	0.749173 	0.113632 	2.86671 	-1.24534e-18
13.8866 	0.955812 	0.136426 	2.96086 	5.78816e-19
13.9567 	0.955812 	0.136426 	2.96086 	5.78816e-19
14.0269 	0.371247 	0.245681 	3.03424 	-1.89603e-18
14.097 	0.371247 	0.245681 	3.03424 	-1.89603e-18
14.1671 	0.371247 	0.245681 	3.03424 	-1.89603e-18
14.2373 	0.371247 	0.245681 	3.03424 	-1.89603e-18
14.3074 	0.371247 	0.245681 	3.03424 	-1.89603e-18
14.3776 	0.371247 	0.245681 	3.03424 	-1.89603e-18
14.4477 	0.371247 	0.245681 	3.03424 	-1.89603e-18
14.5178 	0.371247 	0.245681 	3.03424 	-1.89603e-18
14.588 	0.371247 	0.245681 	3.03424 	-1.89603e-18
14.6581 	0.371247 	0.245681 	3.03424 	-1.89603e-18
14.7282 	0.371247 	0.245681 	3.03424 	-1.89603e-18
14.7984 	0.371247 	0.245681 	3.03424 	-1.89603e-18
14.8685 	0.371247 	0.245681 	3.03424 	-1.89603e-18
14.9386 	0.193358 	0.340097 	3.19344 	0
15.0088 	0.193358 	0.340097 	3.19344 	0
15.0789 	0.193358 	0.340097 	3.19344 	0
15.149 	0.193358 	0.340097 	3.19344 	0
15.2192 	0.193358 	0.340097 	3.19344 	0
15.2893 	-0.315348 	0.340265 	3.42077 	-1.94519e-19
15.3594 	-0.315348 	0.340265 	3.42077 	-1.94519e-19
15.4296 	-0.315348 	0.340265 	3.42077 	-1.94519e-19
15.4997 	-0.315348 	0.340265 	3.42077 	-1.94519e-19
15.5698 	-0.315348 	0.340265 	3.42077 	-1.94519e-19
15.64 	-0.315348 	0.340265 	3.42077 	-1.94519e-19
15.7101 	-0.810789 	0.395297 	3.49165 	0
15.7802 	-0.810789 	0.395297 	3.49165 	0
15.8504 	-0.706245 	0.647802 	3.54953 	1.2491e-18
15.9205 	-0.706245 	0.647802 	3.54953 	1.2491e-18
15.9906 	-0.706245 	0.647802 	3.54953 	1.2491e-18
16.0608 	-0.706245 	0.647802 	3.54953 	1.2491e-18
16.1309 	-0.706245 	0.647802 	3.54953 	1.2491e-18
16.201 	-0.706245 	0.647802 	3.54953 	1.2491e-18
16.2712 	-0.706245 	0.647802 	3.54953 	1.2491e-18
16.3413 	-0.706245 	0.647802 	3.54953 	1.2491e-18
16.4114 	-0.706245 	0.647802 	3.54953 	1.2491e-18
16.4816 	-0.706245 	0.647802 	3.54953 	1.2491e-18
16.5517 	-0.706245 	0.647802 	3.54953 	1.2491e-18
16.6219 	-0.706245 	0.647802 	3.54953 	1.2491e-18
16.692 	-0.706245 	0.647802 	3.54953 	1.2491e-18
16.7621 	-0.706245 	0.647802 	3.54953 	1.2491e-18
16.8323 	-0.255887 	0.872747 	3.11684 	6.02102e-20
16.9024 	-0.255887 	0.872747 	3.11684 	6.02102e-20
16.9725 	-0.255887 	0.872747 	3.11684 	6.02102e-20
17.0427 	-0.255887 	0.872747 	3.11684 	6.02102e-20
17.1128 	-0.255887 	0.872747 	3.11684 	6.02102e-20
17.1829 	-0.255887 	0.872747 	3.11684 	6.02102e-20
17.2531 	-0.255887 	0.872747 	3.11684 	6.02102e-20
17.3232 	-0.255887 	0.872747 	3.11684 	6.02102e-20
17.3933 	-0.255887 	0.872747 	3.11684 	6.02102e-20
17.4635 	-0.255887 	0.872747 	3.11684 	6.02102e-20
17.5336 	-0.165184 	0.913882 	3.03356 	-2.95702e-20
17.6037 	-0.165184 	0.913882 	3.03356 	-2.95702e-20
17.6739 	-0.165184 	0.913882 	3.03356 	-2.95702e-20
17.744 	-0.257187 	1.04284 	3.1636 	1.26036e-19
17.8141 	-0.257187 	1.04284 	3.1636 	1.26036e-19
17.8843 	-0.257187 	1.04284 	3.1636 	1.26036e-19
17.9544 	-0.257187 	1.04284 	3.1636 	1.26036e-19
18.0245 	-0.257187 	1.04284 	3.1636 	1.26036e-19
18.0947 	-0.257187 	1.04284 	3.1636 	1.26036e-19
18.1648 	-0.257187 	1.04284 	3.1636 	1.26036e-19
18.2349 	-0.257187 	1.04284 	3.1636 	1.26036e-19
18.3051 	-0.257187 	1.04284 	3.1636 	1.26036e-19
18.3752 	0.0314646 	1.00501 	2.76686 	-9.58363e-20
18.4453 	0.0314646 	1.00501 	2.76686 	-9.58363e-20
18.5155 	0.0314646 	1.00501 	2.76686 	-9.58363e-20
18.5856 	0.0314646 	1.00501 	2.76686 	-9.58363e-20
18.6557 	0.0314646 	1.00501 	2.76686 	-9.58363e-20
18.7259 	0.0314646 	1.00501 	2.76686 	-9.58363e-20
18.796 	0.0314646 	1.00501 	2.76686 	-9.58363e-20
18.8662 	0.0972949 	1.04202 	2.82399 	-1.80243e-19
18.9363 	0.0972949 	1.04202 	2.82399 	-1.80243e-19
19.0064 	0.0972949 	1.04202 	2.82399 	-1.80243e-19
19.0766 	0.0972949 	1.04202 	2.82399 	-1.80243e-19
19.1467 	0.0972949 	1.04202 	2.82399 	-1.80243e-19
19.2168 	0.0972949 	1.04202 	2.82399 	-1.80243e-19
19.287 	0.0972949 	1.04202 	2.82399 	-1.80243e-19
19.3571 	0.0972949 	1.04202 	2.82399 	-1.80243e-19
19.4272 	0.0972949 	1.04202 	2.82399 	-1.80243e-19
19.4974 	0.0972949 	1.04202 	2.82399 	-1.80243e-19
19.5675 	0.0972949 	1.04202 	2.82399 	-1.80243e-19
19.6376 	0.0972949 	1.04202 	2.82399 	-1.80243e-19
19.7078 	0.0972949 	1.04202 	2.82399 	-1.80243e-19
19.7779 	0.244265 	0.99047 	2.45016 	-1.15672e-19
19.848 	0.244265 	0.99047 	2.45016 	-1.15672e-19
19.9182 	0.244265 	0.99047 	2.45016 	-1.15672e-19
19.9883 	0.244265 	0.99047 	2.45016 	-1.15672e-19
20.0584 	0.244265 	0.99047 	2.45016 	-1.15672e-19
20.1286 	0.244265 	0.99047 	2.45016 	-1.15672e-19
20.1987 	0.244265 	0.99047 	2.45016 	-1.15672e-19
20.2688 	0.238627 	0.995221 	2.44436 	3.14273e-19
20.339 	0.238627 	0.995221 	2.44436 	3.14273e-19
20.4091 	0.238627 	0.995221 	2.44436 	3.14273e-19
20.4792 	0.238627 	0.995221 	2.44436 	3.14273e-19
20.5494 	0.238627 	0.995221 	2.44436 	3.14273e-19
20.6195 	0.238627 	0.995221 	2.44436 	3.14273e-19
20.6896 	0.238627 	0.995221 	2.44436 	3.14273e-19
20.7598 	0.238627 	0.995221 	2.44436 	3.14273e-19
20.8299 	0.238627 	0.995221 	2.44436 	3.14273e-19
20.9 	0.238627 	0.995221 	2.44436 	3.14273e-19
20.9702 	0.238627 	0.995221 	2.44436 	3.14273e-19
21.0403 	0.238627 	0.995221 	2.44436 	3.14273e-19
21.1105 	0.238627 	0.995221 	2.44436 	3.14273e-19
21.1806 	0.238627 	0.995221 	2.44436 	3.14273e-19
21.2507 	0.238627 	0.995221 	2.44436 	3.14273e-19
21.3209 	0.238627 	0.995221 	2.44436 	3.14273e-19
21.391 	0.238627 	0.995221 	2.44436 	3.14273e-19
21.4611 	0.251803 	0.700392 	1.9089 	-4.23081e-19
21.5313 	0.251803 	0.700392 	1.9089 	-4.23081e-19
21.6014 	0.251803 	0.700392 	1.9089 	-4.23081e-19
21.6715 	0.145359 	0.613039 	1.4118 	-5.08037e-20
21.7417 	0.145359 	0.613039 	1.4118 	-5.08037e-20
21.8118 	0.145359 	0.613039 	1.4118 	-5.08037e-20
21.8819 	0.145359 	0.613039 	1.4118 	-5.08037e-20
21.9521 	0.145359 	0.613039 	1.4118 	-5.08037e-20
22.0222 	0.014971 	0.932078 	2.34701 	1.16544e-19
22.0923 	0.014971 	0.932078 	2.34701 	1.16544e-19
22.1625 	0.014971 	0.932078 	2.34701 	1.16544e-19
22.2326 	0.014971 	0.932078 	2.34701 	1.16544e-19
22.3027 	0.014971 	0.932078 	2.34701 	1.16544e-19
22.3729 	0.014971 	0.932078 	2.34701 	1.16544e-19
22.443 	0.014971 	0.932078 	2.34701 	1.16544e-19
22.5131 	0.014971 	0.932078 	2.34701 	1.16544e-19
22.5833 	0.014971 	0.932078 	2.34701 	1.16544e-19
22.6534 	0.014971 	0.932078 	2.34701 	1.16544e-19
22.7235 	0.014971 	0.932078 	2.34701 	1.16544e-19
22.7937 	0.014971 	0.932078 	2.34701 	1.16544e-19
22.8638 	0.014971 	0.932078 	2.34701 	1.16544e-19
22.9339 	0.014971 	0.932078 	2.34701 	1.16544e-19
23.0041 	0.014971 	0.932078 	2.34701 	1.16544e-19
23.0742 	0.014971 	0.932078 	2.34701 	1.16544e-19
23.1443 	0.014971 	0.932078 	2.34701 	1.16544e-19
23.2145 	0.014971 	0.932078 	2.34701 	1.16544e-19
23.2846 	0.014971 	0.932078 	2.34701 	1.16544e-19
23.3548 	0.014971 	0.932078 	2.34701 	1.16544e-19
23.4249 	0.014971 	0.932078 	2.34701 	1.16544e-19
23.495 	0.202581 	0.899783 	2.32473 	-8.8646e-20
23.5652 	0.202581 	0.899783 	2.32473 	-8.8646e-20
23.6353 	0.202581 	0.899783 	2.32473 	-8.8646e-20
23.7054 	0.202581 	0.899783 	2.32473 	-8.8646e-20
23.7756 	0.202581 	0.899783 	2.32473 	-8.8646e-20
23.8457 	0.202581 	0.899783 	2.32473 	-8.8646e-20
23.9158 	0.202581 	0.899783 	2.32473 	-8.8646e-20
23.986 	0.332321 	0.838362 	2.18987 	4.04456e-21
24.0561 	0.332321 	0.838362 	2.18987 	4.04456e-21
24.1262 	0.332321 	0.838362 	2.18987 	4.04456e-21
24.1964 	0.332321 	0.838362 	2.18987 	4.04456e-21
24.2665 	0.332321 	0.838362 	2.18987 	4.04456e-21
24.3366 	0.332321 	0.838362 	2.18987 	4.04456e-21
24.4068 	0.332321 	0.838362 	2.18987 	4.04456e-21
24.4769 	0.332321 	0.838362 	2.18987 	4.04456e-21
24.547 	0.332321 	0.838362 	2.18987 	4.04456e-21
24.6172 	0.332321 	0.838362 	2.18987 	4.04456e-21
24.6873 	0.332321 	0.838362 	2.18987 	4.04456e-21
24.7574 	0.332321 	0.838362 	2.18987 	4.04456e-21
24.8276 	0.332321 	0.838362 	2.18987 	4.04456e-21
24.8977 	0.332321 	0.838362 	2.18987 	4.04456e-21
24.9678 	0.332321 	0.838362 	2.18987 	4.04456e-21
25.038 	0.332321 	0.838362 	2.18987 	4.04456e-21
25.1081 	0.332321 	0.838362 	2.18987 	4.04456e-21
25.1782 	0.279809 	0.495658 	1.35368 	0
25.2484 	0.279809 	0.495658 	1.35368 	0
25.3185 	0.279809 	0.495658 	1.35368 	0
25.3886 	0.279809 	0.495658 	1.35368 	0
25.4588 	0.279809 	0.495658 	1.35368 	0
25.5289 	0.279809 	0.495658 	1.35368 	0
25.5991 	0.279809 	0.495658 	1.35368 	0
25.6692 	0.279809 	0.495658 	1.35368 	0
25.7393 	0.279809 	0.495658 	1.35368 	0
25.8095 	0.279809 	0.495658 	1.35368 	0
25.8796 	0.279809 	0.495658 	1.35368 	0
25.9497 	0.279809 	0.495658 	1.35368 	0
26.0199 	0.279809 	0.495658 	1.35368 	0
26.09 	0.279809 	0.495658 	1.35368 	0
26.1601 	0.279809 	0.495658 	1.35368 	0
26.2303 	0.186396 	0.494799 	1.37171 	-3.10015e-19
26.3004 	0.186396 	0.494799 	1.37171 	-3.10015e-19
26.3705 	0.186396 	0.494799 	1.37171 	-3.10015e-19
26.4407 	0.186396 	0.494799 	1.37171 	-3.10015e-19
26.5108 	0.186396 	0.494799 	1.37171 	-3.10015e-19
26.5809 	0.186396 	0.494799 	1.37171 	-3.10015e-19
26.6511 	0.186396 	0.494799 	1.37171 	-3.10015e-19
26.7212 	0.186396 	0.494799 	1.37171 	-3.10015e-19
26.7913 	0.186396 	0.494799 	1.37171 	-3.10015e-19
26.8615 	0.186396 	0.494799 	1.37171 	-3.10015e-19
26.9316 	0.186396 	0.494799 	1.37171 	-3.10015e-19
27.0017 	0.186396 	0.494799 	1.37171 	-3.10015e-19
27.0719 	0.186396 	0.494799 	1.37171 	-3.10015e-19
27.142 	0.186396 	0.494799 	1.37171 	-3.10015e-19
27.2121 	0.186396 	0.494799 	1.37171 	-3.10015e-19
27.2823 	0.186396 	0.494799 	1.37171 	-3.10015e-19
27.3524 	0.128309 	0.488958 	1.37457 	3.39569e-19
27.4225 	0.128309 	0.488958 	1.37457 	3.39569e-19
27.4927 	0.128309 	0.488958 	1.37457 	3.39569e-19
27.5628 	0.128309 	0.488958 	1.37457 	3.39569e-19
27.6329 	0.128309 	0.488958 	1.37457 	3.39569e-19
27.7031 	0.128309 	0.488958 	1.37457 	3.39569e-19
27.7732 	0.128309 	0.488958 	1.37457 	3.39569e-19
27.8434 	0.128309 	0.488958 	1.37457 	3.39569e-19
27.9135 	0.128309 	0.488958 	1.37457 	3.39569e-19
27.9836 	0.128309 	0.488958 	1.37457 	3.39569e-19
28.0538 	0.128309 	0.488958 	1.37457 	3.39569e-19
28.1239 	0.128309 	0.488958 	1.37457 	3.39569e-19
28.194 	0.128309 	0.488958 	1.37457 	3.39569e-19
28.2642 	0.128309 	0.488958 	1.37457 	3.39569e-19
28.3343 	0.128309 	0.488958 	1.37457 	3.39569e-19
28.4044 	0.128309 	0.488958 	1.37457 	3.39569e-19
28.4746 	0.128309 	0.488958 	1.37457 	3.39569e-19
28.5447 	0.128309 	0.488958 	1.37457 	3.39569e-19
28.6148 	0.128309 	0.488958 	1.37457 	3.39569e-19
28.685 	0.128309 	0.488958 	1.37457 	3.39569e-19
28.7551 	0.128309 	0.488958 	1.37457 	3.39569e-19
28.8252 	0.128309 	0.488958 	1.37457 	3.39569e-19
28.8954 	0.128309 	0.488958 	1.37457 	3.39569e-19
28.9655 	0.0820733 	0.431905 	1.29195 	9.95563e-21
29.0356 	0.0820733 	0.431905 	1.29195 	9.95563e-21
29.1058 	0.0820733 	0.431905 	1.29195 	9.95563e-21
29.1759 	0.0820733 	0.431905 	1.29195 	9.95563e-21
29.246 	0.0820733 	0.431905 	1.29195 	9.95563e-21
29.3162 	0.0820733 	0.431905 	1.29195 	9.95563e-21
29.3863 	0.0820733 	0.431905 	1.29195 	9.95563e-21
29.4564 	0.0820733 	0.431905 	1.29195 	9.95563e-21
29.5266 	0.0820733 	0.431905 	1.29195 	9.95563e-21
29.5967 	0.0820733 	0.431905 	1.29195 	9.95563e-21
29.6668 	0.0820733 	0.431905 	1.29195 	9.95563e-21
29.737 	0.0820733 	0.431905 	1.29195 	9.95563e-21
29.8071 	0.0820733 	0.431905 	1.29195 	9.95563e-21
29.8773 	0.0820733 	0.431905 	1.29195 	9.95563e-21
29.9474 	0.0820733 	0.431905 	1.29195 	9.95563e-21
30.0175 	0.0820733 	0.431905 	1.29195 	9.95563e-21
30.0877 	0.0820733 	0.431905 	1.29195 	9.95563e-21
30.1578 	0.0820733 	0.431905 	1.29195 	9.95563e-21
30.2279 	0.0820733 	0.431905 	1.29195 	9.95563e-21
30.2981 	0.0820733 	0.431905 	1.29195 	9.95563e-21
30.3682 	0.0820733 	0.431905 	1.29195 	9.95563e-21
30.4383 	0.0820733 	0.431905 	1.29195 	9.95563e-21
30.5085 	0.0820733 	0.431905 	1.29195 	9.95563e-21
30.5786 	0.0820733 	0.431905 	1.29195 	9.95563e-21
30.6487 	0.0820733 	0.431905 	1.29195 	9.95563e-21
30.7189 	0.0820733 	0.431905 	1.29195 	9.95563e-21
30.789 	0.0768363 	0.36689 	1.29765 	-1.22203e-19
30.8591 	0.0768363 	0.36689 	1.29765 	-1.22203e-19
30.9293 	0.0768363 	0.36689 	1.29765 	-1.22203e-19
30.9994 	0.0768363 	0.36689 	1.29765 	-1.22203e-19
31.0695 	0.0768363 	0.36689 	1.29765 	-1.22203e-19
31.1397 	0.0768363 	0.36689 	1.29765 	-1.22203e-19
31.2098 	0.0768363 	0.36689 	1.29765 	-1.22203e-19
31.2799 	0.0768363 	0.36689 	1.29765 	-1.22203e-19
31.3501 	0.0768363 	0.36689 	1.29765 	-1.22203e-19
31.4202 	0.0768363 	0.36689 	1.29765 	-1.22203e-19
31.4903 	0.0768363 	0.36689 	1.29765 	-1.22203e-19
31.5605 	0.0768363 	0.36689 	1.29765 	-1.22203e-19
31.6306 	0.0768363 	0.36689 	1.29765 	-1.22203e-19
31.7007 	0.0768363 	0.36689 	1.29765 	-1.22203e-19
31.7709 	0.0768363 	0.36689 	1.29765 	-1.22203e-19
31.841 	0.0768363 	0.36689 	1.29765 	-1.22203e-19
31.9111 	0.0768363 	0.36689 	1.29765 	-1.22203e-19
31.9813 	0.0768363 	0.36689 	1.29765 	-1.22203e-19
32.0514 	0.0768363 	0.36689 	1.29765 	-1.22203e-19
32.1216 	0.0768363 	0.36689 	1.29765 	-1.22203e-19
32.1917 	0.0768363 	0.36689 	1.29765 	-1.22203e-19
32.2618 	0.0768363 	0.36689 	1.29765 	-1.22203e-19
32.332 	0.0768363 	0.36689 	1.29765 	-1.22203e-19
32.4021 	0.0768363 	0.36689 	1.29765 	-1.22203e-19
32.4722 	0.0768363 	0.36689 	1.29765 	-1.22203e-19
32.5424 	0.0768363 	0.36689 	1.29765 	-1.22203e-19
32.6125 	0.0768363 	0.36689 	1.29765 	-1.22203e-19
32.6826 	0.0768363 	0.36689 	1.29765 	-1.22203e-19
32.7528 	0.0768363 	0.36689 	1.29765 	-1.22203e-19
32.8229 	0.0768363 	0.36689 	1.29765 	-1.22203e-19
32.893 	0.0768363 	0.36689 	1.29765 	-1.22203e-19
32.9632 	0.0768363 	0.36689 	1.29765 	-1.22203e-19
33.0333 	0.0768363 	0.36689 	1.29765 	-1.22203e-19
33.1034 	0.0768363 	0.36689 	1.29765 	-1.22203e-19
33.1736 	0.0768363 	0.36689 	1.29765 	-1.22203e-19
33.2437 	0.0768363 	0.36689 	1.29765 	-1.22203e-19
33.3138 	0.0768363 	0.36689 	1.29765 	-1.22203e-19
33.384 	0.0768363 	0.36689 	1.29765 	-1.22203e-19
33.4541 	0.0768363 	0.36689 	1.29765 	-1.22203e-19
33.5242 	0.0768363 	0.36689 	1.29765 	-1.22203e-19
33.5944 	0.0768363 	0.36689 	1.29765 	-1.22203e-19
33.6645 	0.0768363 	0.36689 	1.29765 	-1.22203e-19
33.7346 	0.0370468 	0.364969 	1.36896 	6.62372e-20
33.8048 	0.0370468 	0.364969 	1.36896 	6.62372e-20
33.8749 	0.0370468 	0.364969 	1.36896 	6.62372e-20
33.945 	0.0370468 	0.364969 	1.36896 	6.62372e-20
34.0152 	0.0370468 	0.364969 	1.36896 	6.62372e-20
34.0853 	0.0370468 	0.364969 	1.36896 	6.62372e-20
34.1554 	0.0334837 	0.273093 	1.32317 	-1.33815e-19
34.2256 	0.0334837 	0.273093 	1.32317 	-1.33815e-19
34.2957 	0.0334837 	0.273093 	1.32317 	-1.33815e-19
34.3659 	0.0334837 	0.273093 	1.32317 	-1.33815e-19
34.436 	0.0334837 	0.273093 	1.32317 	-1.33815e-19
34.5061 	0.0334837 	0.273093 	1.32317 	-1.33815e-19
34.5763 	0.0334837 	0.273093 	1.32317 	-1.33815e-19
34.6464 	0.0334837 	0.273093 	1.32317 	-1.33815e-19
34.7165 	0.236153 	0.261843 	1.61632 	1.36648e-19
34.7867 	0.236153 	0.261843 	1.61632 	1.36648e-19
34.8568 	0.236153 	0.261843 	1.61632 	1.36648e-19
34.9269 	0.236153 	0.261843 	1.61632 	1.36648e-19
34.9971 	0.236153 	0.261843 	1.61632 	1.36648e-19
35.0672 	0.236153 	0.261843 	1.61632 	1.36648e-19
35.1373 	0.236153 	0.261843 	1.61632 	1.36648e-19
35.2075 	0.236153 	0.261843 	1.61632 	1.36648e-19
35.2776 	0.236153 	0.261843 	1.61632 	1.36648e-19
35.3477 	0.236153 	0.261843 	1.61632 	1.36648e-19
35.4179 	0.236153 	0.261843 	1.61632 	1.36648e-19
35.488 	0.236153 	0.261843 	1.61632 	1.36648e-19
35.5581 	0.236153 	0.261843 	1.61632 	1.36648e-19
35.6283 	0.236153 	0.261843 	1.61632 	1.36648e-19
35.6984 	0.236153 	0.261843 	1.61632 	1.36648e-19
35.7685 	0.236153 	0.261843 	1.61632 	1.36648e-19
35.8387 	0.236153 	0.261843 	1.61632 	1.36648e-19
35.9088 	0.236153 	0.261843 	1.61632 	1.36648e-19
35.9789 	0.236153 	0.261843 	1.61632 	1.36648e-19
36.0491 	0.210963 	0.240906 	1.57639 	0
36.1192 	0.210963 	0.240906 	1.57639 	0
36.1893 	0.210963 	0.240906 	1.57639 	0
36.2595 	0.210963 	0.240906 	1.57639 	0
36.3296 	0.210963 	0.240906 	1.57639 	0
36.3997 	0.210963 	0.240906 	1.57639 	0
36.4699 	0.210963 	0.240906 	1.57639 	0
36.54 	0.210963 	0.240906 	1.57639 	0
36.6102 	0.210963 	0.240906 	1.57639 	0
36.6803 	0.210963 	0.240906 	1.57639 	0
36.7504 	0.210963 	0.240906 	1.57639 	0
36.8206 	0.210963 	0.240906 	1.57639 	0
36.8907 	0.0845152 	0.18738 	1.44968 	9.34641e-20
36.9608 	0.0845152 	0.18738 	1.44968 	9.34641e-20
37.031 	0.0845152 	0.18738 	1.44968 	9.34641e-20
37.1011 	0.0845152 	0.18738 	1.44968 	9.34641e-20
37.1712 	0.0845152 	0.18738 	1.44968 	9.34641e-20
37.2414 	0.0845152 	0.18738 	1.44968 	9.34641e-20
37.3115 	0.0845152 	0.18738 	1.44968 	9.34641e-20
37.3816 	0.0845152 	0.18738 	1.44968 	9.34641e-20
37.4518 	0.0845152 	0.18738 	1.44968 	9.34641e-20
37.5219 	0.0845152 	0.18738 	1.44968 	9.34641e-20
37.592 	0.0845152 	0.18738 	1.44968 	9.34641e-20
37.6622 	0.0845152 	0.18738 	1.44968 	9.34641e-20
37.7323 	0.0845152 	0.18738 	1.44968 	9.34641e-20
37.8024 	0.0845152 	0.18738 	1.44968 	9.34641e-20
37.8726 	0.0845152 	0.18738 	1.44968 	9.34641e-20
37.9427 	0.0845152 	0.18738 	1.44968 	9.34641e-20
38.0128 	0.0845152 	0.18738 	1.44968 	9.34641e-20
38.083 	0.0845152 	0.18738 	1.44968 	9.34641e-20
38.1531 	0.0845152 	0.18738 	1.44968 	9.34641e-20
38.2232 	0.10882 	0.132139 	1.59277 	-1.07182e-19
38.2934 	0.10882 	0.132139 	1.59277 	-1.07182e-19
38.3635 	0.10882 	0.132139 	1.59277 	-1.07182e-19
38.4336 	0.10882 	0.132139 	1.59277 	-1.07182e-19
38.5038 	0.10882 	0.132139 	1.59277 	-1.07182e-19
38.5739 	0.10882 	0.132139 	1.59277 	-1.07182e-19
38.644 	0.10882 	0.132139 	1.59277 	-1.07182e-19
38.7142 	0.10882 	0.132139 	1.59277 	-1.07182e-19
38.7843 	0.10882 	0.132139 	1.59277 	-1.07182e-19
38.8545 	0.10882 	0.132139 	1.59277 	-1.07182e-19
38.9246 	0.10882 	0.132139 	1.59277 	-1.07182e-19
38.9947 	0.10882 	0.132139 	1.59277 	-1.07182e-19
39.0649 	0.10882 	0.132139 	1.59277 	-1.07182e-19
39.135 	0.10882 	0.132139 	1.59277 	-1.07182e-19
39.2051 	0.0712914 	0.116643 	1.56479 	0
39.2753 	0.0712914 	0.116643 	1.56479 	0
39.3454 	0.0712914 	0.116643 	1.56479 	0
39.4155 	0.0712914 	0.116643 	1.56479 	0
39.4857 	0.0712914 	0.116643 	1.56479 	0
39.5558 	0.0712914 	0.116643 	1.56479 	0
39.6259 	0.0712914 	0.116643 	1.56479 	0
39.6961 	0.0712914 	0.116643 	1.56479 	0
39.7662 	0.0712914 	0.116643 	1.56479 	0
39.8363 	0.0712914 	0.116643 	1.56479 	0
39.9065 	0.0712914 	0.116643 	1.56479 	0
39.9766 	0.0712914 	0.116643 	1.56479 	0
40.0467 	0.0712914 	0.116643 	1.56479 	0
40.1169 	0.0712914 	0.116643 	1.56479 	0
40.187 	0.0712914 	0.116643 	1.56479 	0
40.2571 	0.0712914 	0.116643 	1.56479 	0
40.3273 	0.0712914 	0.116643 	1.56479 	0
40.3974 	0.0712914 	0.116643 	1.56479 	0
40.4675 	0.0712914 	0.116643 	1.56479 	0
40.5377 	0.0712914 	0.116643 	1.56479 	0
40.6078 	0.0712914 	0.116643 	1.56479 	0
40.6779 	0.0559539 	0.112484 	1.50488 	-3.25071e-20
40.7481 	0.0559539 	0.112484 	1.50488 	-3.25071e-20
40.8182 	0.0559539 	0.112484 	1.50488 	-3.25071e-20
40.8883 	0.0559539 	0.112484 	1.50488 	-3.25071e-20
40.9585 	0.0559539 	0.112484 	1.50488 	-3.25071e-20
41.0286 	0.0559539 	0.112484 	1.50488 	-3.25071e-20
41.0988 	0.0559539 	0.112484 	1.50488 	-3.25071e-20
41.1689 	0.0559539 	0.112484 	1.50488 	-3.25071e-20
41.239 	0.0559422 	0.0870495 	1.52295 	6.09931e-20
41.3092 	0.0559422 	0.0870495 	1.52295 	6.09931e-20
41.3793 	0.0559422 	0.0870495 	1.52295 	6.09931e-20
41.4494 	0.0559422 	0.0870495 	1.52295 	6.09931e-20
41.5196 	0.0559422 	0.0870495 	1.52295 	6.09931e-20
41.5897 	0.0559422 	0.0870495 	1.52295 	6.09931e-20
41.6598 	0.0559422 	0.0870495 	1.52295 	6.09931e-20
41.73 	0.0559422 	0.0870495 	1.52295 	6.09931e-20
41.8001 	0.0559422 	0.0870495 	1.52295 	6.09931e-20
41.8702 	0.0559422 	0.0870495 	1.52295 	6.09931e-20
41.9404 	0.0559422 	0.0870495 	1.52295 	6.09931e-20
42.0105 	0.0559422 	0.0870495 	1.52295 	6.09931e-20
42.0806 	0.0559422 	0.0870495 	1.52295 	6.09931e-20
42.1508 	0.0559422 	0.0870495 	1.52295 	6.09931e-20
42.2209 	0.0559422 	0.0870495 	1.52295 	6.09931e-20
42.291 	0.0559422 	0.0870495 	1.52295 	6.09931e-20
42.3612 	0.0559422 	0.0870495 	1.52295 	6.09931e-20
42.4313 	0.0559422 	0.0870495 	1.52295 	6.09931e-20
42.5014 	0.0559422 	0.0870495 	1.52295 	6.09931e-20
42.5716 	0.0559422 	0.0870495 	1.52295 	6.09931e-20
42.6417 	0.0559422 	0.0870495 	1.52295 	6.09931e-20
42.7118 	0.0445249 	0.0857751 	1.50416 	0
42.782 	0.0445249 	0.0857751 	1.50416 	0
42.8521 	0.0445249 	0.0857751 	1.50416 	0
42.9222 	0.0445249 	0.0857751 	1.50416 	0
42.9924 	0.0625637 	0.0456672 	1.57141 	0
43.0625 	0.0625637 	0.0456672 	1.57141 	0
43.1327 	0.0625637 	0.0456672 	1.57141 	0
43.2028 	0.0625637 	0.0456672 	1.57141 	0
43.2729 	0.0625637 	0.0456672 	1.57141 	0
43.3431 	0.0625637 	0.0456672 	1.57141 	0
43.4132 	0.0625637 	0.0456672 	1.57141 	0
43.4833 	0.0625637 	0.0456672 	1.57141 	0
43.5535 	0.0625637 	0.0456672 	1.57141 	0
43.6236 	0.0625637 	0.0456672 	1.57141 	0
43.6937 	0.0625637 	0.0456672 	1.57141 	0
43.7639 	0.0625637 	0.0456672 	1.57141 	0