/*--------------------------------*- C++ -*----------------------------------*\
| =========                 |                                                 |
| \\      /  F ield         | OpenFOAM: The Open Source CFD Toolbox           |
|  \\    /   O peration     | Version:  2306                                  |
|   \\  /    A nd           | Website:  www.openfoam.com                      |
|    \\/     M anipulation  |                                                 |
\*---------------------------------------------------------------------------*/
FoamFile
{
    version     2.0;
    format      ascii;
    arch        "LSB;label=32;scalar=64";
    class       volScalarField;
    location    "74";
    object      p;
}
// * * * * * * * * * * * * * * * * * * * * * * * * * * * * * * * * * * * * * //

dimensions      [0 2 -2 0 0 0 0];

internalField   nonuniform List<scalar> 
8800
(
0.818889
0.77084
0.732466
0.703828
0.68321
0.668466
0.657877
0.650394
0.645586
0.643566
0.644895
0.649152
0.655861
0.66523
0.678007
0.695611
0.720066
0.753686
0.796139
0.853266
0.651411
0.658619
0.66706
0.670479
0.668569
0.663054
0.656353
0.650208
0.645476
0.642657
0.642431
0.645004
0.649566
0.655601
0.662539
0.669178
0.673324
0.672818
0.666764
0.657795
0.628101
0.63428
0.638483
0.641849
0.644357
0.645165
0.644071
0.641948
0.639944
0.639083
0.640109
0.642563
0.645442
0.647695
0.648254
0.646743
0.64391
0.640284
0.635755
0.631971
0.622938
0.62564
0.628365
0.630683
0.632338
0.633676
0.634602
0.634831
0.634604
0.634621
0.635441
0.636659
0.637499
0.637476
0.63671
0.635538
0.633806
0.631318
0.628901
0.627371
0.617707
0.61913
0.620935
0.622997
0.624761
0.626081
0.627127
0.628031
0.628751
0.629409
0.630132
0.630656
0.630743
0.630436
0.629773
0.628596
0.626919
0.625055
0.623741
0.622917
0.612648
0.613563
0.614805
0.616396
0.618061
0.619603
0.6209
0.622013
0.623061
0.624056
0.62483
0.625213
0.625216
0.624833
0.624002
0.622817
0.621491
0.620242
0.619428
0.618883
0.607716
0.608382
0.609346
0.610657
0.612088
0.613582
0.61506
0.616425
0.617691
0.618898
0.619826
0.620286
0.620281
0.619831
0.619056
0.618131
0.617145
0.616241
0.615664
0.615263
0.602884
0.603397
0.604184
0.605325
0.60662
0.608024
0.609516
0.611048
0.612555
0.614001
0.615136
0.615722
0.615785
0.615462
0.614906
0.61422
0.613482
0.612819
0.612395
0.612081
0.598084
0.598492
0.599153
0.600173
0.601399
0.602757
0.604249
0.605875
0.607593
0.609322
0.610719
0.611509
0.611776
0.611687
0.611367
0.610902
0.610372
0.609905
0.609592
0.609336
0.593233
0.593565
0.594138
0.595081
0.596262
0.597611
0.599144
0.600874
0.602793
0.604831
0.606566
0.607669
0.608231
0.608411
0.608334
0.6081
0.607772
0.607469
0.60724
0.607025
0.588239
0.588515
0.589028
0.589926
0.591094
0.592473
0.594087
0.595968
0.59813
0.600523
0.602685
0.604192
0.605107
0.605594
0.605783
0.605787
0.60566
0.605501
0.605341
0.605154
0.583013
0.583244
0.583719
0.584605
0.585799
0.587251
0.58899
0.591078
0.593549
0.596384
0.599067
0.60106
0.602388
0.603228
0.603716
0.603962
0.604044
0.604022
0.603918
0.60375
0.577459
0.577656
0.578112
0.579014
0.580275
0.581846
0.583766
0.586129
0.588994
0.59238
0.595696
0.598265
0.600079
0.601323
0.602148
0.602665
0.602968
0.603072
0.603016
0.602861
0.571473
0.571641
0.572096
0.573043
0.574414
0.576155
0.578323
0.581039
0.584405
0.58847
0.59255
0.595809
0.598196
0.599908
0.601121
0.60196
0.602486
0.602714
0.602699
0.602551
0.56493
0.565074
0.565544
0.566565
0.568092
0.570064
0.572557
0.575726
0.579714
0.584612
0.589617
0.593699
0.596766
0.599031
0.600687
0.601878
0.602663
0.603021
0.603043
0.602899
0.557689
0.55781
0.558307
0.559433
0.561167
0.563439
0.566347
0.570088
0.574851
0.580764
0.586883
0.591948
0.595818
0.598736
0.600916
0.602517
0.60359
0.604083
0.604139
0.603993
0.549557
0.549667
0.550203
0.551467
0.553465
0.556115
0.559553
0.564012
0.56973
0.576881
0.584338
0.590573
0.595392
0.599076
0.601887
0.603966
0.605363
0.605997
0.606084
0.605934
0.540302
0.540401
0.540999
0.542427
0.544759
0.547901
0.552008
0.557362
0.56426
0.572917
0.581979
0.589599
0.595537
0.600124
0.603678
0.60632
0.608082
0.608865
0.608979
0.60882
0.529599
0.52968
0.530364
0.532023
0.534793
0.538562
0.54351
0.549986
0.558342
0.568829
0.579808
0.589057
0.596311
0.601959
0.606363
0.609671
0.611843
0.612778
0.612915
0.612742
0.517062
0.517128
0.517914
0.519886
0.523217
0.527788
0.53381
0.541704
0.551872
0.564583
0.577836
0.58899
0.597761
0.604645
0.610043
0.614113
0.616726
0.61781
0.617961
0.617773
0.502122
0.502177
0.503108
0.505497
0.509568
0.515193
0.522612
0.532319
0.544752
0.560158
0.576088
0.589441
0.599945
0.608241
0.614783
0.619701
0.622776
0.623994
0.624148
0.62394
0.483984
0.484028
0.485175
0.488153
0.493238
0.500288
0.509567
0.52163
0.536905
0.555566
0.574611
0.590464
0.602923
0.612802
0.620597
0.626457
0.629983
0.631301
0.631441
0.631213
0.461463
0.461505
0.463002
0.466867
0.473413
0.482467
0.494297
0.509471
0.528321
0.550877
0.573492
0.592123
0.606731
0.618353
0.627507
0.634335
0.638255
0.639615
0.63972
0.639472
0.43275
0.432815
0.434914
0.440214
0.44904
0.461044
0.476475
0.495783
0.519099
0.546243
0.572864
0.594505
0.611402
0.624863
0.635466
0.643208
0.647393
0.648708
0.648756
0.648492
0.394741
0.394917
0.398254
0.406204
0.418875
0.435419
0.455988
0.480727
0.509501
0.541918
0.572902
0.597704
0.616969
0.632293
0.644356
0.652838
0.657082
0.658243
0.658215
0.657943
0.341483
0.342518
0.349176
0.362601
0.381973
0.405538
0.433203
0.4648
0.499988
0.53824
0.573798
0.601806
0.623428
0.640584
0.653947
0.662874
0.666895
0.667801
0.667695
0.667425
0.264041
0.271595
0.286955
0.31055
0.339901
0.372857
0.409172
0.448636
0.490907
0.535443
0.575857
0.60725
0.631396
0.650486
0.66501
0.674098
0.677714
0.678351
0.678196
0.677965
0.181162
0.198491
0.22335
0.25784
0.297631
0.340095
0.385084
0.432551
0.482227
0.533612
0.579631
0.615039
0.642107
0.663385
0.679058
0.68778
0.690602
0.690947
0.690817
0.690658
0.111353
0.131944
0.164736
0.208518
0.257523
0.30895
0.362364
0.417683
0.474598
0.53258
0.583859
0.622904
0.652484
0.675402
0.691449
0.699398
0.701646
0.701922
0.701844
0.701719
0.0541363
0.0766163
0.114977
0.165326
0.22157
0.280528
0.341395
0.403922
0.467634
0.531875
0.588086
0.63047
0.662228
0.686355
0.702546
0.710055
0.712049
0.712319
0.712282
0.712186
0.00666652
0.0303883
0.0725755
0.128118
0.190156
0.255321
0.322566
0.391487
0.461423
0.531534
0.592429
0.637969
0.671766
0.697088
0.713553
0.720799
0.722639
0.722939
0.722947
0.722869
-0.0334994
-0.00909139
0.0360085
0.0956354
0.162565
0.233015
0.305797
0.380406
0.456027
0.531634
0.597013
0.645613
0.681449
0.707965
0.724799
0.732015
0.733899
0.73416
0.734188
0.734131
-0.0684194
-0.0435832
0.00380583
0.0668182
0.137887
0.212949
0.29066
0.370417
0.451289
0.532086
0.601798
0.653431
0.691311
0.719053
0.73645
0.743943
0.745821
0.746092
0.746127
0.746087
-0.099616
-0.0744235
-0.0251706
0.0407303
0.115378
0.194498
0.27665
0.361132
0.446919
0.532682
0.606614
0.661252
0.7012
0.730283
0.748404
0.756177
0.758174
0.758431
0.758461
0.758434
-0.128098
-0.102601
-0.0517562
0.016647
0.0944411
0.177175
0.263344
0.35219
0.44262
0.533166
0.611248
0.668878
0.710927
0.741343
0.760205
0.768339
0.770445
0.770694
0.770712
0.770695
-0.154692
-0.128854
-0.0766146
-0.00599964
0.0746189
0.160594
0.250413
0.343299
0.438119
0.533305
0.615507
0.676133
0.720243
0.752005
0.771564
0.780047
0.782292
0.782548
0.782528
0.782512
-0.179804
-0.153626
-0.100032
-0.027605
0.0555767
0.144469
0.237608
0.334236
0.433217
0.532932
0.619243
0.68287
0.729019
0.762054
0.782242
0.791024
0.793353
0.793588
0.793534
0.793509
-0.203916
-0.177314
-0.122685
-0.0483853
0.0370697
0.128584
0.224754
0.324848
0.427767
0.531895
0.622341
0.689022
0.737195
0.771404
0.792091
0.801034
0.803405
0.803614
0.803524
0.803486
-0.22717
-0.200094
-0.144561
-0.0685374
0.0189346
0.112808
0.211735
0.315028
0.421655
0.530082
0.62472
0.694562
0.744783
0.780057
0.801056
0.810059
0.812381
0.812552
0.812431
0.812378
-0.24972
-0.222272
-0.16571
-0.0881947
0.00108282
0.0970735
0.198483
0.304702
0.414805
0.527405
0.626302
0.699482
0.751847
0.788101
0.809245
0.818095
0.820333
0.820445
0.820294
0.820228
-0.271734
-0.243792
-0.186261
-0.107421
-0.0165377
0.0813441
0.18498
0.293855
0.407179
0.523788
0.627008
0.703772
0.758507
0.795743
0.81681
0.825291
0.82731
0.827358
0.827192
0.827116
-0.293252
-0.264728
-0.206314
-0.126241
-0.0339215
0.0656198
0.171237
0.282496
0.398768
0.51917
0.626761
0.707418
0.764869
0.80319
0.82398
0.831801
0.833449
0.833401
0.833218
0.833138
-0.314165
-0.285086
-0.225813
-0.144649
-0.0510612
0.0499412
0.157292
0.270668
0.389595
0.513542
0.62547
0.710357
0.770992
0.810721
0.831127
0.837895
0.838872
0.83865
0.838475
0.838402
-0.334448
-0.30484
-0.244762
-0.162612
-0.0679206
0.0343475
0.143212
0.258427
0.379715
0.506899
0.623058
0.712469
0.776869
0.818578
0.83877
0.844125
0.843876
0.843231
0.843093
0.843091
-0.35418
-0.323965
-0.263158
-0.180117
-0.084452
0.0189067
0.129068
0.245857
0.369196
0.499278
0.619444
0.713594
0.782369
0.826845
0.847498
0.851514
0.84932
0.847534
0.847358
0.847685
-0.373209
-0.342461
-0.28095
-0.197116
-0.100609
0.00369184
0.114946
0.233056
0.358138
0.49075
0.614578
0.713527
0.787234
0.835309
0.857607
0.861349
0.857332
0.853197
0.85164
0.851866
-0.391624
-0.360331
-0.298161
-0.213647
-0.11643
-0.0113392
0.100791
0.219968
0.346474
0.481246
0.608319
0.71199
0.791196
0.843568
0.868793
0.874328
0.870298
0.862867
0.854917
0.847
-0.409362
-0.377561
-0.314917
-0.229908
-0.132195
-0.026505
0.0862038
0.206136
0.333701
0.470177
0.600084
0.708284
0.793859
0.851177
0.879796
0.888996
0.885369
0.872119
0.850621
0.846582
-0.426261
-0.394186
-0.331047
-0.245725
-0.147585
-0.0414895
0.0713919
0.191869
0.320098
0.457756
0.589864
0.701759
0.794242
0.856862
0.886576
0.896224
0.893644
0.865915
0.800829
0.772605
-0.441864
-0.411534
-0.346199
-0.260627
-0.161752
-0.0557757
0.0566718
0.177419
0.305911
0.44412
0.577597
0.691956
0.790802
0.859566
0.884088
0.888398
0.870831
0.813495
0.744041
0.702636
-0.490538
-0.4278
-0.35987
-0.275571
-0.176088
-0.0706912
0.0420659
0.162551
0.290803
0.428808
0.562645
0.678167
0.77931
0.855262
0.861012
0.850835
0.794055
0.720194
0.642465
0.599447
-0.457651
-0.440827
-0.380339
-0.294914
-0.197782
-0.0924735
0.0193866
0.139272
0.266661
0.403476
0.535914
0.650561
0.744403
0.827862
0.808133
0.686487
0.578437
0.502463
0.428072
0.45706
-0.488006
-0.458173
-0.396487
-0.312015
-0.214794
-0.109568
0.00253798
0.121815
0.248217
0.383386
0.513271
0.624102
0.707813
0.752525
0.698599
0.542682
0.41291
0.320058
0.221638
0.269373
-0.510975
-0.478787
-0.415524
-0.330985
-0.233688
-0.128526
-0.0165085
0.101962
0.227005
0.359838
0.486023
0.590534
0.664484
0.672627
0.560293
0.385617
0.233209
0.114241
-0.0142736
0.0190626
-0.533394
-0.499923
-0.435438
-0.350068
-0.252737
-0.147745
-0.0362548
0.081253
0.204708
0.334753
0.456171
0.552308
0.610322
0.586316
0.421978
0.225287
0.0390669
-0.125547
-0.309717
-0.321006
-0.555301
-0.521435
-0.456112
-0.370043
-0.272604
-0.167866
-0.0570498
0.0593448
0.180918
0.307725
0.423547
0.511204
0.548866
0.486916
0.289966
0.0779662
-0.133448
-0.312183
-0.55757
-0.815957
-0.577527
-0.543666
-0.477879
-0.391379
-0.293799
-0.189264
-0.0790659
0.0361627
0.155713
0.278974
0.388729
0.467724
0.482425
0.368755
0.174005
-0.0399093
-0.244748
-0.409494
-0.487864
-0.593189
-0.601015
-0.567082
-0.501066
-0.414385
-0.316809
-0.212582
-0.103107
0.0107652
0.127941
0.247072
0.350263
0.41773
0.406467
0.258186
0.0696637
-0.127648
-0.296824
-0.38947
-0.412962
-0.429006
-0.626032
-0.591986
-0.525835
-0.439136
-0.341761
-0.238029
-0.12953
-0.0173379
0.0970078
0.211292
0.307484
0.359683
0.329596
0.154654
-0.0255293
-0.197987
-0.327901
-0.367174
-0.379082
-0.38028
-0.652785
-0.618545
-0.552247
-0.465632
-0.368607
-0.265609
-0.158358
-0.0481996
0.0628491
0.17164
0.259926
0.296607
0.24394
0.0592934
-0.111927
-0.264973
-0.342867
-0.36012
-0.361162
-0.360962
-0.681326
-0.646813
-0.580328
-0.493876
-0.397367
-0.295314
-0.189597
-0.0818369
0.0254764
0.128206
0.207557
0.23144
0.142338
-0.027714
-0.190644
-0.315195
-0.353083
-0.351015
-0.350456
-0.349896
-0.711367
-0.676639
-0.609979
-0.523787
-0.427958
-0.327096
-0.223222
-0.118225
-0.0150668
0.081111
0.151365
0.157832
0.0501955
-0.108261
-0.252765
-0.330611
-0.340915
-0.343374
-0.343832
-0.343549
-0.742368
-0.707519
-0.640963
-0.555142
-0.460199
-0.360801
-0.259083
-0.157237
-0.0585801
0.0307269
0.091969
0.0832536
-0.03296
-0.176659
-0.296038
-0.334888
-0.339773
-0.339904
-0.339533
-0.339218
-0.773861
-0.738904
-0.672821
-0.587551
-0.493751
-0.396112
-0.296901
-0.198587
-0.104767
-0.0221809
0.0283043
0.0116244
-0.108581
-0.232124
-0.324425
-0.338774
-0.335405
-0.336067
-0.336335
-0.336142
-0.804968
-0.770135
-0.704676
-0.620413
-0.528077
-0.432562
-0.336225
-0.241796
-0.153175
-0.0768642
-0.0367818
-0.0542923
-0.174616
-0.273064
-0.328743
-0.338219
-0.336407
-0.33515
-0.33465
-0.334502
-0.834165
-0.800105
-0.735567
-0.652801
-0.562419
-0.469456
-0.376402
-0.28616
-0.20303
-0.132721
-0.096801
-0.125483
-0.227895
-0.312691
-0.322335
-0.33525
-0.335967
-0.333958
-0.33336
-0.333051
-0.859823
-0.826823
-0.76446
-0.683569
-0.595746
-0.505865
-0.416574
-0.330807
-0.253169
-0.188971
-0.153462
-0.191591
-0.271338
-0.335969
-0.356249
-0.34578
-0.339806
-0.337533
-0.336598
-0.336
-0.879845
-0.848551
-0.789032
-0.711358
-0.626781
-0.540667
-0.455661
-0.374709
-0.302373
-0.244356
-0.210741
-0.244398
-0.301185
-0.356353
-0.386207
-0.360086
-0.349913
-0.347417
-0.345898
-0.345046
-0.892037
-0.863424
-0.807699
-0.734171
-0.65404
-0.572555
-0.492486
-0.416681
-0.349545
-0.297193
-0.26515
-0.286603
-0.310721
-0.340967
-0.336155
-0.343309
-0.348521
-0.349638
-0.349472
-0.349742
-0.893768
-0.86913
-0.818403
-0.750295
-0.675842
-0.600125
-0.52573
-0.455508
-0.393581
-0.346215
-0.310012
-0.322801
-0.314968
-0.310248
-0.320089
-0.336094
-0.34224
-0.344515
-0.345865
-0.346328
-0.882874
-0.863007
-0.819004
-0.758161
-0.69076
-0.621917
-0.554078
-0.48992
-0.433373
-0.390376
-0.347912
-0.357691
-0.349656
-0.347314
-0.355596
-0.354986
-0.354163
-0.35389
-0.353677
-0.353584
-0.857265
-0.842423
-0.807723
-0.756543
-0.697815
-0.636971
-0.57638
-0.518593
-0.467572
-0.428593
-0.383252
-0.384386
-0.393014
-0.425376
-0.405519
-0.378725
-0.366306
-0.361759
-0.359898
-0.35934
-0.819684
-0.810124
-0.785422
-0.745599
-0.697013
-0.645043
-0.591994
-0.540492
-0.494491
-0.459532
-0.428222
-0.401498
-0.381847
-0.398116
-0.388181
-0.363252
-0.351018
-0.346944
-0.345429
-0.344662
-0.776878
-0.771422
-0.756895
-0.728172
-0.690276
-0.646925
-0.601096
-0.555115
-0.512838
-0.479711
-0.449447
-0.40228
-0.330573
-0.293216
-0.305692
-0.317468
-0.317311
-0.317683
-0.319889
-0.320346
-0.738457
-0.735162
-0.72822
-0.709593
-0.680511
-0.644501
-0.604778
-0.56293
-0.522074
-0.487083
-0.459509
-0.407061
-0.334561
-0.229551
-0.14805
-0.181836
-0.260411
-0.313905
-0.335157
-0.342003
-0.710857
-0.70882
-0.705263
-0.694018
-0.67152
-0.640831
-0.605036
-0.565382
-0.523374
-0.484554
-0.45288
-0.430425
-0.455489
-0.569007
-0.749918
-0.894733
-0.95534
-0.916989
-0.815837
-0.789358
-0.690166
-0.689426
-0.688261
-0.682682
-0.665879
-0.638569
-0.604027
-0.563716
-0.51922
-0.471948
-0.435802
-0.41678
-0.518937
-0.730237
-1.02179
-1.13712
-1.09254
-0.993538
-0.874196
-0.830003
-0.678136
-0.677869
-0.677248
-0.674677
-0.663073
-0.637633
-0.602477
-0.560408
-0.51161
-0.455202
-0.411157
-0.367422
-0.356591
-0.365449
-0.39368
-0.405584
-0.338051
-0.24203
-0.156072
-0.112438
-0.670029
-0.669852
-0.669329
-0.668439
-0.661492
-0.638159
-0.601823
-0.556698
-0.502345
-0.438702
-0.371924
-0.301622
-0.169043
0.0516952
0.297526
0.531614
0.722315
0.830972
0.889344
0.91047
-0.664996
-0.664978
-0.664885
-0.665101
-0.660707
-0.640544
-0.603044
-0.553734
-0.494581
-0.420449
-0.33223
-0.243116
-0.0403207
0.304169
0.685609
1.05396
1.32301
1.45334
1.50049
1.51019
-0.660782
-0.66081
-0.66076
-0.660518
-0.659333
-0.644126
-0.606655
-0.553344
-0.488417
-0.406292
-0.307325
-0.20304
0.00301881
0.352059
0.722037
1.06632
1.33061
1.45988
1.49561
1.49967
-0.658078
-0.658042
-0.65765
-0.656323
-0.655602
-0.649076
-0.612988
-0.556193
-0.486023
-0.401508
-0.299966
-0.19793
-0.0325677
0.267397
0.565211
0.827167
1.01802
1.11008
1.14281
1.15101
-0.657555
-0.658595
-0.661432
-0.666417
-0.672005
-0.663527
-0.621327
-0.560791
-0.490959
-0.406128
-0.308883
-0.213472
-0.0871745
0.155621
0.387301
0.569451
0.699692
0.769277
0.801302
0.812668
-0.654234
-0.656414
-0.662644
-0.677599
-0.693858
-0.676804
-0.6252
-0.568733
-0.503328
-0.418807
-0.328292
-0.243697
-0.148588
0.0412594
0.228902
0.375854
0.487386
0.553113
0.5836
0.592869
-0.669928
-0.670958
-0.668598
-0.650292
-0.6223
-0.607652
-0.603797
-0.579696
-0.51982
-0.436186
-0.35318
-0.276329
-0.201361
-0.0508459
0.104395
0.228252
0.324892
0.384429
0.409977
0.416157
-0.712847
-0.71174
-0.698381
-0.644919
-0.571274
-0.551262
-0.600565
-0.600547
-0.541636
-0.455931
-0.37552
-0.306935
-0.24757
-0.12944
-0.00276718
0.0996692
0.180998
0.231124
0.251548
0.254968
-0.77739
-0.776068
-0.787992
-0.799951
-0.796418
-0.767653
-0.749742
-0.674211
-0.574193
-0.475701
-0.394656
-0.333873
-0.286508
-0.189731
-0.0857952
-0.00515668
0.0583564
0.0956294
0.109499
0.111424
-0.928307
-0.949472
-1.00769
-1.07414
-1.0973
-1.05999
-0.953636
-0.771518
-0.616087
-0.492716
-0.406533
-0.349299
-0.307932
-0.233323
-0.151452
-0.0875526
-0.0388907
-0.0114214
-0.000388546
0.000126013
-1.06086
-1.08866
-1.142
-1.19062
-1.20979
-1.16935
-1.03714
-0.817145
-0.631152
-0.493794
-0.406258
-0.353877
-0.314839
-0.258262
-0.198092
-0.148912
-0.113099
-0.0927917
-0.0859654
-0.0864623
-1.02132
-1.04194
-1.07978
-1.11712
-1.13263
-1.09468
-0.955098
-0.755946
-0.590422
-0.466147
-0.388692
-0.343173
-0.312381
-0.272546
-0.229109
-0.193868
-0.168528
-0.155111
-0.150909
-0.152129
-0.784014
-0.804136
-0.841278
-0.883604
-0.906693
-0.87499
-0.757168
-0.619058
-0.499711
-0.411052
-0.352892
-0.318678
-0.29744
-0.271123
-0.244769
-0.225198
-0.212178
-0.206487
-0.205106
-0.206284
-0.429662
-0.44399
-0.472678
-0.509821
-0.540814
-0.540438
-0.500895
-0.44387
-0.387393
-0.340453
-0.305487
-0.284194
-0.271535
-0.257827
-0.248292
-0.244188
-0.24409
-0.246278
-0.247282
-0.247964
-0.110635
-0.118548
-0.137896
-0.170306
-0.210488
-0.245613
-0.267293
-0.277161
-0.27681
-0.265687
-0.252819
-0.241799
-0.235084
-0.234383
-0.239227
-0.247885
-0.257309
-0.26426
-0.266389
-0.266632
0.0795196
0.0751289
0.0616746
0.0339494
-0.00987924
-0.064585
-0.116848
-0.157717
-0.185251
-0.199816
-0.203129
-0.199513
-0.196763
-0.205518
-0.220023
-0.235018
-0.248055
-0.255585
-0.257523
-0.257684
0.148932
0.146158
0.136173
0.113379
0.074452
0.0226064
-0.0327201
-0.083135
-0.122355
-0.149315
-0.163249
-0.166895
-0.169492
-0.1825
-0.197909
-0.211497
-0.222203
-0.227188
-0.228426
-0.228713
0.151717
0.149772
0.14248
0.125451
0.0957001
0.0547877
0.00830561
-0.0383748
-0.0795842
-0.112616
-0.135495
-0.149714
-0.159259
-0.168643
-0.176701
-0.183672
-0.188871
-0.190738
-0.191346
-0.191805
0.128799
0.127528
0.122519
0.11062
0.0894943
0.0594623
0.0229835
-0.0158497
-0.0527434
-0.0865836
-0.115454
-0.140972
-0.156877
-0.157441
-0.157191
-0.156916
-0.156468
-0.155969
-0.156201
-0.15679
0.0998659
0.0991081
0.0958701
0.0879444
0.0735113
0.052379
0.0254805
-0.00493632
-0.0361476
-0.0670392
-0.096874
-0.12678
-0.143554
-0.139381
-0.133432
-0.130885
-0.129088
-0.128479
-0.128778
-0.129347
0.0718588
0.0715625
0.0696302
0.0646255
0.0551814
0.0408665
0.0219054
-0.000186423
-0.0241673
-0.0494471
-0.0747121
-0.0986053
-0.109661
-0.107556
-0.105353
-0.105728
-0.10661
-0.107607
-0.108126
-0.108442
0.0470921
0.0469564
0.0459426
0.0430315
0.0372452
0.0281883
0.0158255
0.00110037
-0.0153166
-0.032386
-0.0488251
-0.0623411
-0.0669481
-0.0688681
-0.0730689
-0.078386
-0.0828866
-0.0856998
-0.0863908
-0.0863786
0.024995
0.0250376
0.0246315
0.0232713
0.0203461
0.0156036
0.00899447
0.00107691
-0.00786269
-0.0172465
-0.0250329
-0.0277748
-0.026026
-0.0328854
-0.039421
-0.0460179
-0.0516296
-0.0547695
-0.0553582
-0.0551325
0.00444391
0.00453422
0.00458382
0.00478043
0.00467947
0.00404492
0.00288918
0.00137773
-0.000395081
-0.00228186
-0.00364042
-0.00324782
-0.0020715
-0.0028702
-0.00643731
-0.00935404
-0.0117361
-0.0125922
-0.0125421
-0.0120557
-0.127807
0.0578787
0.255634
0.421478
0.552828
0.655227
0.739762
0.810903
0.840339
0.824315
0.191244
0.312844
0.439791
0.548988
0.64041
0.715775
0.776357
0.818893
0.841023
0.854065
0.406544
0.48876
0.574902
0.651345
0.716682
0.771199
0.814414
0.846312
0.869897
0.887901
0.563546
0.621861
0.682188
0.738084
0.786469
0.827478
0.86124
0.888602
0.91095
0.929291
0.686681
0.728476
0.774855
0.817275
0.855211
0.888381
0.916857
0.940915
0.960595
0.97859
0.789216
0.821825
0.859781
0.894746
0.926832
0.955737
0.981105
1.00265
1.01961
1.03723
0.880953
0.909565
0.943269
0.975176
1.00485
1.03184
1.05553
1.07528
1.08983
1.10728
0.969036
0.998287
1.03205
1.06402
1.09348
1.11996
1.14278
1.16116
1.17376
1.19122
1.06405
1.09752
1.13381
1.16741
1.19735
1.22341
1.24525
1.26228
1.27369
1.29148
1.17875
1.21724
1.25538
1.28951
1.3187
1.3433
1.36354
1.3792
1.3905
1.40884
1.32334
1.36277
1.39827
1.42862
1.45414
1.47615
1.49512
1.51062
1.52324
1.54136
1.49798
1.53001
1.55576
1.57806
1.59808
1.61679
1.6344
1.65093
1.66666
1.68485
1.68553
1.70308
1.71858
1.73515
1.75128
1.76581
1.77883
1.79279
1.80986
1.82954
1.8671
1.87805
1.89019
1.90097
1.91021
1.91976
1.93063
1.94221
1.95215
1.96732
2.07808
2.08009
2.06494
2.04971
2.04332
2.04897
2.06757
2.09798
2.13012
2.16086
2.384
2.24695
2.17065
2.12853
2.11108
2.11512
2.14247
2.19862
2.30206
2.51735
0.715176
0.711801
0.705878
0.696076
0.68314
0.670728
0.660433
0.652512
0.646891
0.643656
0.643344
0.64614
0.651305
0.658591
0.668054
0.67976
0.692904
0.704903
0.712363
0.717087
0.633173
0.63906
0.645968
0.651213
0.654067
0.653749
0.650861
0.646964
0.643433
0.641191
0.64109
0.643348
0.647083
0.651474
0.655447
0.657466
0.656366
0.652286
0.646398
0.639355
0.62549
0.627838
0.631191
0.634105
0.63633
0.638143
0.63912
0.63889
0.637896
0.637049
0.637276
0.63876
0.640624
0.64194
0.642012
0.640861
0.639068
0.636736
0.633588
0.630628
0.620308
0.621395
0.623264
0.625652
0.627622
0.629028
0.630143
0.63103
0.631539
0.631839
0.632396
0.633246
0.633842
0.633851
0.633358
0.632508
0.631121
0.629077
0.626974
0.625563
0.61516
0.615815
0.616927
0.618655
0.620472
0.622104
0.623392
0.62445
0.625417
0.6263
0.627108
0.627704
0.627909
0.627752
0.627227
0.626225
0.624807
0.623249
0.621936
0.621156
0.610169
0.610624
0.611411
0.612715
0.614222
0.615773
0.617264
0.618586
0.619771
0.620904
0.621907
0.622544
0.622746
0.622529
0.621875
0.620903
0.619786
0.618667
0.617767
0.617249
0.605293
0.605633
0.606245
0.607321
0.608626
0.610024
0.611502
0.612992
0.614417
0.615772
0.61698
0.617768
0.618026
0.617811
0.61725
0.616501
0.615677
0.614834
0.614177
0.613798
0.600487
0.600751
0.601246
0.602165
0.603348
0.604667
0.606098
0.607638
0.609247
0.610857
0.61232
0.613304
0.613699
0.613647
0.613307
0.612792
0.61218
0.611568
0.611092
0.610803
0.595673
0.595883
0.596295
0.597105
0.598212
0.599487
0.60091
0.602501
0.604253
0.606118
0.607887
0.609151
0.6098
0.610006
0.609911
0.609627
0.609229
0.608813
0.608479
0.608253
0.590762
0.590931
0.591285
0.592023
0.593086
0.594345
0.595803
0.597486
0.599405
0.601541
0.603676
0.605319
0.606312
0.606824
0.606996
0.606954
0.606776
0.606541
0.606324
0.606145
0.585664
0.5858
0.586113
0.586808
0.587858
0.589146
0.590678
0.592497
0.59464
0.597105
0.599686
0.601802
0.603209
0.604074
0.604551
0.604769
0.604812
0.604752
0.604637
0.604492
0.580287
0.580396
0.580682
0.581359
0.582431
0.583793
0.585443
0.587454
0.58989
0.592772
0.595901
0.598585
0.600479
0.601756
0.602579
0.603081
0.603361
0.603477
0.60345
0.603333
0.574531
0.574617
0.574887
0.575571
0.576701
0.578179
0.580004
0.582275
0.585083
0.588492
0.592292
0.595658
0.59813
0.599885
0.601101
0.601938
0.602481
0.602766
0.602818
0.602721
0.568284
0.568349
0.568612
0.569325
0.570551
0.572195
0.574257
0.576867
0.58015
0.584211
0.588829
0.593014
0.596175
0.598493
0.600165
0.601378
0.60221
0.602681
0.602809
0.602729
0.561412
0.561456
0.561721
0.562485
0.563848
0.565712
0.568086
0.571129
0.57501
0.579874
0.585485
0.590654
0.594632
0.597617
0.599824
0.601465
0.602633
0.603304
0.603507
0.60344
0.553759
0.55378
0.554046
0.554887
0.556429
0.558578
0.561349
0.564942
0.569568
0.575419
0.582233
0.588579
0.593526
0.597297
0.600141
0.602291
0.603841
0.60473
0.605007
0.604949
0.545089
0.545102
0.545387
0.546326
0.548101
0.550599
0.55388
0.558167
0.563719
0.570779
0.579047
0.586797
0.592892
0.597587
0.601181
0.603945
0.605931
0.607058
0.607409
0.607356
0.535128
0.535111
0.535446
0.536531
0.538596
0.541555
0.545484
0.550639
0.557341
0.565885
0.575906
0.585322
0.592771
0.598555
0.603032
0.606507
0.609
0.610385
0.610809
0.610758
0.523552
0.523511
0.523895
0.525172
0.527607
0.531162
0.535909
0.542161
0.5503
0.560665
0.572794
0.58418
0.593207
0.600265
0.605774
0.610068
0.613141
0.6148
0.615292
0.615237
0.509863
0.509796
0.51026
0.511792
0.514714
0.519039
0.524846
0.532502
0.542452
0.555057
0.56971
0.583402
0.594249
0.602767
0.609482
0.614718
0.618427
0.620364
0.620911
0.620846
0.493389
0.493294
0.493887
0.495773
0.499347
0.504703
0.511912
0.5214
0.533652
0.549017
0.566671
0.583031
0.595953
0.606127
0.614198
0.620491
0.624888
0.627087
0.627667
0.627586
0.473161
0.473041
0.47384
0.476244
0.480737
0.487525
0.49665
0.508577
0.523787
0.542547
0.563735
0.58313
0.598375
0.610388
0.619938
0.627402
0.632492
0.634906
0.635487
0.635381
0.447716
0.447585
0.448725
0.451933
0.45782
0.466704
0.478551
0.493798
0.512826
0.535731
0.561018
0.583795
0.601565
0.615567
0.626719
0.635404
0.641122
0.64366
0.644197
0.644059
0.414676
0.414574
0.416335
0.420936
0.429153
0.441323
0.457168
0.476977
0.500892
0.528769
0.558702
0.585148
0.605582
0.621667
0.634475
0.644365
0.650547
0.653068
0.653508
0.653335
0.369788
0.369864
0.372994
0.38051
0.393068
0.410608
0.432387
0.458349
0.488341
0.522002
0.557036
0.587326
0.610487
0.628662
0.643121
0.654058
0.660409
0.66272
0.663019
0.662816
0.305077
0.306341
0.313986
0.328094
0.348614
0.374706
0.404838
0.438628
0.475795
0.515884
0.556286
0.59045
0.616287
0.636478
0.652385
0.664016
0.670192
0.672064
0.672192
0.671977
0.228174
0.230347
0.245094
0.269379
0.300935
0.337088
0.376288
0.418363
0.463148
0.510223
0.556711
0.595504
0.624637
0.647286
0.664811
0.676949
0.682673
0.684161
0.684231
0.684097
0.149136
0.155745
0.177672
0.212329
0.254451
0.300411
0.348646
0.399047
0.451509
0.505623
0.558268
0.601706
0.634052
0.659055
0.678182
0.690273
0.695056
0.696009
0.696017
0.695945
0.0845437
0.0933777
0.119888
0.161736
0.212134
0.266425
0.322808
0.381007
0.440789
0.501653
0.560131
0.607853
0.643041
0.669885
0.689821
0.701554
0.705848
0.706685
0.706735
0.706714
0.0319037
0.0413604
0.0714704
0.11862
0.175227
0.236205
0.299462
0.364535
0.430992
0.498169
0.562158
0.613906
0.651716
0.680211
0.700796
0.712367
0.716379
0.71715
0.717245
0.717273
-0.0120721
-0.00234303
0.0302378
0.0814348
0.143135
0.209663
0.278735
0.349803
0.422262
0.495276
0.564482
0.620073
0.660396
0.69051
0.711875
0.72344
0.727206
0.728043
0.728181
0.72826
-0.0498006
-0.0399768
-0.00556244
0.0488672
0.1148
0.186077
0.260226
0.336613
0.414519
0.492952
0.567116
0.626452
0.669275
0.701021
0.723178
0.734916
0.7388
0.739683
0.739859
0.739962
-0.0829872
-0.0731474
-0.0373363
0.0198258
0.0893098
0.164691
0.243352
0.324551
0.407473
0.490997
0.569928
0.632933
0.678248
0.711665
0.734762
0.746966
0.751023
0.751949
0.752101
0.752217
-0.112937
-0.103079
-0.0661324
-0.00661091
0.0659195
0.144905
0.227598
0.313187
0.400778
0.489149
0.5727
0.639321
0.687138
0.722269
0.746405
0.759167
0.763428
0.764367
0.764477
0.764577
-0.14057
-0.130691
-0.092771
-0.0311569
0.0440524
0.126246
0.212561
0.30217
0.39413
0.487131
0.575201
0.645424
0.695742
0.732598
0.757745
0.771035
0.775565
0.776523
0.776616
0.776679
-0.166486
-0.156547
-0.117733
-0.0543716
0.0232682
0.108349
0.197938
0.291234
0.387277
0.484722
0.57725
0.651075
0.70387
0.742392
0.76853
0.78231
0.787098
0.788061
0.788099
0.788125
-0.191167
-0.18113
-0.141439
-0.0765918
0.00327754
0.0909405
0.183496
0.280175
0.380046
0.481762
0.5787
0.656158
0.711446
0.75158
0.7786
0.792745
0.797675
0.79864
0.798639
0.798632
-0.214944
-0.204724
-0.164289
-0.0979971
-0.0161262
0.073834
0.16908
0.268865
0.372308
0.478119
0.579432
0.660603
0.718426
0.76012
0.787893
0.802255
0.807238
0.808146
0.808109
0.808071
-0.237929
-0.22753
-0.186447
-0.118723
-0.0350971
0.0569292
0.154597
0.257213
0.36397
0.473683
0.579352
0.664365
0.724832
0.768062
0.796403
0.810816
0.815714
0.816567
0.816503
0.816438
-0.260333
-0.249686
-0.207897
-0.138888
-0.0537126
0.0401616
0.139997
0.245174
0.354985
0.468398
0.578374
0.667393
0.73071
0.775543
0.80432
0.818576
0.82324
0.823995
0.82387
0.823796
-0.282134
-0.271244
-0.228776
-0.158574
-0.0719996
0.0235154
0.125281
0.232752
0.345343
0.462213
0.576416
0.669631
0.736118
0.782734
0.811833
0.82566
0.829914
0.830498
0.83034
0.830246
-0.303393
-0.292234
-0.24906
-0.177791
-0.0899607
0.00699781
0.110465
0.219978
0.335065
0.455116
0.573412
0.671008
0.741069
0.789805
0.81924
0.832334
0.835879
0.836183
0.83598
0.835881
-0.323997
-0.312625
-0.268747
-0.196508
-0.107569
-0.00934132
0.0955929
0.206898
0.324197
0.447136
0.569311
0.671424
0.745519
0.796905
0.826927
0.839046
0.841408
0.84115
0.840883
0.840819
-0.344065
-0.332388
-0.287841
-0.214722
-0.124808
-0.025479
0.0807418
0.193577
0.312807
0.438328
0.564088
0.670756
0.749344
0.804062
0.835279
0.846525
0.847184
0.845729
0.845197
0.845275
-0.363458
-0.351496
-0.30633
-0.232405
-0.141614
-0.041342
0.0659813
0.180122
0.300987
0.428737
0.557754
0.668865
0.752343
0.811122
0.844477
0.855658
0.854617
0.851106
0.849303
0.849023
-0.382239
-0.370009
-0.324168
-0.249512
-0.15796
-0.0568701
0.0513877
0.166603
0.288837
0.418481
0.550351
0.665609
0.754251
0.817727
0.85419
0.86686
0.865637
0.860002
0.85412
0.846324
-0.400338
-0.387894
-0.341439
-0.266203
-0.174058
-0.0723268
0.0366422
0.152642
0.27594
0.407104
0.541414
0.660507
0.754708
0.823732
0.86405
0.879954
0.88094
0.874074
0.862609
0.859859
-0.417706