/*--------------------------------*- C++ -*----------------------------------*\
| =========                 |                                                 |
| \\      /  F ield         | OpenFOAM: The Open Source CFD Toolbox           |
|  \\    /   O peration     | Version:  2306                                  |
|   \\  /    A nd           | Website:  www.openfoam.com                      |
|    \\/     M anipulation  |                                                 |
\*---------------------------------------------------------------------------*/
FoamFile
{
    version     2.0;
    format      ascii;
    arch        "LSB;label=32;scalar=64";
    class       surfaceScalarField;
    location    "74";
    object      phi;
}
// * * * * * * * * * * * * * * * * * * * * * * * * * * * * * * * * * * * * * //

dimensions      [0 3 -1 0 0 0 0];

oriented        oriented;

internalField   nonuniform List<scalar> 
17370
(
-0.0910979
0.0935438
0.286565
-0.0749521
0.0569514
0.364776
-0.0409339
0.0299494
0.427153
-0.0211941
0.0155937
0.504852
-0.0113437
0.0086442
0.602102
-0.00651155
0.00505843
0.720511
-0.00383908
0.00296749
0.863778
-0.00219978
0.00162436
1.03603
-0.00109452
0.0006744
1.24292
-0.00026349
-0.000132077
1.49159
0.00051914
-0.000932749
1.4916
0.00133781
-0.0018408
1.24319
0.00238595
-0.00311917
1.03637
0.00396432
-0.00516387
0.864106
0.00660613
-0.00873069
0.721182
0.0114226
-0.0156622
0.603454
0.0212514
-0.0299937
0.508182
0.0409657
-0.0569729
0.432175
0.0749688
-0.0935535
0.36536
0.0911122
0.197899
-0.12735
0.0881498
0.0391999
-0.36474
0.353796
-0.0726221
0.0835659
-0.446567
0.454373
-0.0816969
0.0738912
-0.520973
0.52953
-0.0657799
0.0572235
-0.612852
0.621022
-0.0494695
0.0413001
-0.727003
0.733796
-0.0343697
0.0275777
-0.867517
0.872457
-0.0222319
0.0172916
-1.03855
1.04191
-0.0135689
0.0102132
-1.24472
1.24713
-0.00765494
0.00523977
-1.49284
1.49486
-0.0032695
0.00125021
-1.49269
1.49451
0.000572334
-0.00239474
-1.2441
1.24602
0.00437348
-0.0062907
-1.0376
1.04008
0.00863226
-0.0111122
-0.866157
0.869801
0.0143762
-0.0180197
-0.724476
0.729767
0.0228861
-0.0281763
-0.608884
0.615768
0.034915
-0.0417988
-0.514987
0.522691
0.0499163
-0.0576204
-0.439772
0.447824
0.0661149
-0.0741666
-0.375151
0.376999
0.0818985
-0.0837467
-0.256912
0.223412
0.072748
-0.0392481
-0.0686614
0.0589347
0.00972666
-0.0520566
0.0587468
-0.374552
0.367861
-0.0578549
0.0540236
-0.453836
0.457667
-0.0486609
0.0443169
-0.527752
0.532096
-0.0400879
0.0363
-0.621114
0.624901
-0.0320695
0.0279908
-0.734889
0.738967
-0.0235097
0.0195092
-0.874061
0.878061
-0.015364
0.0118405
-1.04341
1.04694
-0.00826531
0.00519458
-1.24867
1.25174
-0.00195347
-0.00105162
-1.49695
1.49996
0.00403462
-0.00721316
-1.49743
1.5006
0.0101923
-0.0136401
-1.25009
1.25354
0.0170304
-0.0210194
-1.04572
1.0497
0.0248829
-0.0292303
-0.877306
0.881653
0.0332016
-0.0373261
-0.7393
0.743424
0.0410246
-0.0451633
-0.62633
0.630469
0.0494307
-0.0547191
-0.534926
0.540215
0.0584682
-0.059257
-0.45791
0.458699
0.0524357
-0.0320502
-0.336379
0.315994
0.00979015
-0.068491
0.0587009
-0.0531793
0.049134
0.00404534
-0.0331398
0.0436203
-0.358399
0.347919
-0.0473266
0.0467317
-0.45953
0.460125
-0.0437471
0.0404699
-0.536044
0.539322
-0.0367501
0.0334056
-0.628468
0.631813
-0.0298293
0.0266674
-0.742285
0.745447
-0.0233046
0.0201249
-0.881607
0.884787
-0.0165138
0.0131227
-1.05043
1.05382
-0.00937436
0.00592488
-1.25505
1.2585
-0.00208876
-0.0015671
-1.50334
1.507
0.00519045
-0.00893191
-1.50413
1.50787
0.0122517
-0.0158195
-1.25714
1.26071
0.0190206
-0.0224091
-1.05347
1.05686
0.0253933
-0.0285642
-0.885255
0.888426
0.0315712
-0.0349938
-0.746907
0.750329
0.0382081
-0.0417933
-0.634476
0.638061
0.0449542
-0.047808
-0.544436
0.54729
0.0482659
-0.0443675
-0.456857
0.452958
0.0336569
-0.0162783
-0.296608
0.279229
0.00412276
-0.0528762
0.0487534
-0.0460167
0.0434967
0.00252005
-0.0228909
0.0332393
-0.337294
0.326946
-0.0390036
0.0399765
-0.459845
0.458872
-0.0387472
0.0364374
-0.542002
0.544312
-0.0337839
0.0312088
-0.634818
0.637394
-0.0281874
0.025315
-0.748523
0.751396
-0.0220656
0.0190559
-0.887801
0.890811
-0.015723
0.0125991
-1.057
1.06013
-0.00903696
0.00561683
-1.26193
1.26535
-0.00167647
-0.00215123
-1.51077
1.5146
0.00593665
-0.00974791
-1.51168
1.51549
0.0129944
-0.0163183
-1.26417
1.26749
0.0191938
-0.0222368
-1.06002
1.06307
0.0249894
-0.0279816
-0.891559
0.894551
0.0306423
-0.0334517
-0.753504
0.756314
0.0358477
-0.0383201
-0.641053
0.643526
0.0404755
-0.0415017
-0.549095
0.550122
0.0403165
-0.0342424
-0.447744
0.44167
0.023555
-0.0103112
-0.264025
0.250781
0.00261539
-0.0455496
0.0429342
-0.0414039
0.0396237
0.00178021
-0.016817
0.0260692
-0.317099
0.307847
-0.0326551
0.0347728
-0.457303
0.455185
-0.0343336
0.0326371
-0.546325
0.548021
-0.0304193
0.028298
-0.639705
0.641826
-0.0258557
0.0234586
-0.754025
0.756422
-0.0206109
0.0178367
-0.893687
0.896461
-0.0146264
0.0115752
-1.06317
1.06623
-0.00809789
0.00477356
-1.26868
1.27201
-0.000924574
-0.00283273
-1.51838
1.52214
0.00653467
-0.010221
-1.51923
1.52292
0.0133255
-0.0165015
-1.27074
1.27391
0.0192373
-0.0220772
-1.06608
1.06892
0.0245195
-0.0270331
-0.897334
0.899847
0.0291559
-0.0313255
-0.758748
0.760918
0.0332185
-0.0352032
-0.645706
0.647691
0.0366751
-0.0368375
-0.550664
0.550826
0.034394
-0.0273547
-0.435024
0.427985
0.0176461
-0.00745913
-0.239211
0.229024
0.00189672
-0.0407356
0.0388389
-0.0380911
0.0367547
0.0013364
-0.0128348
0.0207875
-0.299248
0.291295
-0.0275254
0.0304311
-0.452641
0.449735
-0.0306219
0.0294858
-0.549465
0.550601
-0.0274758
0.02554
-0.643883
0.645819
-0.0233182
0.0211662
-0.758672
0.760824
-0.0186428
0.0161541
-0.899037
0.901526
-0.0132059
0.0103246
-1.06915
1.07203
-0.00696873
0.00373376
-1.27526
1.27849
1.20399e-05
-0.003646
-1.52581
1.52945
0.00721159
-0.0107523
-1.52652
1.53006
0.0137122
-0.0166917
-1.27701
1.27999
0.0191775
-0.0216599
-1.07165
1.07413
0.0237335
-0.0258388
-0.902135
0.904241
0.0276447
-0.0295197
-0.762919
0.764794
0.0311666
-0.0328956
-0.649528
0.651257
0.0337043
-0.0331265
-0.550621
0.550043
0.0297549
-0.0223957
-0.420728
0.413368
0.0138564
-0.00578303
-0.219994
0.21192
0.00147826
-0.0371773
0.035699
-0.035588
0.0345605
0.00102754
-0.0100168
0.0167366
-0.283983
0.277263
-0.0232095
0.0265663
-0.446582
0.443226
-0.0273286
0.026617
-0.551515
0.552227
-0.0248371
0.0230378
-0.647724
0.649524
-0.0209545
0.0189276
-0.762911
0.764938
-0.0165441
0.0142062
-0.903874
0.906211
-0.0114562
0.00875837
-1.07476
1.07745
-0.00558382
0.00248797
-1.28162
1.28472
0.00112131
-0.0046249
-1.53299
1.53649
0.00804322
-0.0113991
-1.53349
1.53685
0.0141527
-0.016861
-1.28285
1.28555
0.0190714
-0.0212479
-1.07651
1.07869
0.0230735
-0.0249392
-0.906227
0.908092
0.0265369
-0.0281899
-0.766549
0.768202
0.0296307
-0.0310227
-0.65284
0.654232
0.0313271
-0.0300155
-0.549113
0.547801
0.0260167
-0.0187258
-0.406017
0.398726
0.0112687
-0.00467297
-0.204655
0.198059
0.00120005
-0.0343755
0.0331755
-0.0336589
0.0328606
0.000798256
-0.00792465
0.0135657
-0.271111
0.26547
-0.0195503
0.0231013
-0.43976
0.436209
-0.0243375
0.0238699
-0.552845
0.553313
-0.0223567
0.0206646
-0.651316
0.653008
-0.0186748
0.0167336
-0.766918
0.768859
-0.0144447
0.0121957
-0.908443
0.910691
-0.00954837
0.00696209
-1.08002
1.08261
-0.00393389
0.000978728
-1.28769
1.29065
0.00246759
-0.00580884
-1.53989
1.54323
0.00904651
-0.012182
-1.54007
1.54321
0.014716
-0.017176
-1.28814
1.2906
0.0191655
-0.0211087
-1.08083
1.08277
0.0227288
-0.024382
-0.909857
0.91151
0.0257962
-0.0272565
-0.769751
0.771212
0.0285012
-0.0295109
-0.655419
0.656429
0.0294409
-0.0274555
-0.546155
0.54417
0.0230466
-0.0160123
-0.391558
0.384524
0.00945516
-0.00390706
-0.192037
0.186489
0.00100795
-0.0320833
0.0310754
-0.0321601
0.0315395
0.00062056
-0.00630918
0.0110272
-0.260318
0.255599
-0.0164166
0.0199642
-0.432657
0.429109
-0.0215198
0.0212747
-0.553702
0.553947
-0.0199908
0.0183577
-0.654716
0.656349
-0.0164217
0.0145278
-0.77077
0.772664
-0.0122956
0.0101038
-0.912839
0.915031
-0.00752473
0.00500811
-1.08509
1.0876
-0.00206945
-0.000773941
-1.29349
1.29633
0.00407454
-0.00724896
-1.54646
1.54963
0.0102952
-0.0132141
-1.54621
1.54913
0.0155515
-0.017798
-1.29295
1.2952
0.0195874
-0.0213076
-1.0847
1.08642
0.0227321
-0.0241879
-0.913066
0.914522
0.0254364
-0.0267209
-0.772577
0.773861
0.0278182
-0.028404
-0.657227
0.657813
0.02796
-0.025404
-0.541912
0.539356
0.0207389
-0.0140254
-0.377658
0.370945
0.00817667
-0.00337469
-0.181351
0.176549
0.000875175
-0.0301434
0.0292683
-0.0309988
0.0305224
0.000476412
-0.00500716
0.00892815
-0.251305
0.247384
-0.0136768
0.0170713
-0.425643
0.422249
-0.0188055
0.0187471
-0.554137
0.554195
-0.0176553
0.0160549
-0.658029
0.659629
-0.0141393
0.0122582
-0.774542
0.776423
-0.0100415
0.00787045
-0.917129
0.9193
-0.00532532
0.00285359
-1.09001
1.09249
1.34838e-05
-0.00279005
-1.29908
1.30186
0.00597505
-0.00900226
-1.5527
1.55572
0.0118739
-0.0145934
-1.55191
1.55463
0.0167449
-0.0187833
-1.29734
1.29938
0.0203751
-0.0218768
-1.08816
1.08966
0.0231159
-0.0243912
-0.915883
0.917158
0.0254907
-0.0266153
-0.775057
0.776181
0.0275164
-0.027728
-0.658209
0.65842
0.0268681
-0.0238278
-0.536567
0.533527
0.0190026
-0.0125992
-0.364403
0.358
0.00728652
-0.00301079
-0.172042
0.167766
0.000785999
-0.0284464
0.0276604
-0.0301139
0.0297597
0.000354259
-0.00391451
0.00713414
-0.243836
0.240617
-0.0112297
0.0143605
-0.418999
0.415868
-0.0161463
0.0162367
-0.554225
0.554135
-0.015224
0.0136928
-0.661268
0.662799
-0.0117695
0.00986818
-0.7783
0.780201
-0.00762839
0.00544235
-0.921382
0.923568
-0.00289302
0.000432158
-1.09486
1.09732
0.00241487
-0.00513508
-1.30454
1.30726
0.00823087
-0.0111381
-1.55865
1.56156
0.0138573
-0.0163909
-1.55722
1.55975
0.018362
-0.0201956
-1.30131
1.30314
0.0215925
-0.022879
-1.0912
1.09249
0.0239379
-0.0250396
-0.918336
0.919438
0.0259958
-0.0269545
-0.777211
0.77817
0.0275925
-0.0275125
-0.658499
0.658419
0.0262036
-0.0227205
-0.530275
0.526792
0.0177745
-0.0116232
-0.351748
0.345596
0.0066943
-0.00277544
-0.163697
0.159779
0.000730435
-0.0269108
0.0261804
-0.0294663
0.0292212
0.000245096
-0.00295491
0.00554043
-0.237735
0.235149
-0.00898259
0.0117663
-0.412929
0.410145
-0.013489
0.0136553
-0.554058
0.553892
-0.0126803
0.0111885
-0.664393
0.665885
-0.00923407
0.00728288
-0.782106
0.784057
-0.00498389
0.00274854
-0.925668
0.927903
-0.000159272
-0.00233477
-1.09969
1.10219
0.00518937
-0.00789203
-1.3099
1.3126
0.0109321
-0.0137449
-1.56437
1.56719
0.0163302
-0.0186901
-1.56216
1.56452
0.0204886
-0.0221227
-1.30487
1.3065
0.0233238
-0.0243895
-1.09385
1.09492
0.0252632
-0.0261874
-0.920436
0.92136
0.0269978
-0.0277915
-0.779008
0.779801
0.0281408
-0.0277593
-0.658194
0.657812
0.0259885
-0.0220758
-0.523117
0.519205
0.0170076
-0.0110225
-0.339561
0.333576
0.00634145
-0.00264243
-0.155997
0.152298
0.00070167
-0.025473
0.0247713
-0.0290341
0.0288928
0.000141327
-0.00206479
0.0040543
-0.232881
0.230891
-0.00683822
0.00920456
-0.407593
0.405226
-0.0107553
0.0109176
-0.55379
0.553628
-0.00994567
0.00845408
-0.667475
0.668967
-0.00644053
0.00440866
-0.786017
0.788049
-0.00201269
-0.000304181
-0.930055
0.932371
0.00298533
-0.00554015
-1.1046
1.10715
0.00844187
-0.0111599
-1.31523
1.31795
0.0141755
-0.0169166
-1.56991
1.57265
0.0193832
-0.0215786
-1.56675
1.56894
0.0232094
-0.0246451
-1.30801
1.30945
0.0256442
-0.0264771
-1.0961
1.09693
0.027153
-0.0278826
-0.922166
0.922896
0.0285372
-0.0291877
-0.780447
0.781098
0.0292187
-0.0284381
-0.657233
0.656452
0.0262068
-0.0218683
-0.515126
0.510787
0.01665
-0.0107343
-0.327664
0.321748
0.00618227
-0.00259143
-0.14868
0.145089
0.000694317
-0.0240822
0.0233879
-0.0288097
0.0287731
3.66293e-05
-0.00119695
0.00260496
-0.229209
0.227801
-0.00471661
0.0066011
-0.403127
0.401242
-0.00787463
0.00794984
-0.553584
0.553509
-0.00693355
0.00540421
-0.670597
0.672126
-0.00329213
0.00114543
-0.790092
0.792239
0.00138827
-0.00383259
-0.934613
0.937057
0.00663853
-0.00929577
-1.10963
1.11229
0.0122876
-0.0150572
-1.3206
1.32337
0.0180825
-0.0207757
-1.57532
1.57801
0.0231384
-0.0251755
-1.57101
1.57304
0.0266385
-0.0278721
-1.31075
1.31199
0.0286646
-0.0292617
-1.09792
1.09852
0.0297349
-0.0302597
-0.923503
0.924028
0.0307435
-0.0311719
-0.781519
0.781947
0.030908
-0.0296522
-0.655477
0.654221
0.0269211
-0.0221206
-0.506283
0.501483
0.0166908
-0.0107317
-0.315857
0.309898
0.00619508
-0.00261269
-0.141531
0.137949
0.000705906
-0.0226973
0.0219914
-0.0287966
0.0288672
-7.0591e-05
-0.000313879
0.00113153
-0.226701
0.225883
-0.00253928
0.00387412
-0.399657
0.398322
-0.00476618
0.00466923
-0.553614
0.553711
-0.00355046
0.00193047
-0.673846
0.675466
0.000316514
-0.00261943
-0.794402
0.796705
0.00533797
-0.00795221
-0.939421
0.942035
0.0109358
-0.0137402
-1.11488
1.11768
0.0168674
-0.0197261
-1.32609
1.32895
0.0227955
-0.0254644
-1.58063
1.5833
0.0277363
-0.0296178
-1.57494
1.57682
0.0309092
-0.0319327
-1.31307
1.31409
0.0325144
-0.0328691
-1.09929
1.09965
0.0331288
-0.0334344
-0.92442
0.924726
0.0337207
-0.0338442
-0.782052
0.782176
0.0332662
-0.0314581
-0.65278
0.650972
0.0281723
-0.0228483
-0.496509
0.491185
0.0171224
-0.0109967
-0.303909
0.297783
0.00636529
-0.00269925
-0.134354
0.130688
0.000734446
-0.0212812
0.0205467
-0.0290099
0.0292011
-0.000191259
0.000613618
-0.000421091
-0.225378
0.225186
-0.000230636
0.00093912
-0.397308
0.3966
-0.00134434
0.000992466
-0.55406
0.554412
0.000284698
-0.00207449
-0.677338
0.679128
0.00452124
-0.00703263
-0.799033
0.801545
0.0099907
-0.012823
-0.94457
0.947402
0.0160382
-0.0190384
-1.12043
1.12343
0.0223511
-0.0253387
-1.33176
1.33475
0.0284871
-0.0311525
-1.5859
1.58856
0.0333411
-0.0350632
-1.57856
1.58028
0.0361779
-0.0369813
-1.31492
1.31573
0.0373421
-0.0374395
-1.10018
1.10028
0.0374683
-0.0375397
-0.924879
0.924951
0.0376294
-0.0373599
-0.781939
0.78167
0.0363837
-0.0339427
-0.648993
0.646552
0.0300222
-0.0240781
-0.485659
0.479715
0.0179458
-0.0115176
-0.291566
0.285137
0.00668136
-0.00284459
-0.126968
0.123131
0.000777727
-0.0198011
0.0190233
-0.029477
0.0298184
-0.00034139
0.00167037
-0.00211784
-0.225336
0.225783
0.00231564
-0.00233993
-0.396222
0.396246
0.00255936
-0.00328105
-0.555145
0.555867
0.00480053
-0.0067969
-0.681218
0.683214
0.00949351
-0.0122653
-0.804075
0.806847
0.0155251
-0.0186344
-0.95016
0.953269
0.0221446
-0.0253947
-1.12638
1.12963
0.028946
-0.032103
-1.3377
1.34086
0.0353632
-0.0380419
-1.59116
1.59384
0.0401493
-0.0416995
-1.58183
1.58338
0.0426154
-0.0431886
-1.3163
1.31687
0.0433196
-0.0431364
-1.10054
1.10036
0.0429103
-0.0427312
-0.924827
0.924648
0.0426089
-0.0418499
-0.781008
0.780249
0.0403859
-0.0371999
-0.643955
0.640769
0.032531
-0.0258342
-0.47353
0.466833
0.0191611
-0.0122836
-0.278552
0.271674
0.0071323
-0.00304236
-0.119201
0.115111
0.000833623
-0.0182285
0.0173948
-0.0302306
0.0307523
-0.000521664
0.00297264
-0.00419537
-0.226639
0.227862
0.00526973
-0.00610105
-0.396611
0.397442
0.00704771
-0.00824322
-0.557096
0.558292
0.0100991
-0.0123837
-0.685592
0.687877
0.0154203
-0.0185296
-0.809644
0.812753
0.0221708
-0.0256258
-0.95631
0.959765
0.0295012
-0.0330597
-1.13284
1.1364
0.0369044
-0.0402693
-1.34398
1.34735
0.0436677
-0.0463669
-1.59645
1.59915
0.0483833
-0.0497443
-1.58475
1.58611
0.0504344
-0.0507626
-1.31715
1.31747
0.0506416
-0.0501544
-1.10031
1.09982
0.0496561
-0.049211
-0.924212
0.923767
0.0487514
-0.0475248
-0.779143
0.777916
0.0454097
-0.0413303
-0.637425
0.633346
0.0357626
-0.0281404
-0.459837
0.452215
0.0207664
-0.0132804
-0.264568
0.257082
0.00770385
-0.00328398
-0.110891
0.106471
0.000899078
-0.0165396
0.0156405
-0.0313448
0.032091
-0.000746165
0.00449231
-0.00660758
-0.229498
0.231613
0.0087641
-0.0105124
-0.398687
0.400436
0.0122948
-0.0140831
-0.560169
0.561958
0.0164113
-0.0190874
-0.690628
0.693304
0.0225765
-0.0261089
-0.815893
0.819425
0.0302229
-0.0341033
-0.963164
0.967044
0.038424
-0.0423536
-1.13993
1.14386
0.0465444
-0.0501479
-1.35068
1.35428
0.0536963
-0.0564054
-1.60176
1.60447
0.0583039
-0.0594365
-1.58727
1.5884
0.0598626
-0.0599069
-1.3174
1.31745
0.0595114
-0.0586975
-1.09945
1.09863
0.057902
-0.0571638
-0.922985
0.922246
0.0562869
-0.0545168
-0.776383
0.774613
0.051607
-0.0464329
-0.629098
0.623924
0.0397658
-0.0309994
-0.44422
0.435453
0.0227394
-0.0144775
-0.249292
0.24103
0.00837011
-0.00355496
-0.101888
0.0970731
0.000969166
-0.0147174
0.0137483
-0.0329024
0.0339423
-0.00103994
0.00640368
-0.009587
-0.234154
0.237337
0.0130169
-0.0158334
-0.402718
0.405535
0.0185935
-0.0211028
-0.564643
0.567152
0.0240507
-0.0272426
-0.696544
0.699736
0.0313166
-0.0353859
-0.822995
0.827065
0.0400823
-0.0444767
-0.970881
0.975275
0.0493255
-0.0536838
-1.14777
1.15213
0.0582599
-0.0621124
-1.35785
1.3617
0.0657932
-0.0684714
-1.60707
1.60975
0.0701973
-0.0710409
-1.58929
1.59013
0.0711426
-0.0708467
-1.31695
1.31665
0.070157
-0.0689764
-1.09787
1.09669
0.0678489
-0.0668204
-0.921107
0.920078
0.0654045
-0.0629921
-0.772557
0.770144
0.0590998
-0.0525655
-0.61856
0.612026
0.0445428
-0.0343683
-0.426228
0.416053
0.025018
-0.0158145
-0.232392
0.223188
0.00908627
-0.0038322
-0.0920733
0.0868192
0.00103651
-0.0127561
0.0117196
-0.0350323
0.0364768
-0.00144454
0.00889604
-0.0134454
-0.240934
0.245483
0.0183751
-0.0224324
-0.409073
0.41313
0.0263333
-0.029716
-0.570847
0.57423
0.0334627
-0.0373332
-0.703612
0.707482
0.0421606
-0.0468998
-0.831173
0.835912
0.0523013
-0.0573009
-0.979643
0.984642
0.0627507
-0.0675737
-1.15646
1.16128
0.0725376
-0.0766078
-1.36548
1.36955
0.0803527
-0.0829115
-1.61226
1.61482
0.0843683
-0.0848238
-1.59068
1.59113
0.0845411
-0.0838247
-1.31568
1.31497
0.0827802
-0.0812192
-1.09549
1.09392
0.079777
-0.0783148
-0.918539
0.917077
0.0763852
-0.0730806
-0.767405
0.7641
0.0679615
-0.0597283
-0.605258
0.597025
0.0500275
-0.0381344
-0.405324
0.393431
0.0274801
-0.0171892
-0.213546
0.203255
0.00978225
-0.00408213
-0.0813754
0.0756752
0.00109107
-0.0106657
0.00957467
-0.0379349
0.0399541
-0.00201918
0.0123626
-0.0186425
-0.25036
0.25664
0.025373
-0.0308778
-0.418246
0.423751
0.0361311
-0.0405848
-0.579174
0.583628
0.0453394
-0.0500926
-0.712174
0.716928
0.0558859
-0.0614461
-0.840685
0.846245
0.0676735
-0.073348
-0.989625
0.9953
0.0794274
-0.0846944
-1.16606
1.17132
0.0899736
-0.0941555
-1.37348
1.37767
0.0978132
-0.100093
-1.61713
1.61941
0.101124
-0.101047
-1.5912
1.59113
0.100291
-0.09904
-1.31349
1.31224
0.0975955
-0.0956388
-1.09225
1.0903
0.0938408
-0.0918319
-0.914954
0.912945
0.089351
-0.0848932
-0.760389
0.755931
0.0781968
-0.0678124
-0.588478
0.578094
0.0560354
-0.0420775
-0.380894
0.366936
0.0299188
-0.0184444
-0.192492
0.181018
0.0103579
-0.00425979
-0.069807
0.0637089
0.00112008
-0.00847768
0.0073576
-0.041935
0.0448422
-0.00290719
0.0173957
-0.0259411
-0.26317
0.271716
0.0349006
-0.0421512
-0.430908
0.438159
0.0490324
-0.0547699
-0.590117
0.595854
0.0608579
-0.0667895
-0.72266
0.728591
0.0737489
-0.0802399
-0.851814
0.858305
0.0873479
-0.093681
-1.00094
1.00727
0.100301
-0.105872
-1.17646
1.18203
0.11126
-0.115329
-1.38159
1.38566
0.118626
-0.120367
-1.6213
1.62304
0.120739
-0.119929
-1.59056
1.58975
0.118547
-0.116672
-1.31015
1.30827
0.114782
-0.1124
-1.08808
1.0857
0.110212
-0.107562
-0.910101
0.907451
0.104342
-0.0983372
-0.750917
0.744913
0.0895951
-0.076502
-0.567281
0.554188
0.062192
-0.0458237
-0.352285
0.335917
0.0320177
-0.0193626
-0.169098
0.156443
0.0106846
-0.00431169
-0.0575029
0.05113
0.00110944
-0.00624893
0.00513949
-0.0476145
0.0520244
-0.00440989
0.0251779
-0.036804
-0.28053
0.292156
0.0486671
-0.0582464
-0.448101
0.45768
0.0671641
-0.0744115
-0.604272
0.611519
0.0820798
-0.0895451
-0.735448
0.742913
0.0977322
-0.105081
-0.864763
0.872112
0.112904
-0.119672
-1.01346
1.02023
0.126511
-0.132045
-1.1873
1.19283
0.137127
-0.14069
-1.38926
1.39282
0.143192
-0.144013
-1.62419
1.62501
0.143406
-0.141621
-1.58832
1.58653
0.139446
-0.136843
-1.30547
1.30287
0.134424
-0.131591
-1.08283
1.08
0.128872
-0.125593
-0.903852
0.900572
0.121248
-0.113115
-0.738118
0.729985
0.101675
-0.0852022
-0.540487
0.524014
0.0678891
-0.0488449
-0.318901
0.299857
0.033373
-0.0196941
-0.143481
0.129802
0.0106263
-0.00418543
-0.0447611
0.0383202
0.00104536
-0.00406277
0.00301741
-0.056062
0.0636141
-0.00755206
0.0388329
-0.0549562
-0.304609
0.320732
0.0708899
-0.0836864
-0.471465
0.484261
0.0947913
-0.103451
-0.62209
0.63075
0.112662
-0.121423
-0.750921
0.759681
0.130561
-0.138342
-0.879226
0.887006
0.146281
-0.152868
-1.02658
1.03317
0.159237
-0.164085
-1.19774
1.20259
0.168185
-0.170627
-1.3956
1.39804
0.17176
-0.171211
-1.62497
1.62442
0.169266
-0.166209
-1.58397
1.58092
0.163029
-0.159536
-1.29923
1.29574
0.156502
-0.15319
-1.07639
1.07308
0.149932
-0.145708
-0.895888
0.891663
0.139672
-0.128543
-0.720672
0.709543
0.113519
-0.092898
-0.506623
0.486002
0.0722913
-0.0505655
-0.280394
0.258668
0.0336424
-0.0192965
-0.116154
0.101809
0.0101333
-0.00387361
-0.0320636
0.0258039
0.000926108
-0.00202528
0.00109917
-0.0706366
0.0748233
-0.00418673
0.0296951
-0.0437127
-0.339421
0.353438
0.0578904
-0.0696432
-0.502431
0.514184
0.0802073
-0.0901076
-0.643206
0.653106
0.101224
-0.111435
-0.76793
0.778141
0.122799
-0.132949
-0.893876
0.904026
0.143813
-0.153529
-1.03883
1.04854
0.163747
-0.172579
-1.20637
1.2152
0.181464
-0.188683
-1.39935
1.40657
0.195318
-0.199932
-1.62272
1.62733
0.202512
-0.203666
-1.57688
1.57803
0.203638
-0.203085
-1.29109
1.29054
0.202719
-0.201827
-1.06848
1.06759
0.200289
-0.195932
-0.885325
0.880968
0.187201
-0.169934
-0.696628
0.679362
0.146545
-0.115896
-0.464229
0.433579
0.0870994
-0.0584314
-0.236955
0.208287
0.0374964
-0.0207436
-0.0881743
0.0714215
0.0105239
-0.00386857
-0.020041
0.0133857
0.000883022
-0.000240691
-0.000642331
-0.0822738
0.0802658
0.002008
0.00765853
-0.0169661
-0.370251
0.379559
0.0277954
-0.036179
-0.530663
0.539047
0.0446833
-0.0530436
-0.665617
0.673977
0.0632608
-0.0728073
-0.787945
0.797491
0.0830184
-0.092364
-0.913614
0.92296
0.102335
-0.110909
-1.05798
1.06656
0.120119
-0.127717
-1.22386
1.23146
0.135323
-0.141241
-1.41352
1.41944
0.146181
-0.149318
-1.63123
1.63436
0.150484
-0.150259
-1.57861
1.57838
0.14884
-0.146794
-1.28908
1.28703
0.145027
-0.143086
-1.06402
1.06208
0.140526
-0.134857
-0.872089
0.866421
0.125299
-0.109262
-0.658004
0.641967
0.0902849
-0.0677684
-0.401178
0.378662
0.048669
-0.0315091
-0.180343
0.163183
0.0198058
-0.0108706
-0.0557953
0.0468601
0.00552156
-0.00201831
-0.00704659
0.00354334
0.000397429
0.00161631
-0.00201374
-0.0837247
0.0807208
0.0030039
-0.0017141
-0.00369392
-0.391152
0.39656
0.0110893
-0.0171975
-0.551623
0.557732
0.0235051
-0.030832
-0.684585
0.691911
0.0396944
-0.0479882
-0.806095
0.814389
0.0570738
-0.0652252
-0.931536
0.939688
0.0736717
-0.0813004
-1.07494
1.08257
0.0892724
-0.0959292
-1.2386
1.24526
0.10212
-0.106717
-1.42467
1.42927
0.110509
-0.112377
-1.6368
1.63867
0.112319
-0.110923
-1.57759
1.57619
0.108602
-0.105768
-1.28456
1.28173
0.102806
-0.0997096
-1.05749
1.0544
0.0961969
-0.0902966
-0.856749
0.850848
0.0814893
-0.0680017
-0.622987
0.6095
0.0538201
-0.0386529
-0.354574
0.339407
0.0272459
-0.0177939
-0.145895
0.136443
0.0115247
-0.00668845
-0.0380681
0.0332319
0.00359678
-0.0013082
-0.000128254
-0.00216033
0.000291842
0.00264676
-0.0029386
-0.0823863
0.0795322
0.00285419
-0.00551551
0.00293104
-0.405121
0.407706
0.00184688
-0.00649185
-0.567133
0.571778
0.0118246
-0.0179646
-0.700233
0.706373
0.0255187
-0.0326033
-0.821997
0.829081
0.0403486
-0.0473203
-0.947282
0.954254
0.0549197
-0.061359
-1.08974
1.09618
0.0682614
-0.0735377
-1.25146
1.25673
0.078717
-0.0824031
-1.43359
1.43727
0.0850237
-0.0856164
-1.64004
1.64063
0.0847249
-0.0825309
-1.57419
1.572
0.0795059
-0.0755271
-1.2784
1.27442
0.0717853
-0.0676808
-1.04918
1.04508
0.063222
-0.0575883
-0.840732
0.835098
0.0499133
-0.0397344
-0.593494
0.583315
0.0301177
-0.0211051
-0.323253
0.31424
0.0150016
-0.0102788
-0.126289
0.121566
0.00712896
-0.0045309
-0.0279071
0.0253091
0.00257665
-0.00108005
0.00459926
-0.00609586
0.000280651
0.00348227
-0.00376292
-0.0807551
0.0782004
0.00255474
-0.00679247
0.00589753
-0.414368
0.415263
-0.00241938
-0.000871464
-0.579589
0.582879
0.0052131
-0.0107839
-0.713321
0.718892
0.0171059
-0.0232857
-0.835421
0.841601
0.0299511
-0.0359587
-0.960736
0.966744
0.0424162
-0.0480631
-1.10244
1.10809
0.053817
-0.0585058
-1.26181
1.2665
0.0627666
-0.0656322
-1.44051
1.44338
0.0673653
-0.0671413
-1.64094
1.64072
0.0654799
-0.0623236
-1.56899
1.56583
0.0586466
-0.0540986
-1.27015
1.2656
0.0496544
-0.0445584
-1.03936
1.03427
0.0396101
-0.0339641
-0.825176
0.81953
0.0276949
-0.0201928
-0.570844
0.563342
0.0141826
-0.00948403
-0.303951
0.299253
0.00684021
-0.00514027
-0.11589
0.11419
0.00402728
-0.00293566
-0.0221121
0.0210204
0.00176588
-0.000835581
0.00794492
-0.00887523
0.000249754
0.00425999
-0.00450975
-0.0791852
0.0769674
0.00221779
-0.00681147
0.00649589
-0.420592
0.420908
-0.00445624
0.00182186
-0.589069
0.591704
0.00227568
-0.00701555
-0.724358
0.729098
0.0124075
-0.0177341
-0.846949
0.852276
0.023607
-0.0289125
-0.972363
0.977668
0.0347248
-0.0395778
-1.1134
1.11826
0.0446143
-0.0486713
-1.27083
1.27488
0.0522027
-0.0544166
-1.44588
1.44809
0.0554218
-0.0549091
-1.64027
1.63976
0.0525875
-0.0489603
-1.56207
1.55844
0.0447247
-0.0395605
-1.26062
1.25546
0.0347811
-0.0289413
-1.0281
1.02226
0.023539
-0.0180652
-0.810295
0.804822
0.0127151
-0.0071169
-0.553909
0.54831
0.00352345
-0.00155181
-0.292749
0.290777
0.0011797
-0.00125364
-0.111136
0.11121
0.00133124
-0.00130074
-0.0193979
0.0193674
0.000905422
-0.000522085
0.0100493
-0.0104326
0.000187778
0.00489873
-0.00508651
-0.0779087
0.0761451
0.00176363
-0.00604971
0.00613827
-0.425063
0.424974
-0.00455315
0.00262445
-0.597238
0.599167
0.00111907
-0.0053861
-0.73381
0.738077
0.0104431
-0.0149803
-0.857162
0.861699
0.0200764
-0.0247102
-0.982902
0.987536
0.0301182
-0.0344197
-1.12309
1.1274
0.0387555
-0.042418
-1.27868
1.28234
0.045838
-0.0476005
-1.45023
1.45199
0.0482606
-0.0472397
-1.63871
1.63769
0.0448179
-0.0405325
-1.55443
1.55015
0.0361093
-0.0307115
-1.24991
1.24452
0.0254198
-0.0193786
-1.01579
1.00975
0.0136452
-0.00786925
-0.796065
0.790289
0.00338633
0.000933555
-0.540584
0.536264
-0.00327146
0.00370486
-0.286476
0.286042
-0.0030488
0.00206156
-0.110151
0.111138
-0.00113878
0.000322412
-0.018995
0.0198114
-1.01135e-05
-0.000143915
0.0109313
-0.0107773
9.59333e-05
0.00532115
-0.00541709
-0.0771083
0.0756954
0.00141287
-0.00505923
0.00533134
-0.428438
0.428165
-0.00399674
0.00220094
-0.604231
0.606026
0.00133798
-0.00509956
-0.742212
0.745974
0.00937345
-0.0136871
-0.866142
0.870456
0.0183214
-0.0230064
-0.991932
0.996617
0.0275641
-0.031559
-1.13174
1.13574
0.0358676
-0.0391116
-1.28581
1.28906
0.0418211
-0.0437508
-1.45356
1.45549
0.044254
-0.0431368
-1.6366
1.63548
0.0404433
-0.0362443
-1.54591
1.54171
0.0316731
-0.0260747
-1.23861
1.23301
0.0206787
-0.0144245
-1.00309
0.996839
0.00859359
-0.00284889
-0.782295
0.77655
-0.00143541
0.00496483
-0.529525
0.525995
-0.00674753
0.00676571
-0.283062
0.283043
-0.00570875
0.0042038
-0.110995
0.1125
-0.00287507
0.00155155
-0.0202349
0.0215584
-0.000812716
0.000228205
0.0106703
-0.0100858
-1.19954e-05
0.00548546
-0.00547347
-0.0768209
0.0756264
0.00119456
-0.00383736
0.00391916
-0.431329
0.431247
-0.00291321
0.00118065
-0.610534
0.612267
0.00217872
-0.0057511
-0.749907
0.753479
0.00979242
-0.0136387
-0.874513
0.878359
0.0183153
-0.0221229
-1.00067
1.00448
0.0265503
-0.0302585
-1.13984
1.14355
0.0343167
-0.0376131
-1.29222
1.29551
0.0404232
-0.0419228
-1.45709
1.45859
0.0424931
-0.0414689
-1.63418
1.63316
0.0390743
-0.0347982
-1.53727
1.53299
0.0303119
-0.0247333
-1.22739
1.22181
0.0193878
-0.0130912
-0.990064
0.983767
0.00738612
-0.00143856
-0.769013
0.763065
-0.00272109
0.00597584
-0.51983
0.516575
-0.00775454
0.00774778
-0.280572
0.280579
-0.00678622
0.00528343
-0.112693
0.114196
-0.00389204
0.00237731
-0.0224321
0.0239468
-0.00131782
0.000480048
0.00956799
-0.00873022
-9.45819e-05
0.00540833
-0.00531374
-0.0768055
0.0759526
0.000852916
-0.00271114
0.00235615
-0.434216
0.434571
-0.00153213
-0.000200835
-0.61603
0.617763
0.00327478
-0.00667084
-0.757001
0.760397
0.0104906
-0.0144159
-0.882024
0.885949
0.0184042
-0.0223104
-1.00846
1.01236
0.0266202
-0.0300337
-1.14764
1.15106
0.0340755
-0.0372089
-1.29855
1.30168
0.0399263
-0.0417978
-1.46043
1.4623
0.0426454
-0.0416689
-1.63208
1.63111
0.039262
-0.0354407
-1.5288
1.52498
0.0312715
-0.0258281
-1.21604
1.21059
0.0205398
-0.014614
-0.977225
0.971299
0.00867452
-0.00297664
-0.755791
0.750093
-0.00140338
0.00471133
-0.510748
0.50744
-0.00646523
0.00703822
-0.278162
0.277589
-0.00654633
0.0054618
-0.114432
0.115516
-0.00420573
0.00274669
-0.0249378
0.0263968
-0.00161248
0.000664091
0.00797685
-0.00702846
-0.00016301
0.00514579
-0.00498278
-0.0772048
0.0765319
0.000672949
-0.00174799
0.00146997
-0.437263
0.437541
-0.000213575
-0.00160663
-0.621412
0.623232
0.00474463
-0.00795144
-0.763515
0.766722
0.0115743
-0.0150523
-0.889499
0.892977
0.0191177
-0.0226563
-1.01624
1.01978
0.0268532
-0.0306432
-1.15489
1.15868
0.0342365
-0.0376145
-1.30481
1.30818
0.0406438
-0.0424825
-1.46401
1.46584
0.0435442
-0.0431823
-1.63028
1.62992
0.0410396
-0.0376629
-1.52096
1.51758
0.0335656
-0.0284721
-1.20516
1.20006
0.0235378
-0.0177295
-0.964876
0.959068
0.0121451
-0.00645198
-0.743044
0.737351
0.00183134
0.00188516
-0.50149
0.497774
-0.00395091
0.00497873
-0.275049
0.274021
-0.00511939
0.00455366
-0.115386
0.115952
-0.00368878
0.00255232
-0.0272223
0.0283588
-0.00157374
0.000698555
0.00623415
-0.00535897
-0.000191452
0.00476631
-0.00457486
-0.0778996
0.0774133
0.000486329
-0.000694265
0.000304507
-0.440462
0.440851
0.00102483
-0.00310356
-0.626541
0.62862
0.00611186
-0.00913144
-0.769709
0.772729
0.0128134
-0.0161077
-0.896399
0.899693
0.0199759
-0.0236014
-1.02377
1.02739
0.0276554
-0.0313622
-1.16228
1.16599
0.0351199
-0.0384605
-1.31143
1.31477
0.041594
-0.0440977
-1.46792
1.47042
0.0454841
-0.0452872
-1.62942
1.62923
0.0437035
-0.0405206
-1.51404
1.51086
0.0368969
-0.0323042
-1.1949
1.19031
0.0274222
-0.0218643
-0.952945
0.947388
0.0164802
-0.0107201
-0.730601
0.72484