/*--------------------------------*- C++ -*----------------------------------*\
| =========                 |                                                 |
| \\      /  F ield         | OpenFOAM: The Open Source CFD Toolbox           |
|  \\    /   O peration     | Version:  2306                                  |
|   \\  /    A nd           | Website:  www.openfoam.com                      |
|    \\/     M anipulation  |                                                 |
\*---------------------------------------------------------------------------*/
FoamFile
{
    version     2.0;
    format      ascii;
    arch        "LSB;label=32;scalar=64";
    class       volVectorField;
    location    "74";
    object      U;
}
// * * * * * * * * * * * * * * * * * * * * * * * * * * * * * * * * * * * * * //

dimensions      [0 1 -1 0 0 0 0];

internalField   nonuniform List<vector> 
8800
(
(0.984956 -0.0884513 0)
(1.00212 -0.0568236 0)
(0.999653 -0.030556 0)
(1.00001 -0.0158622 0)
(1.0001 -0.00872093 0)
(1.00012 -0.00508459 0)
(1.00007 -0.00299492 0)
(1.00003 -0.00168382 0)
(0.999997 -0.000778927 0)
(1.00007 -7.60526e-05 0)
(0.999971 0.000638352 0)
(0.999984 0.00140053 0)
(1.00003 0.00242239 0)
(1.00006 0.00401187 0)
(1.00005 0.00671886 0)
(1.00002 0.0117427 0)
(0.999854 0.0220513 0)
(0.999174 0.0411644 0)
(1.00748 0.076894 0)
(0.773656 0.0450715 0)
(0.361018 -0.0151702 0)
(1.04558 -0.0741941 0)
(1.08711 -0.0678786 0)
(1.04776 -0.0522869 0)
(1.02461 -0.0383809 0)
(1.01244 -0.0260991 0)
(1.00653 -0.0167452 0)
(1.00364 -0.0102199 0)
(1.00219 -0.00556396 0)
(1.00151 -0.00194726 0)
(1.00137 0.00128669 0)
(1.00171 0.00461683 0)
(1.0027 0.00852361 0)
(1.00473 0.0138457 0)
(1.00881 0.0215626 0)
(1.01734 0.0323754 0)
(1.03445 0.0457089 0)
(1.06549 0.0598104 0)
(1.09407 0.0729137 0)
(0.842189 0.0557174 0)
(0.217111 -0.00164562 0)
(1.07589 -0.0503404 0)
(1.09985 -0.0486952 0)
(1.06468 -0.0401413 0)
(1.04002 -0.0329732 0)
(1.02384 -0.0256658 0)
(1.01404 -0.0182645 0)
(1.00854 -0.0115168 0)
(1.00567 -0.00569465 0)
(1.00447 -0.000361353 0)
(1.00477 0.00478524 0)
(1.00661 0.0101167 0)
(1.01057 0.0161463 0)
(1.01786 0.0230319 0)
(1.03048 0.0302795 0)
(1.05063 0.0372696 0)
(1.08036 0.0446 0)
(1.10617 0.0518038 0)
(0.942765 0.0413482 0)
(0.216416 0.0016692 0)
(0.175957 -0.000644409 0)
(1.01875 -0.0353897 0)
(1.10562 -0.0413866 0)
(1.07817 -0.0362154 0)
(1.05293 -0.0301813 0)
(1.03566 -0.0244421 0)
(1.02362 -0.0186918 0)
(1.01568 -0.0126439 0)
(1.011 -0.00648148 0)
(1.00892 -0.000189946 0)
(1.00942 0.00601067 0)
(1.01252 0.0119715 0)
(1.01859 0.0177618 0)
(1.02831 0.0233002 0)
(1.04262 0.0287068 0)
(1.06334 0.034351 0)
(1.09376 0.040305 0)
(1.09408 0.0419183 0)
(0.828664 0.0228063 0)
(0.17478 0.000669514 0)
(0.154435 -0.00048618 0)
(0.957457 -0.025528 0)
(1.10417 -0.0350453 0)
(1.08802 -0.0325919 0)
(1.06152 -0.0280296 0)
(1.04364 -0.0230171 0)
(1.0312 -0.0177289 0)
(1.02247 -0.0121941 0)
(1.01681 -0.00625936 0)
(1.01408 0.000232095 0)
(1.01469 0.00671999 0)
(1.01851 0.0126035 0)
(1.02542 0.0178732 0)
(1.03562 0.0227973 0)
(1.05026 0.0275891 0)
(1.07194 0.0320496 0)
(1.10064 0.0359127 0)
(1.069 0.0340337 0)
(0.740962 0.0143917 0)
(0.152659 0.000514113 0)
(0.139937 -0.000357247 0)
(0.900589 -0.0191765 0)
(1.09659 -0.030085 0)
(1.09617 -0.0291878 0)
(1.0692 -0.0254207 0)
(1.05049 -0.021301 0)
(1.03752 -0.0165504 0)
(1.02846 -0.0112727 0)
(1.02243 -0.00553107 0)
(1.01935 0.000842892 0)
(1.01992 0.00722024 0)
(1.02393 0.0128596 0)
(1.03103 0.0177926 0)
(1.04151 0.0222219 0)
(1.05676 0.0261603 0)
(1.07935 0.0296239 0)
(1.10286 0.0322755 0)
(1.03696 0.0282011 0)
(0.674169 0.0102839 0)
(0.137429 0.00039 0)
(0.129323 -0.000272526 0)
(0.850958 -0.0147957 0)
(1.08428 -0.0259644 0)
(1.10189 -0.0262674 0)
(1.07607 -0.0229403 0)
(1.05685 -0.0192713 0)
(1.04343 -0.0150353 0)
(1.034 -0.010124 0)
(1.0277 -0.00458905 0)
(1.0244 0.00159785 0)
(1.02483 0.00774922 0)
(1.02882 0.0131063 0)
(1.03604 0.0176263 0)
(1.04681 0.0214445 0)
(1.06244 0.0247508 0)
(1.08546 0.0277229 0)
(1.10197 0.0294862 0)
(1.00203 0.0237018 0)
(0.622067 0.00791201 0)
(0.125922 0.000311997 0)
(0.121239 -0.000209624 0)
(0.808757 -0.0116175 0)
(1.06907 -0.0223487 0)
(1.10547 -0.0236136 0)
(1.08235 -0.0207173 0)
(1.0627 -0.0172627 0)
(1.049 -0.0133128 0)
(1.0393 -0.00872611 0)
(1.03272 -0.00345754 0)
(1.02918 0.0025044 0)
(1.02942 0.00839102 0)
(1.03334 0.0133961 0)
(1.04062 0.0174485 0)
(1.05147 0.0207742 0)
(1.06733 0.0236795 0)
(1.09071 0.0263392 0)
(1.09818 0.0271924 0)
(0.96666 0.0201744 0)
(0.580141 0.00637181 0)
(0.116754 0.000257386 0)
(0.114987 -0.000161204 0)
(0.773247 -0.00923532 0)
(1.05237 -0.0191609 0)
(1.10789 -0.0211517 0)
(1.08827 -0.0186281 0)
(1.06821 -0.0153231 0)
(1.05426 -0.011532 0)
(1.04437 -0.00714377 0)
(1.03754 -0.00211033 0)
(1.03371 0.00359792 0)
(1.03372 0.00917982 0)
(1.0375 0.0138045 0)
(1.04471 0.0174419 0)
(1.05556 0.0203832 0)
(1.07163 0.0229594 0)
(1.09468 0.0252667 0)
(1.09153 0.025303 0)
(0.932171 0.0174582 0)
(0.545382 0.00532134 0)
(0.109183 0.000219048 0)
(0.110126 -0.000122615 0)
(0.743498 -0.00738454 0)
(1.03525 -0.0163294 0)
(1.10937 -0.0188284 0)
(1.0939 -0.0166095 0)
(1.07354 -0.0133967 0)
(1.05932 -0.00969435 0)
(1.04923 -0.00542107 0)
(1.04217 -0.000551256 0)
(1.03805 0.00491422 0)
(1.03774 0.0101783 0)
(1.04129 0.0144418 0)
(1.04836 0.0177099 0)
(1.05916 0.020302 0)
(1.07543 0.0225854 0)
(1.09735 0.0245104 0)
(1.08241 0.0237701 0)
(0.89913 0.0154045 0)
(0.515723 0.00459298 0)
(0.102719 0.0001926 0)
(0.106369 -9.05864e-05 0)
(0.718695 -0.00588996 0)
(1.01853 -0.0137824 0)
(1.11004 -0.0165772 0)
(1.09943 -0.0146302 0)
(1.07881 -0.011428 0)
(1.06428 -0.00775283 0)
(1.05396 -0.00353535 0)
(1.04664 0.00123159 0)
(1.04218 0.00649523 0)
(1.04149 0.011463 0)
(1.04472 0.0153889 0)
(1.05159 0.0183033 0)
(1.06234 0.0205565 0)
(1.07879 0.0225741 0)
(1.09866 0.0240855 0)
(1.07118 0.022593 0)
(0.867643 0.0138995 0)
(0.489692 0.00409623 0)
(0.0970152 0.000175452 0)
(0.103526 -6.27953e-05 0)
(0.698198 -0.00463425 0)
(1.00285 -0.011453 0)
(1.11006 -0.0143608 0)
(1.10482 -0.0126043 0)
(1.08408 -0.00936363 0)
(1.06923 -0.00565598 0)
(1.05864 -0.00143168 0)
(1.051 0.00328351 0)
(1.04612 0.00839879 0)
(1.04496 0.0131042 0)
(1.04781 0.016708 0)
(1.05445 0.0192736 0)
(1.0651 0.021193 0)
(1.08169 0.0229496 0)
(1.09891 0.0240695 0)
(1.05811 0.0217858 0)
(0.837539 0.0128559 0)
(0.466187 0.00377508 0)
(0.0918084 0.000165675 0)
(0.101479 -3.71643e-05 0)
(0.681538 -0.00352947 0)
(0.988656 -0.00927078 0)
(1.10963 -0.0120931 0)
(1.11005 -0.0104449 0)
(1.08945 -0.0071417 0)
(1.07424 -0.00334087 0)
(1.06332 0.000956011 0)
(1.0553 0.00567653 0)
(1.04991 0.0106972 0)
(1.04819 0.0151715 0)
(1.05057 0.0184643 0)
(1.05692 0.0206789 0)
(1.06746 0.0222613 0)
(1.08409 0.0237421 0)
(1.09815 0.0244418 0)
(1.04333 0.0213596 0)
(0.808467 0.0122019 0)
(0.444333 0.00359173 0)
(0.0868913 0.000161724 0)
(0.100165 -1.18654e-05 0)
(0.668412 -0.00250653 0)
(0.976316 -0.00716197 0)
(1.10908 -0.00971526 0)
(1.11524 -0.00809156 0)
(1.09498 -0.00468685 0)
(1.07939 -0.000728004 0)
(1.06809 0.00370467 0)
(1.05959 0.00849885 0)
(1.05358 0.013477 0)
(1.05117 0.017748 0)
(1.05301 0.0207377 0)
(1.05901 0.0225901 0)
(1.06938 0.0238222 0)
(1.08603 0.0250254 0)
(1.09615 0.0252559 0)
(1.02688 0.0213069 0)
(0.779982 0.0118849 0)
(0.423419 0.0035208 0)
(0.0820986 0.000162469 0)
(0.0995691 1.59419e-05 0)
(0.658668 -0.00151252 0)
(0.96615 -0.00505559 0)
(1.10873 -0.00716283 0)
(1.12054 -0.00547028 0)
(1.10078 -0.00191346 0)
(1.08476 0.00227397 0)
(1.073 0.00691246 0)
(1.06393 0.0118523 0)
(1.05716 0.0168424 0)
(1.05393 0.0209355 0)
(1.05511 0.0236247 0)
(1.06069 0.0251029 0)
(1.07088 0.025973 0)
(1.08742 0.0268571 0)
(1.09286 0.0265317 0)
(1.00872 0.0216725 0)
(0.751585 0.0118792 0)
(0.402845 0.00354863 0)
(0.0772931 0.000167385 0)
(0.0997118 3.74441e-05 0)
(0.652285 -0.000503671 0)
(0.958464 -0.0028789 0)
(1.10894 -0.00436286 0)
(1.12611 -0.00249446 0)
(1.10694 0.00127888 0)
(1.09046 0.00576964 0)
(1.07815 0.0106982 0)
(1.06837 0.0158588 0)
(1.06069 0.0209166 0)
(1.05648 0.0248547 0)
(1.05686 0.0272379 0)
(1.06195 0.0283388 0)
(1.07191 0.028819 0)
(1.08803 0.0293277 0)
(1.08794 0.0283416 0)
(0.98864 0.0224834 0)
(0.722707 0.012169 0)
(0.382058 0.00366549 0)
(0.07235 0.000175974 0)
(0.100659 7.60964e-05 0)
(0.649374 0.000541861 0)
(0.953573 -0.000552335 0)
(1.11007 -0.00123404 0)
(1.13217 0.000931233 0)
(1.11358 0.00500534 0)
(1.09658 0.00989442 0)
(1.08361 0.0152033 0)
(1.07298 0.0206652 0)
(1.06419 0.0258479 0)
(1.0588 0.0296488 0)
(1.05824 0.0317089 0)
(1.06275 0.0324212 0)
(1.0724 0.0324858 0)
(1.08773 0.032567 0)
(1.08115 0.0307738 0)
(0.966331 0.0237796 0)
(0.692726 0.0127452 0)
(0.360542 0.0038636 0)
(0.0671597 0.000187507 0)
(0.102577 0.000114598 0)
(0.650279 0.00173254 0)
(0.951831 0.00200303 0)
(1.11256 0.00232419 0)
(1.13891 0.00490032 0)
(1.12084 0.00941836 0)
(1.10326 0.0148117 0)
(1.08949 0.0206007 0)
(1.07781 0.0264512 0)
(1.0677 0.0318126 0)
(1.06089 0.0354839 0)
(1.05922 0.037177 0)
(1.06303 0.0374914 0)
(1.07232 0.0371054 0)
(1.08622 0.0366924 0)
(1.07221 0.033921 0)
(0.941348 0.0255981 0)
(0.660967 0.0136014 0)
(0.33781 0.00413488 0)
(0.0616272 0.000201351 0)
(0.10555 0.000166159 0)
(0.65546 0.00320149 0)
(0.953728 0.00495176 0)
(1.1169 0.00642932 0)
(1.14657 0.00958572 0)
(1.1289 0.0147016 0)
(1.11063 0.0207191 0)
(1.09589 0.0271054 0)
(1.08294 0.0334353 0)
(1.07121 0.0390205 0)
(1.06273 0.0425435 0)
(1.05977 0.0438392 0)
(1.06273 0.043719 0)
(1.07158 0.0428325 0)
(1.0834 0.0419012 0)
(1.06071 0.0378948 0)
(0.913094 0.0279793 0)
(0.6267 0.0147276 0)
(0.313403 0.00446897 0)
(0.0556756 0.00021647 0)
(0.10986 0.000233349 0)
(0.665312 0.00490326 0)
(0.959707 0.00842131 0)
(1.12357 0.0112537 0)
(1.15542 0.0151863 0)
(1.13797 0.0210861 0)
(1.11886 0.0278762 0)
(1.10293 0.0349911 0)
(1.08841 0.0418877 0)
(1.07473 0.0477187 0)
(1.06428 0.0510498 0)
(1.05982 0.0518849 0)
(1.0618 0.0512902 0)
(1.07012 0.0498352 0)
(1.07933 0.0483029 0)
(1.0461 0.0428055 0)
(0.88081 0.0309423 0)
(0.589142 0.0160961 0)
(0.286907 0.00484731 0)
(0.0492539 0.000231272 0)
(0.115851 0.000324118 0)
(0.680646 0.00702834 0)
(0.970429 0.0126203 0)
(1.13316 0.017041 0)
(1.16587 0.0219723 0)
(1.14832 0.0288939 0)
(1.12815 0.0366326 0)
(1.11072 0.0446126 0)
(1.09425 0.0521418 0)
(1.07823 0.0581949 0)
(1.06548 0.061244 0)
(1.05919 0.0615018 0)
(1.06015 0.0603921 0)
(1.06792 0.058323 0)
(1.07371 0.0560875 0)
(1.02767 0.0487266 0)
(0.843568 0.0344711 0)
(0.5475 0.0176498 0)
(0.258004 0.00523982 0)
(0.0423538 0.000243577 0)
(0.124038 0.000454248 0)
(0.702403 0.00980766 0)
(0.986762 0.0178561 0)
(1.14632 0.0241358 0)
(1.17839 0.0303374 0)
(1.16026 0.038583 0)
(1.1387 0.0474671 0)
(1.11934 0.0564336 0)
(1.10044 0.0646058 0)
(1.08161 0.0707764 0)
(1.0662 0.0733821 0)
(1.05788 0.072923 0)
(1.05771 0.0711715 0)
(1.06488 0.0684156 0)
(1.06614 0.0651859 0)
(1.00448 0.0557098 0)
(0.800278 0.0384885 0)
(0.501033 0.0192847 0)
(0.226542 0.00560188 0)
(0.0350274 0.00025068 0)
(0.135155 0.000640586 0)
(0.731827 0.0136211 0)
(1.00987 0.0245972 0)
(1.16384 0.0330882 0)
(1.1936 0.0408843 0)
(1.17416 0.0508319 0)
(1.15069 0.0610555 0)
(1.12879 0.0710643 0)
(1.10687 0.0797714 0)
(1.08471 0.0858194 0)
(1.06629 0.0877146 0)
(1.05579 0.0863643 0)
(1.05443 0.0839107 0)
(1.06062 0.0802686 0)
(1.05585 0.0759081 0)
(0.975288 0.0637029 0)
(0.749741 0.0428133 0)
(0.449191 0.0208335 0)
(0.192643 0.00587209 0)
(0.0274067 0.000249417 0)
(0.150463 0.00093703 0)
(0.770943 0.019087 0)
(1.0414 0.0336377 0)
(1.18667 0.0448457 0)
(1.21231 0.054834 0)
(1.19035 0.0666912 0)
(1.16416 0.0783635 0)
(1.13892 0.0892891 0)
(1.11328 0.0982031 0)
(1.08726 0.103688 0)
(1.06554 0.104468 0)
(1.05273 0.101966 0)
(1.05018 0.0986884 0)
(1.05486 0.0942799 0)
(1.04194 0.088251 0)
(0.938527 0.0724827 0)
(0.690777 0.0471126 0)
(0.391832 0.0220544 0)
(0.156827 0.00597593 0)
(0.0197187 0.000236721 0)
(0.172187 0.00144975 0)
(0.823038 0.027363 0)
(1.08405 0.0465525 0)
(1.21595 0.0613008 0)
(1.23503 0.0741118 0)
(1.20891 0.0877881 0)
(1.17885 0.100711 0)
(1.14931 0.112046 0)
(1.11921 0.120494 0)
(1.08886 0.124708 0)
(1.06366 0.123808 0)
(1.04856 0.119819 0)
(1.04483 0.115522 0)
(1.04763 0.110191 0)
(1.0231 0.102068 0)
(0.892239 0.0815755 0)
(0.622578 0.0508841 0)
(0.329625 0.022656 0)
(0.120177 0.00583973 0)
(0.0122968 0.000209438 0)
(0.203769 0.00258898 0)
(0.893909 0.0411647 0)
(1.14132 0.0672157 0)
(1.25205 0.086024 0)
(1.26155 0.101551 0)
(1.22922 0.116492 0)
(1.19393 0.129703 0)
(1.15912 0.140307 0)
(1.12396 0.147169 0)
(1.08901 0.149103 0)
(1.06033 0.145792 0)
(1.04309 0.139925 0)
(1.03827 0.134427 0)
(1.03827 0.128073 0)
(0.997487 0.116898 0)
(0.834163 0.0901564 0)
(0.545447 0.0534795 0)
(0.264796 0.0224364 0)
(0.0846304 0.00544948 0)
(0.00564801 0.000167439 0)
(0.246808 0.00893046 7.44117e-20)
(0.987568 0.0686534 6.68551e-20)
(1.21086 0.102026 -2.36499e-20)
(1.29191 0.122656 0)
(1.28899 0.140789 -6.28474e-34)
(1.24909 0.15514 9.2467e-21)
(1.20782 0.166847 -1.69417e-20)
(1.16725 0.175286 0)
(1.12672 0.179471 3.54682e-34)
(1.08695 0.178327 -2.15594e-20)
(1.05465 0.172148 0)
(1.03522 0.164308 -2.5886e-20)
(1.02972 0.157943 -7.65376e-20)
(1.0254 0.151203 -3.61574e-20)
(0.960424 0.135113 -1.09062e-20)
(0.757484 0.0993233 -6.48516e-21)
(0.454207 0.0550033 0)
(0.1961 0.021731 4.51759e-21)
(0.0502681 0.00504672 5.31127e-21)
(-0.000266875 0.000108169 9.43775e-20)
(0.27682 0.0245383 4.99673e-20)
(1.06506 0.111856 1.087e-21)
(1.26822 0.15164 6.07152e-21)
(1.32773 0.172382 0)
(1.31312 0.190347 -3.10981e-20)
(1.26622 0.202525 -3.57895e-20)
(1.21906 0.211929 -1.69143e-20)
(1.17271 0.217911 -6.11711e-20)
(1.12665 0.219386 0)
(1.08176 0.215261 9.16415e-20)
(1.0455 0.206378 9.14078e-20)
(1.02375 0.196671 2.72324e-20)
(1.01593 0.18877 9.99449e-20)
(1.00151 0.179963 1.40777e-19)
(0.900922 0.155823 0)
(0.652205 0.108084 1.98527e-19)
(0.346947 0.05565 2.83953e-19)
(0.125093 0.0201932 3.14172e-19)
(0.016191 0.00343157 -3.57427e-19)
(-0.00607728 -0.000507833 -6.63454e-21)
(0.278078 0.0408797 0)
(1.11425 0.167908 7.75282e-21)
(1.30706 0.212591 0)
(1.35567 0.232792 -3.7155e-20)
(1.33217 0.247624 0)
(1.27939 0.25588 -6.88061e-20)
(1.22672 0.261532 3.41608e-20)
(1.17491 0.263921 -1.21646e-19)
(1.12363 0.261778 -3.18815e-21)
(1.07392 0.253983 4.70453e-20)
(1.03401 0.241907 2.00854e-19)
(1.01013 0.230018 -3.67506e-22)
(0.999774 0.220357 -7.25407e-20)
(0.975125 0.208263 -1.32292e-19)
(0.846099 0.175267 1.56636e-19)
(0.5744 0.115334 -2.76906e-19)
(0.281821 0.0560584 -3.64145e-20)
(0.0862895 0.0184253 0)
(-0.0022556 0.00107415 -3.25738e-23)
(-0.00940219 -0.00132723 0)
(0.271476 0.0548863 6.97837e-20)
(1.14089 0.227162 -3.91458e-20)
(1.33112 0.278096 -3.64948e-20)
(1.37429 0.2984 1.67055e-20)
(1.34469 0.309192 -2.85309e-20)
(1.2875 0.312862 1.42912e-19)
(1.23032 0.31405 7.06493e-20)
(1.17381 0.312156 0)
(1.11789 0.305785 -2.32457e-19)
(1.06382 0.293773 0)
(1.0206 0.278061 -1.04788e-19)
(0.994758 0.263583 -1.30507e-19)
(0.981883 0.251675 -7.87847e-20)
(0.948517 0.235421 -9.59699e-20)
(0.800933 0.193447 0)
(0.522257 0.123278 0)
(0.244448 0.0579372 -2.36256e-19)
(0.0635717 0.0168012 4.64688e-20)
(-0.0147171 -0.00178243 -2.71043e-20)
(-0.0121885 -0.00236514 -3.12286e-20)
(0.263478 0.0671444 -5.30445e-21)
(1.15249 0.286193 0)
(1.34436 0.344437 6.22553e-20)
(1.38455 0.365338 4.39526e-20)
(1.35072 0.372164 6.76842e-20)
(1.29035 0.37123 0)
(1.22965 0.367823 6.76292e-20)
(1.1693 0.361424 1.33068e-19)
(1.10941 0.350549 1.18004e-19)
(1.05146 0.334004 2.20929e-19)
(1.0052 0.314329 0)
(0.977461 0.296936 -2.80634e-19)
(0.962218 0.28243 -1.69584e-19)
(0.92176 0.26166 -1.00334e-19)
(0.764883 0.211261 6.13908e-19)
(0.489129 0.132297 7.27645e-20)
(0.224125 0.0610298 3.40903e-19)
(0.0506949 0.0154409 -1.60639e-18)
(-0.0234221 -0.00496376 9.44967e-19)
(-0.014683 -0.00359616 -1.12189e-18)
(0.255681 0.0781577 2.56788e-20)
(1.15442 0.343129 1.15478e-22)
(1.34969 0.409698 -3.71764e-21)
(1.38807 0.431703 -3.49202e-20)
(1.35123 0.434803 -5.14347e-20)
(1.28849 0.429434 3.58193e-21)
(1.22502 0.42157 -7.33373e-20)
(1.16152 0.410717 1.36343e-19)
(1.09826 0.395321 -2.53583e-19)
(1.03687 0.374146 0)
(0.987801 0.350317 -1.26606e-19)
(0.958198 0.329775 -3.12516e-21)
(0.940694 0.312427 -1.85574e-19)
(0.895118 0.287227 0)
(0.735548 0.229371 -1.32687e-19)
(0.468331 0.142739 -3.13184e-19)
(0.214191 0.0654596 8.31272e-19)
(0.0451809 0.0147424 -8.18137e-19)
(-0.028213 -0.00790631 1.15435e-18)
(-0.0165465 -0.00487074 -1.18204e-18)
(0.248955 0.0882537 -8.40425e-22)
(1.15025 0.397265 8.71209e-21)
(1.34928 0.472869 5.32754e-21)
(1.38629 0.496305 9.45538e-21)
(1.34728 0.496076 -2.49626e-20)
(1.28275 0.486544 0)
(1.21705 0.474462 -6.58882e-20)
(1.15093 0.459338 -1.42018e-19)
(1.08474 0.439547 -1.31069e-19)
(1.02027 0.413791 0)
(0.968557 0.385767 -1.30596e-19)
(0.937068 0.36196 -1.63031e-19)
(0.917456 0.341656 2.01195e-19)
(0.868536 0.312063 -1.22266e-19)
(0.710711 0.24787 -5.78211e-19)
(0.454732 0.154642 3.41108e-19)
(0.21144 0.0713087 1.00788e-19)
(0.0452323 0.0151715 0)
(-0.0293634 -0.0100925 -1.11417e-18)
(-0.0175643 -0.0060126 -4.03074e-20)
(0.243436 0.0977608 1.00165e-20)
(1.14231 0.448404 -1.48362e-20)
(1.34463 0.533488 -5.5584e-21)
(1.38047 0.558425 4.02972e-20)
(1.33982 0.555323 -8.33785e-20)
(1.27393 0.541992 1.21372e-19)
(1.20643 0.525986 1.42046e-19)
(1.13807 0.50684 -2.26606e-19)
(1.06929 0.482863 8.25106e-20)
(1.00199 0.452666 -5.41728e-19)
(0.947769 0.420504 -1.48485e-19)
(0.914398 0.393413 0)
(0.892781 0.370141 2.18481e-19)
(0.841574 0.336364 2.6222e-19)
(0.687973 0.266773 3.11783e-19)
(0.444419 0.16757 -3.7102e-19)
(0.211415 0.078384 -1.0929e-19)
(0.048506 0.017005 1.28612e-19)
(-0.0274446 -0.0111739 0)
(-0.0176382 -0.00684843 -8.76988e-20)
(0.239061 0.106836 -1.51144e-19)
(1.1323 0.496655 8.63088e-20)
(1.33702 0.591343 9.31216e-21)
(1.37165 0.617726 1.81072e-20)
(1.32968 0.612158 -3.22176e-20)
(1.26275 0.595396 -8.20558e-21)
(1.19377 0.575811 -1.56154e-19)
(1.12348 0.552947 -8.22195e-20)
(1.05237 0.525037 -2.28014e-19)
(0.982424 0.490603 6.51023e-22)
(0.925785 0.454413 -4.64003e-19)
(0.890542 0.424099 3.95219e-19)
(0.866982 0.397883 -2.40764e-19)
(0.814223 0.360191 2.89652e-19)
(0.665977 0.285506 0)
(0.434668 0.181075 -2.02463e-19)
(0.212045 0.086325 6.6367e-22)
(0.0533007 0.0200509 -5.62502e-19)
(-0.023629 -0.0111225 -8.2052e-20)
(-0.0169884 -0.00734018 0)
(0.235741 0.115624 0)
(1.12123 0.542248 9.88985e-20)
(1.32739 0.646879 4.2851e-20)
(1.36065 0.674092 -9.89284e-21)
(1.31757 0.666382 -4.77646e-20)
(1.24983 0.646546 0)
(1.17962 0.623728 -6.76553e-20)
(1.10764 0.597472 -2.07564e-21)
(1.03439 0.56593 4.89052e-19)
(0.961942 0.527502 -7.40746e-20)
(0.902931 0.487433 -3.35587e-19)
(0.865821 0.453969 2.05097e-19)
(0.840423 0.424891 -4.44427e-21)
(0.786439 0.383314 3.08716e-19)
(0.64368 0.303744 1.88767e-19)
(0.423901 0.194622 -4.37535e-19)
(0.211847 0.0945208 5.16183e-19)
(0.0580843 0.0238897 1.52951e-19)
(-0.0188275 -0.0101667 6.2648e-19)
(-0.0157882 -0.0075075 -1.6495e-18)
(0.233381 0.124326 -4.95924e-20)
(1.10984 0.585372 6.84874e-20)
(1.31634 0.699403 -4.71907e-20)
(1.34811 0.727518 -5.53732e-21)
(1.30404 0.717908 0)
(1.23567 0.695319 -4.8442e-20)
(1.16443 0.669617 2.3123e-19)
(1.09096 0.640307 1.79152e-19)
(1.01573 0.60545 0)
(0.940843 0.563298 -1.07278e-18)
(0.879491 0.519513 9.10248e-19)
(0.840554 0.482964 0)
(0.813384 0.451036 2.82533e-19)
(0.758276 0.405597 -4.37471e-21)
(0.620371 0.321153 -6.08077e-19)
(0.411373 0.207517 2.36465e-19)
(0.20947 0.102605 0)
(0.0616532 0.0281319 8.27294e-19)
(-0.0140792 -0.00859546 0)
(-0.0143162 -0.00741185 -7.82686e-19)
(0.231866 0.132967 5.92613e-20)
(1.09855 0.626292 8.86018e-20)
(1.30452 0.748985 -4.6751e-20)
(1.33449 0.778024 0)
(1.28957 0.766717 -3.03715e-20)
(1.22071 0.741684 0)
(1.14861 0.713417 -2.22713e-19)
(1.07379 0.681387 -8.07542e-20)
(0.99669 0.643552 8.53931e-20)
(0.919417 0.597969 -5.31125e-19)
(0.855698 0.550632 9.37418e-20)
(0.814939 0.51104 0)
(0.786071 0.476201 -6.04468e-19)
(0.729831 0.426744 4.14764e-21)
(0.595833 0.337318 0)
(0.396952 0.219081 1.65011e-21)
(0.204637 0.109879 7.59853e-19)
(0.0632427 0.0320802 -7.16043e-19)
(-0.0102373 -0.0069207 2.10098e-19)
(-0.0128707 -0.00717044 0)
(0.230862 0.141478 0)
(1.08765 0.665131 1.06462e-19)
(1.29217 0.795786 6.81802e-20)
(1.32023 0.825671 -5.07529e-21)
(1.27456 0.812835 -1.85595e-21)
(1.20532 0.785642 -1.09174e-19)
(1.13247 0.755117 8.5212e-20)
(1.05643 0.72069 -9.76654e-20)
(0.977553 0.680211 3.84331e-19)
(0.897902 0.631518 -8.50766e-19)
(0.831743 0.580803 -8.52498e-21)
(0.789132 0.538159 -2.63665e-19)
(0.758596 0.500265 9.82819e-19)
(0.701163 0.44653 -5.06456e-21)
(0.570225 0.351869 -4.74473e-19)
(0.380496 0.228979 -8.38732e-19)
(0.19754 0.115789 0)
(0.0627 0.0352028 0)
(-0.00765128 -0.00554016 2.27107e-19)
(-0.0116179 -0.00691068 -1.31293e-19)
(0.230609 0.149984 8.27481e-20)
(1.0774 0.701784 -2.4143e-19)
(1.27949 0.839962 -7.29874e-20)
(1.30567 0.870518 0)
(1.2593 0.856323 -2.97324e-21)
(1.18977 0.827227 -9.02272e-20)
(1.1163 0.79473 1.99402e-19)
(1.03913 0.758217 3.78229e-19)
(0.958557 0.715432 4.98191e-19)
(0.87651 0.663963 -6.94757e-19)
(0.807794 0.610066 -7.86171e-19)
(0.763227 0.564331 7.05972e-19)
(0.731016 0.523117 0)
(0.672331 0.464636 -2.16697e-19)
(0.543891 0.364336 -5.12957e-19)
(0.362421 0.236773 -6.04137e-19)
(0.188353 0.120009 -7.10413e-19)
(0.0603757 0.0371153 2.09087e-19)
(-0.00624994 -0.00469047 -1.22322e-19)
(-0.0106096 -0.0067005 6.22058e-22)
(0.230489 0.158445 0)
(1.06791 0.736503 0)
(1.26676 0.881606 4.83913e-21)
(1.29103 0.912682 0)
(1.24403 0.897273 -2.06807e-20)
(1.17428 0.866501 5.30364e-20)
(1.1003 0.83229 0)
(1.02211 0.793984 4.37673e-20)
(0.939901 0.749225 8.30084e-19)
(0.855438 0.695338 -1.59981e-18)
(0.784 0.63849 0)
(0.737289 0.589604 -4.55667e-19)
(0.703275 0.544677 -5.94463e-21)
(0.643228 0.480798 -4.35702e-21)
(0.516974 0.374394 5.50191e-19)
(0.343017 0.242027 7.20194e-23)
(0.177543 0.122255 -1.53198e-18)
(0.0565963 0.0377638 4.50033e-19)
(-0.00585248 -0.00440485 1.32443e-19)
(-0.00983382 -0.00655276 0)
(0.23054 0.166731 -3.29432e-19)
(1.05891 0.769584 -1.62532e-19)
(1.2541 0.920807 -2.13536e-19)
(1.27651 0.952292 2.09489e-19)
(1.22895 0.935762 -6.63616e-20)
(1.15905 0.903529 0)
(1.08464 0.867844 1.16347e-19)
(1.00553 0.828021 -9.88432e-20)
(0.921755 0.781613 7.82743e-21)
(0.834865 0.725685 1.18541e-19)
(0.760498 0.666157 1.02055e-18)
(0.711335 0.61407 -1.59788e-19)
(0.675282 0.56494 -6.07802e-19)
(0.613782 0.494782 -2.52924e-19)
(0.489609 0.381616 2.9824e-19)
(0.322665 0.244428 3.63449e-22)
(0.165768 0.122291 4.12877e-19)
(0.0518436 0.0371659 -9.69469e-19)
(-0.00609627 -0.00459076 1.14077e-18)
(-0.00922341 -0.00645339 1.63836e-19)
(0.230576 0.174797 1.24747e-19)
(1.05043 0.801092 -9.13498e-20)
(1.24165 0.957672 1.22866e-20)
(1.26224 0.989485 1.34358e-19)
(1.21418 0.971905 2.74428e-20)
(1.14422 0.938388 -8.51433e-20)
(1.06946 0.901445 3.06716e-20)
(0.989517 0.860351 -4.10242e-19)
(0.904261 0.8126 -9.13128e-19)
(0.814934 0.755018 -9.53735e-19)
(0.737427 0.693161 0)
(0.685399 0.637876 -7.04712e-19)
(0.64691 0.583979 8.77726e-19)
(0.583725 0.506376 0)
(0.461809 0.385518 -6.39418e-19)
(0.302276 0.243503 3.78636e-19)
(0.154008 0.119937 -4.44114e-19)
(0.0471127 0.0355228 -5.21661e-19)
(-0.0065834 -0.00502745 -9.18309e-19)
(-0.00876046 -0.00639516 -7.05876e-19)
(0.230939 0.182739 -1.40576e-19)
(1.0423 0.831027 9.76064e-20)
(1.22947 0.992278 2.23519e-19)
(1.2483 1.02435 1.96315e-19)
(1.19985 1.0058 -4.9824e-20)
(1.12987 0.971166 -3.56982e-20)
(1.05485 0.933147 1.05039e-19)
(0.974174 0.891018 -4.18417e-19)
(0.887517 0.842213 -5.40911e-19)
(0.795778 0.783363 9.98699e-19)
(0.714918 0.719584 2.24645e-18)
(0.659536 0.661197 0)
(0.618011 0.601963 0)
(0.552675 0.515503 -2.91109e-19)
(0.433311 0.385581 0)
(0.28229 0.238247 8.13131e-19)
(0.144057 0.1143 9.54174e-19)
(0.0445318 0.0325914 0)
(-0.00619295 -0.00557627 0)
(-0.00850151 -0.00642125 7.5855e-19)
(0.231028 0.190262 1.59656e-19)
(1.03455 0.85939 1.31384e-19)
(1.21763 1.02475 1.62005e-19)
(1.23477 1.05701 -1.88908e-19)
(1.18602 1.03755 -6.69696e-20)
(1.11608 1.00194 2.14566e-20)
(1.04089 0.963011 -1.42239e-19)
(0.959572 0.920052 -1.5535e-21)
(0.871611 0.870459 -1.0177e-20)
(0.777502 0.810724 -8.38887e-21)
(0.69312 0.745494 1.15772e-18)
(0.633843 0.684216 0)
(0.588482 0.61916 8.91927e-19)
(0.520155 0.522299 6.22565e-19)
(0.403337 0.381452 1.4927e-18)
(0.262368 0.227001 4.38413e-19)
(0.137702 0.10216 -5.1306e-19)
(0.0492902 0.0245772 -3.00166e-19)
(0.00210367 -0.00777185 0)
(-0.006213 -0.00587081 8.14807e-19)
(0.231452 0.197807 -3.57976e-19)
(1.02715 0.886273 0)
(1.20612 1.05514 1.90248e-19)
(1.22169 1.08755 -1.59868e-19)
(1.17275 1.06725 9.27454e-20)
(1.1029 1.0308 4.16489e-21)
(1.02763 0.991095 2.62971e-19)
(0.945756 0.947488 -3.46445e-20)
(0.856597 0.897349 0)
(0.760195 0.837078 -1.10057e-18)
(0.672179 0.770922 -2.51859e-18)
(0.608462 0.707114 1.04187e-19)
(0.558323 0.635908 1.23486e-18)
(0.485769 0.527211 0)
(0.370538 0.373411 1.00883e-18)
(0.240039 0.208231 0)
(0.132741 0.0762846 0)
(0.0671286 -0.004804 -3.24537e-19)
(0.0418184 -0.0213678 0)
(0.0252321 0.00859247 2.18379e-19)
(0.231547 0.204775 -3.9949e-19)
(1.02004 0.912012 0)
(1.19495 1.08367 3.15951e-19)
(1.20902 1.11619 0)
(1.16001 1.09518 -5.67854e-20)
(1.09027 1.05803 0)
(1.015 1.01771 1.05504e-20)
(0.93263 0.973661 5.71567e-20)
(0.84235 0.923239 6.78177e-20)
(0.743684 0.862803 -1.20421e-18)
(0.651901 0.796305 7.51648e-20)
(0.583126 0.730556 8.40813e-19)
(0.527031 0.653059 1.20488e-18)
(0.448501 0.530889 1.62546e-19)
(0.332733 0.36279 7.92281e-19)
(0.209615 0.182755 0)
(0.116264 0.0316509 1.08094e-18)
(0.0652646 -0.0443297 -6.25327e-19)
(0.0390022 0.0401778 7.22501e-19)
(-0.0596273 0.438193 -8.56002e-19)
(0.231643 0.211559 3.30649e-19)
(1.01295 0.936404 5.19821e-19)
(1.18401 1.11063 0)
(1.19662 1.14338 9.48776e-21)
(1.14758 1.12192 1.68904e-19)
(1.07791 1.08432 -8.12291e-20)
(1.00268 1.04365 8.31255e-20)
(0.919773 0.999499 0)
(0.828327 0.949208 4.43779e-19)
(0.727285 0.88919 -6.22597e-20)
(0.631348 0.823112 0)
(0.556522 0.756206 0)
(0.49249 0.671988 1.0839e-18)
(0.405751 0.533762 -5.04029e-19)
(0.286541 0.351384 -8.06449e-19)
(0.165845 0.153544 0)
(0.0687308 0.0464971 5.42145e-19)
(0.00457502 0.437367 -6.1799e-19)
(0.0303463 1.90155 -3.3808e-19)
(0.0609489 2.81426 -4.46875e-19)
(0.23155 0.217616 -2.46258e-19)
(1.00602 0.959604 -6.64696e-19)
(1.17333 1.13603 1.86617e-19)
(1.18449 1.16901 1.54839e-19)
(1.13551 1.14723 0)
(1.06592 1.10937 -7.74539e-20)
(0.990885 1.06859 1.01136e-19)
(0.907384 1.02458 -2.70761e-20)
(0.814808 0.974744 6.66904e-20)
(0.71139 0.915644 1.14753e-18)
(0.611134 0.850718 1.27611e-18)
(0.529589 0.783784 9.48265e-19)
(0.455456 0.692953 1.0946e-18)
(0.358836 0.535036 -1.19071e-18)
(0.237322 0.343285 -1.22283e-18)
(0.112589 0.201843 0)
(0.0410648 0.843153 0)
(0.095428 2.55934 2.96611e-19)
(0.0985181 3.20561 0)
(0.101397 3.38919 6.47806e-19)
(0.234477 0.223306 0)
(0.999837 0.981895 0)
(1.16263 1.15973 0)
(1.17243 1.19291 4.66897e-20)
(1.12344 1.17086 1.53702e-19)
(1.05407 1.13305 -8.12055e-20)
(0.979504 1.09245 6.03723e-20)
(0.895406 1.04877 -2.60465e-20)
(0.801742 0.999694 5.48149e-19)
(0.696015 0.942014 -1.69229e-20)
(0.591395 0.879008 2.52341e-18)
(0.502643 0.813192 -1.09986e-19)
(0.416015 0.717136 1.32518e-19)
(0.310005 0.532767 1.73089e-19)
(0.176366 0.354985 -8.8845e-21)
(0.0945587 0.967195 3.59621e-21)
(0.134605 2.73279 -1.58852e-18)
(0.141611 3.2945 -5.87021e-19)
(0.1317 3.42503 2.91589e-19)
(0.120195 3.44706 -3.17048e-19)
(0.15474 0.175863 1.39998e-19)
(0.988981 1.00615 0)
(1.15157 1.18187 -3.62066e-19)
(1.16086 1.21552 -4.156e-19)
(1.11212 1.19353 3.63776e-19)
(1.04322 1.15599 9.50437e-20)
(0.968417 1.11527 -5.56173e-20)
(0.883925 1.0722 2.69497e-19)
(0.789276 1.02421 -4.43891e-19)
(0.681444 0.968468 0)
(0.572532 0.908184 1.23689e-18)
(0.476211 0.844236 -7.75513e-19)
(0.376805 0.747663 0)
(0.253077 0.528056 1.57413e-19)
(0.136063 0.71876 3.80476e-19)
(0.150184 2.51153 -4.39398e-19)
(0.204407 3.32206 4.84154e-19)
(0.186111 3.43613 2.59284e-19)
(0.154881 3.4578 2.83255e-19)
(0.134109 3.4682 4.50636e-19)
(0.274061 0.260784 -2.48059e-19)
(0.972239 1.01528 0)
(1.13304 1.20716 3.99856e-19)
(1.14553 1.24596 4.52648e-19)
(1.09455 1.22662 -3.99276e-19)
(1.02491 1.18946 -1.38668e-19)
(0.949098 1.15034 1.90191e-20)
(0.864073 1.10851 2.15444e-20)
(0.768038 1.06273 4.17214e-19)
(0.657298 1.01099 9.82194e-19)
(0.542724 0.957196 6.93133e-20)
(0.434495 0.897257 6.90918e-19)
(0.303656 0.780958 1.24361e-19)
(0.209013 0.897799 -1.59068e-19)
(0.224284 2.36248 -3.52451e-19)
(0.284193 3.32348 3.25941e-19)
(0.267665 3.46273 -3.63919e-19)
(0.232686 3.48519 -2.09701e-19)
(0.196678 3.51299 -1.65094e-19)
(0.146267 3.50743 -1.58612e-20)
(0.263055 0.258229 0)
(0.969734 1.03798 1.15484e-19)
(1.12442 1.23057 -8.2854e-20)
(1.13471 1.26963 -5.42453e-20)
(1.08351 1.2498 -2.77078e-19)
(1.01381 1.21284 1.44417e-19)
(0.937671 1.17388 3.13411e-21)
(0.852408 1.13287 1.88201e-20)
(0.755766 1.08857 -4.31231e-19)
(0.64356 1.03973 -2.64853e-20)
(0.525819 0.990873 -2.2374e-18)
(0.411589 0.934714 9.90698e-20)
(0.28336 0.846338 -1.16661e-19)
(0.250864 1.47891 -1.47316e-19)
(0.325247 3.1049 3.50672e-20)
(0.343964 3.45998 2.46495e-22)
(0.303623 3.51536 5.18026e-19)
(0.267025 3.54289 2.45726e-19)
(0.218894 3.56638 -4.82659e-20)
(0.16179 3.5628 -7.13388e-20)
(0.247446 0.256302 2.90385e-19)
(0.965746 1.06321 7.92543e-19)
(1.11539 1.25603 -2.3811e-19)
(1.12326 1.29466 -2.05215e-19)
(1.07184 1.27434 0)
(1.00226 1.23742 2.61572e-19)
(0.926102 1.19871 3.35751e-20)
(0.840875 1.15849 1.58599e-20)
(0.74395 1.11579 -4.85937e-20)
(0.63083 1.07016 -8.80121e-19)
(0.510828 1.02669 -1.02877e-18)
(0.392337 0.973766 -8.02466e-19)
(0.285175 0.978181 -8.91148e-19)
(0.321659 2.21512 9.10832e-19)
(0.412606 3.37202 7.36557e-19)
(0.38851 3.51647 0)
(0.342925 3.56175 0)
(0.305035 3.60229 -3.76614e-20)
(0.255553 3.66086 0)
(0.174725 3.63785 -2.41646e-20)
(0.23707 0.258151 -4.36395e-19)
(0.959682 1.08932 -6.75472e-19)
(1.1049 1.28268 0)
(1.11044 1.32039 1.12969e-20)
(1.05889 1.29949 -3.01456e-19)
(0.989603 1.2625 4.25168e-19)