0.490941 	1.04518 	0.00611515 	3.00279 	0
0.561075 	1.04518 	0.00611515 	3.00279 	0
0.63121 	1.04518 	0.00611515 	3.00279 	0
0.701344 	1.04518 	0.00611515 	3.00279 	0
0.771478 	1.04518 	0.00611515 	3.00279 	0
0.841613 	1.04518 	0.00611515 	3.00279 	0
0.911747 	1.04518 	0.00611515 	3.00279 	0
0.981881 	1.04518 	0.00611515 	3.00279 	0
1.05202 	1.04518 	0.00611515 	3.00279 	0
1.12215 	1.04518 	0.00611515 	3.00279 	0
1.19228 	1.04518 	0.00611515 	3.00279 	0
1.26242 	1.01905 	0.0115072 	3.00803 	0
1.33255 	1.01905 	0.0115072 	3.00803 	0
1.40269 	1.01905 	0.0115072 	3.00803 	0
1.47282 	1.01905 	0.0115072 	3.00803 	0
1.54296 	1.01905 	0.0115072 	3.00803 	0
1.61309 	1.01905 	0.0115072 	3.00803 	0
1.68323 	1.01905 	0.0115072 	3.00803 	0
1.75336 	1.01905 	0.0115072 	3.00803 	0
1.82349 	0.969233 	0.0148976 	3.02376 	3.71419e-19
1.89363 	0.969233 	0.0148976 	3.02376 	3.71419e-19
1.96376 	0.969233 	0.0148976 	3.02376 	3.71419e-19
2.0339 	0.969233 	0.0148976 	3.02376 	3.71419e-19
2.10403 	0.969233 	0.0148976 	3.02376 	3.71419e-19
2.17417 	0.969233 	0.0148976 	3.02376 	3.71419e-19
2.2443 	0.969233 	0.0148976 	3.02376 	3.71419e-19
2.31443 	0.969233 	0.0148976 	3.02376 	3.71419e-19
2.38457 	0.969233 	0.0148976 	3.02376 	3.71419e-19
2.4547 	0.969233 	0.0148976 	3.02376 	3.71419e-19
2.52484 	0.969233 	0.0148976 	3.02376 	3.71419e-19
2.59497 	0.934559 	0.00739893 	3.0369 	-5.8675e-19
2.66511 	0.934559 	0.00739893 	3.0369 	-5.8675e-19
2.73524 	0.934559 	0.00739893 	3.0369 	-5.8675e-19
2.80538 	0.934559 	0.00739893 	3.0369 	-5.8675e-19
2.87551 	0.934559 	0.00739893 	3.0369 	-5.8675e-19
2.94564 	0.934559 	0.00739893 	3.0369 	-5.8675e-19
3.01578 	0.934559 	0.00739893 	3.0369 	-5.8675e-19
3.08591 	0.934559 	0.00739893 	3.0369 	-5.8675e-19
3.15605 	0.934559 	0.00739893 	3.0369 	-5.8675e-19
3.22618 	0.934559 	0.00739893 	3.0369 	-5.8675e-19
3.29632 	0.902236 	0.0201056 	3.04338 	5.92043e-19
3.36645 	0.902236 	0.0201056 	3.04338 	5.92043e-19
3.43659 	0.902236 	0.0201056 	3.04338 	5.92043e-19
3.50672 	0.902236 	0.0201056 	3.04338 	5.92043e-19
3.57685 	0.902236 	0.0201056 	3.04338 	5.92043e-19
3.64699 	0.902236 	0.0201056 	3.04338 	5.92043e-19
3.71712 	0.902236 	0.0201056 	3.04338 	5.92043e-19
3.78726 	0.902236 	0.0201056 	3.04338 	5.92043e-19
3.85739 	0.902236 	0.0201056 	3.04338 	5.92043e-19
3.92753 	0.902236 	0.0201056 	3.04338 	5.92043e-19
3.99766 	0.902236 	0.0201056 	3.04338 	5.92043e-19
4.06779 	0.884065 	0.00369106 	3.05025 	-1.6604e-20
4.13793 	0.884065 	0.00369106 	3.05025 	-1.6604e-20
4.20806 	0.884065 	0.00369106 	3.05025 	-1.6604e-20
4.2782 	0.884065 	0.00369106 	3.05025 	-1.6604e-20
4.34833 	0.884065 	0.00369106 	3.05025 	-1.6604e-20
4.41847 	0.884065 	0.00369106 	3.05025 	-1.6604e-20
4.4886 	0.859095 	0.0165262 	3.05784 	0
4.55874 	0.859095 	0.0165262 	3.05784 	0
4.62887 	0.859095 	0.0165262 	3.05784 	0
4.699 	0.859095 	0.0165262 	3.05784 	0
4.76914 	0.859095 	0.0165262 	3.05784 	0
4.83927 	0.859095 	0.0165262 	3.05784 	0
4.90941 	0.859095 	0.0165262 	3.05784 	0
4.97954 	0.859095 	0.0165262 	3.05784 	0
5.04968 	0.859095 	0.0165262 	3.05784 	0
5.11981 	0.859095 	0.0165262 	3.05784 	0
5.18994 	0.836636 	0.00565234 	3.06475 	-7.80468e-21
5.26008 	0.836636 	0.00565234 	3.06475 	-7.80468e-21
5.33021 	0.836636 	0.00565234 	3.06475 	-7.80468e-21
5.40035 	0.836636 	0.00565234 	3.06475 	-7.80468e-21
5.47048 	0.836636 	0.00565234 	3.06475 	-7.80468e-21
5.54062 	0.836636 	0.00565234 	3.06475 	-7.80468e-21
5.61075 	0.836636 	0.00565234 	3.06475 	-7.80468e-21
5.68089 	0.807815 	0.0113483 	3.07463 	0
5.75102 	0.807815 	0.0113483 	3.07463 	0
5.82115 	0.807815 	0.0113483 	3.07463 	0
5.89129 	0.807815 	0.0113483 	3.07463 	0
5.96142 	0.807815 	0.0113483 	3.07463 	0
6.03156 	0.807815 	0.0113483 	3.07463 	0
6.10169 	0.807815 	0.0113483 	3.07463 	0
6.17183 	0.807815 	0.0113483 	3.07463 	0
6.24196 	0.807815 	0.0113483 	3.07463 	0
6.3121 	0.779284 	0.00708729 	3.08223 	0
6.38223 	0.779284 	0.00708729 	3.08223 	0
6.45236 	0.779284 	0.00708729 	3.08223 	0
6.5225 	0.779284 	0.00708729 	3.08223 	0
6.59263 	0.779284 	0.00708729 	3.08223 	0
6.66277 	0.779284 	0.00708729 	3.08223 	0
6.7329 	0.779284 	0.00708729 	3.08223 	0
6.80304 	0.779284 	0.00708729 	3.08223 	0
6.87317 	0.752974 	0.00619454 	3.0913 	2.57866e-19
6.9433 	0.752974 	0.00619454 	3.0913 	2.57866e-19
7.01344 	0.752974 	0.00619454 	3.0913 	2.57866e-19
7.08357 	0.752974 	0.00619454 	3.0913 	2.57866e-19
7.15371 	0.752974 	0.00619454 	3.0913 	2.57866e-19
7.22384 	0.752974 	0.00619454 	3.0913 	2.57866e-19
7.29398 	0.752974 	0.00619454 	3.0913 	2.57866e-19
7.36411 	0.752974 	0.00619454 	3.0913 	2.57866e-19
7.43425 	0.752974 	0.00619454 	3.0913 	2.57866e-19
7.50438 	0.721871 	0.00853481 	3.10022 	-1.91229e-18
7.57451 	0.721871 	0.00853481 	3.10022 	-1.91229e-18
7.64465 	0.721871 	0.00853481 	3.10022 	-1.91229e-18
7.71478 	0.721871 	0.00853481 	3.10022 	-1.91229e-18
7.78492 	0.721871 	0.00853481 	3.10022 	-1.91229e-18
7.85505 	0.721871 	0.00853481 	3.10022 	-1.91229e-18
7.92519 	0.721871 	0.00853481 	3.10022 	-1.91229e-18
7.99532 	0.721871 	0.00853481 	3.10022 	-1.91229e-18
8.06545 	0.70319 	0.00217357 	3.10479 	1.90426e-18
8.13559 	0.70319 	0.00217357 	3.10479 	1.90426e-18
8.20572 	0.70319 	0.00217357 	3.10479 	1.90426e-18
8.27586 	0.70319 	0.00217357 	3.10479 	1.90426e-18
8.34599 	0.70319 	0.00217357 	3.10479 	1.90426e-18
8.41613 	0.70319 	0.00217357 	3.10479 	1.90426e-18
8.48626 	0.70319 	0.00217357 	3.10479 	1.90426e-18
8.5564 	0.70319 	0.00217357 	3.10479 	1.90426e-18
8.62653 	0.70319 	0.00217357 	3.10479 	1.90426e-18
8.69666 	0.669481 	0.0121282 	3.11925 	1.73106e-18
8.7668 	0.669481 	0.0121282 	3.11925 	1.73106e-18
8.83693 	0.669481 	0.0121282 	3.11925 	1.73106e-18
8.90707 	0.669481 	0.0121282 	3.11925 	1.73106e-18
8.9772 	0.669481 	0.0121282 	3.11925 	1.73106e-18
9.04734 	0.669481 	0.0121282 	3.11925 	1.73106e-18
9.11747 	0.669481 	0.0121282 	3.11925 	1.73106e-18
9.18761 	0.669481 	0.0121282 	3.11925 	1.73106e-18
9.25774 	0.6387 	0.00317881 	3.11906 	-1.58307e-18
9.32787 	0.6387 	0.00317881 	3.11906 	-1.58307e-18
9.39801 	0.6387 	0.00317881 	3.11906 	-1.58307e-18
9.46814 	0.6387 	0.00317881 	3.11906 	-1.58307e-18
9.53828 	0.6387 	0.00317881 	3.11906 	-1.58307e-18
9.60841 	0.6387 	0.00317881 	3.11906 	-1.58307e-18
9.67855 	0.6387 	0.00317881 	3.11906 	-1.58307e-18
9.74868 	0.6387 	0.00317881 	3.11906 	-1.58307e-18
9.81881 	0.622904 	0.0176523 	3.12966 	-4.83758e-19
9.88895 	0.622904 	0.0176523 	3.12966 	-4.83758e-19
9.95908 	0.622904 	0.0176523 	3.12966 	-4.83758e-19
10.0292 	0.622904 	0.0176523 	3.12966 	-4.83758e-19
10.0994 	0.622904 	0.0176523 	3.12966 	-4.83758e-19
10.1695 	0.622904 	0.0176523 	3.12966 	-4.83758e-19
10.2396 	0.622904 	0.0176523 	3.12966 	-4.83758e-19
10.3098 	0.622904 	0.0176523 	3.12966 	-4.83758e-19
10.3799 	0.622904 	0.0176523 	3.12966 	-4.83758e-19
10.45 	0.622904 	0.0176523 	3.12966 	-4.83758e-19
10.5202 	0.622904 	0.0176523 	3.12966 	-4.83758e-19
10.5903 	0.622904 	0.0176523 	3.12966 	-4.83758e-19
10.6604 	0.644234 	0.0160487 	3.12565 	7.12025e-19
10.7306 	0.591702 	0.0364208 	3.13964 	0
10.8007 	0.591702 	0.0364208 	3.13964 	0
10.8708 	0.591702 	0.0364208 	3.13964 	0
10.941 	0.591702 	0.0364208 	3.13964 	0
11.0111 	0.591702 	0.0364208 	3.13964 	0
11.0812 	0.591702 	0.0364208 	3.13964 	0
11.1514 	0.591702 	0.0364208 	3.13964 	0
11.2215 	0.591702 	0.0364208 	3.13964 	0
11.2916 	0.591702 	0.0364208 	3.13964 	0
11.3618 	0.591702 	0.0364208 	3.13964 	0
11.4319 	0.591702 	0.0364208 	3.13964 	0
11.502 	0.591702 	0.0364208 	3.13964 	0
11.5722 	0.591702 	0.0364208 	3.13964 	0
11.6423 	0.591702 	0.0364208 	3.13964 	0
11.7124 	0.599584 	0.0235191 	3.12908 	0
11.7826 	0.538586 	0.0771287 	3.16064 	7.87766e-19
11.8527 	0.538586 	0.0771287 	3.16064 	7.87766e-19
11.9228 	0.538586 	0.0771287 	3.16064 	7.87766e-19
11.993 	0.538586 	0.0771287 	3.16064 	7.87766e-19
12.0631 	0.538586 	0.0771287 	3.16064 	7.87766e-19
12.1332 	0.538586 	0.0771287 	3.16064 	7.87766e-19
12.2034 	0.440597 	0.0696495 	3.18709 	-3.78134e-19
12.2735 	0.440597 	0.0696495 	3.18709 	-3.78134e-19
12.3437 	0.440597 	0.0696495 	3.18709 	-3.78134e-19
12.4138 	0.440597 	0.0696495 	3.18709 	-3.78134e-19
12.4839 	0.440597 	0.0696495 	3.18709 	-3.78134e-19
12.5541 	0.440597 	0.0696495 	3.18709 	-3.78134e-19
12.6242 	0.440597 	0.0696495 	3.18709 	-3.78134e-19
12.6943 	0.440597 	0.0696495 	3.18709 	-3.78134e-19
12.7645 	0.440597 	0.0696495 	3.18709 	-3.78134e-19
12.8346 	0.325519 	0.0361849 	3.17958 	3.20544e-19
12.9047 	0.311123 	0.137151 	3.22293 	-1.39392e-19
12.9749 	0.311123 	0.137151 	3.22293 	-1.39392e-19
13.045 	0.311123 	0.137151 	3.22293 	-1.39392e-19
13.1151 	0.311123 	0.137151 	3.22293 	-1.39392e-19
13.1853 	0.311123 	0.137151 	3.22293 	-1.39392e-19
13.2554 	0.311123 	0.137151 	3.22293 	-1.39392e-19
13.3255 	0.311123 	0.137151 	3.22293 	-1.39392e-19
13.3957 	0.537925 	0.14251 	3.19406 	1.23279e-18
13.4658 	0.537925 	0.14251 	3.19406 	1.23279e-18
13.5359 	0.537925 	0.14251 	3.19406 	1.23279e-18
13.6061 	0.537925 	0.14251 	3.19406 	1.23279e-18
13.6762 	0.537925 	0.14251 	3.19406 	1.23279e-18
13.7463 	0.537925 	0.14251 	3.19406 	1.23279e-18
13.8165 	0.617392 	0.115857 	2.86873 	-1.01955e-18
13.8866 	0.820631 	0.139084 	2.96292 	4.10224e-19
13.9567 	0.820631 	0.139084 	2.96292 	4.10224e-19
14.0269 	0.238884 	0.247213 	3.03588 	-1.46419e-18
14.097 	0.238884 	0.247213 	3.03588 	-1.46419e-18
14.1671 	0.238884 	0.247213 	3.03588 	-1.46419e-18
14.2373 	0.238884 	0.247213 	3.03588 	-1.46419e-18
14.3074 	0.238884 	0.247213 	3.03588 	-1.46419e-18
14.3776 	0.238884 	0.247213 	3.03588 	-1.46419e-18
14.4477 	0.238884 	0.247213 	3.03588 	-1.46419e-18
14.5178 	0.238884 	0.247213 	3.03588 	-1.46419e-18
14.588 	0.238884 	0.247213 	3.03588 	-1.46419e-18
14.6581 	0.238884 	0.247213 	3.03588 	-1.46419e-18
14.7282 	0.238884 	0.247213 	3.03588 	-1.46419e-18
14.7984 	0.238884 	0.247213 	3.03588 	-1.46419e-18
14.8685 	0.238884 	0.247213 	3.03588 	-1.46419e-18
14.9386 	0.0613444 	0.342082 	3.19474 	0
15.0088 	0.0613444 	0.342082 	3.19474 	0
15.0789 	0.0613444 	0.342082 	3.19474 	0
15.149 	0.0613444 	0.342082 	3.19474 	0
15.2192 	0.0613444 	0.342082 	3.19474 	0
15.2893 	-0.446309 	0.340941 	3.422 	-2.86307e-19
15.3594 	-0.446309 	0.340941 	3.422 	-2.86307e-19
15.4296 	-0.446309 	0.340941 	3.422 	-2.86307e-19
15.4997 	-0.446309 	0.340941 	3.422 	-2.86307e-19
15.5698 	-0.446309 	0.340941 	3.422 	-2.86307e-19
15.64 	-0.446309 	0.340941 	3.422 	-2.86307e-19
15.7101 	-0.942259 	0.396241 	3.49311 	0
15.7802 	-0.942259 	0.396241 	3.49311 	0
15.8504 	-0.838753 	0.648335 	3.55116 	1.39744e-18
15.9205 	-0.838753 	0.648335 	3.55116 	1.39744e-18
15.9906 	-0.838753 	0.648335 	3.55116 	1.39744e-18
16.0608 	-0.838753 	0.648335 	3.55116 	1.39744e-18
16.1309 	-0.838753 	0.648335 	3.55116 	1.39744e-18
16.201 	-0.838753 	0.648335 	3.55116 	1.39744e-18
16.2712 	-0.838753 	0.648335 	3.55116 	1.39744e-18
16.3413 	-0.838753 	0.648335 	3.55116 	1.39744e-18
16.4114 	-0.838753 	0.648335 	3.55116 	1.39744e-18
16.4816 	-0.838753 	0.648335 	3.55116 	1.39744e-18
16.5517 	-0.838753 	0.648335 	3.55116 	1.39744e-18
16.6219 	-0.838753 	0.648335 	3.55116 	1.39744e-18
16.692 	-0.838753 	0.648335 	3.55116 	1.39744e-18
16.7621 	-0.838753 	0.648335 	3.55116 	1.39744e-18
16.8323 	-0.388284 	0.872972 	3.11853 	1.74922e-19
16.9024 	-0.388284 	0.872972 	3.11853 	1.74922e-19
16.9725 	-0.388284 	0.872972 	3.11853 	1.74922e-19
17.0427 	-0.388284 	0.872972 	3.11853 	1.74922e-19
17.1128 	-0.388284 	0.872972 	3.11853 	1.74922e-19
17.1829 	-0.388284 	0.872972 	3.11853 	1.74922e-19
17.2531 	-0.388284 	0.872972 	3.11853 	1.74922e-19
17.3232 	-0.388284 	0.872972 	3.11853 	1.74922e-19
17.3933 	-0.388284 	0.872972 	3.11853 	1.74922e-19
17.4635 	-0.388284 	0.872972 	3.11853 	1.74922e-19
17.5336 	-0.296912 	0.914206 	3.03522 	-1.68334e-19
17.6037 	-0.296912 	0.914206 	3.03522 	-1.68334e-19
17.6739 	-0.296912 	0.914206 	3.03522 	-1.68334e-19
17.744 	-0.388294 	1.0431 	3.16485 	2.49572e-19
17.8141 	-0.388294 	1.0431 	3.16485 	2.49572e-19
17.8843 	-0.388294 	1.0431 	3.16485 	2.49572e-19
17.9544 	-0.388294 	1.0431 	3.16485 	2.49572e-19
18.0245 	-0.388294 	1.0431 	3.16485 	2.49572e-19
18.0947 	-0.388294 	1.0431 	3.16485 	2.49572e-19
18.1648 	-0.388294 	1.0431 	3.16485 	2.49572e-19
18.2349 	-0.388294 	1.0431 	3.16485 	2.49572e-19
18.3051 	-0.388294 	1.0431 	3.16485 	2.49572e-19
18.3752 	-0.0985341 	1.00555 	2.76851 	-1.89768e-19
18.4453 	-0.0985341 	1.00555 	2.76851 	-1.89768e-19
18.5155 	-0.0985341 	1.00555 	2.76851 	-1.89768e-19
18.5856 	-0.0985341 	1.00555 	2.76851 	-1.89768e-19
18.6557 	-0.0985341 	1.00555 	2.76851 	-1.89768e-19
18.7259 	-0.0985341 	1.00555 	2.76851 	-1.89768e-19
18.796 	-0.0985341 	1.00555 	2.76851 	-1.89768e-19
18.8662 	-0.0318609 	1.0426 	2.82414 	-1.56914e-20
18.9363 	-0.0318609 	1.0426 	2.82414 	-1.56914e-20
19.0064 	-0.0318609 	1.0426 	2.82414 	-1.56914e-20
19.0766 	-0.0318609 	1.0426 	2.82414 	-1.56914e-20
19.1467 	-0.0318609 	1.0426 	2.82414 	-1.56914e-20
19.2168 	-0.0318609 	1.0426 	2.82414 	-1.56914e-20
19.287 	-0.0318609 	1.0426 	2.82414 	-1.56914e-20
19.3571 	-0.0318609 	1.0426 	2.82414 	-1.56914e-20
19.4272 	-0.0318609 	1.0426 	2.82414 	-1.56914e-20
19.4974 	-0.0318609 	1.0426 	2.82414 	-1.56914e-20
19.5675 	-0.0318609 	1.0426 	2.82414 	-1.56914e-20
19.6376 	-0.0318609 	1.0426 	2.82414 	-1.56914e-20
19.7078 	-0.0318609 	1.0426 	2.82414 	-1.56914e-20
19.7779 	0.116218 	0.991716 	2.45165 	-9.99196e-20
19.848 	0.116218 	0.991716 	2.45165 	-9.99196e-20
19.9182 	0.116218 	0.991716 	2.45165 	-9.99196e-20
19.9883 	0.116218 	0.991716 	2.45165 	-9.99196e-20
20.0584 	0.116218 	0.991716 	2.45165 	-9.99196e-20
20.1286 	0.116218 	0.991716 	2.45165 	-9.99196e-20
20.1987 	0.116218 	0.991716 	2.45165 	-9.99196e-20
20.2688 	0.111612 	0.996319 	2.44403 	1.47254e-19
20.339 	0.111612 	0.996319 	2.44403 	1.47254e-19
20.4091 	0.111612 	0.996319 	2.44403 	1.47254e-19
20.4792 	0.111612 	0.996319 	2.44403 	1.47254e-19
20.5494 	0.111612 	0.996319 	2.44403 	1.47254e-19
20.6195 	0.111612 	0.996319 	2.44403 	1.47254e-19
20.6896 	0.111612 	0.996319 	2.44403 	1.47254e-19
20.7598 	0.111612 	0.996319 	2.44403 	1.47254e-19
20.8299 	0.111612 	0.996319 	2.44403 	1.47254e-19
20.9 	0.111612 	0.996319 	2.44403 	1.47254e-19
20.9702 	0.111612 	0.996319 	2.44403 	1.47254e-19
21.0403 	0.111612 	0.996319 	2.44403 	1.47254e-19
21.1105 	0.111612 	0.996319 	2.44403 	1.47254e-19
21.1806 	0.111612 	0.996319 	2.44403 	1.47254e-19
21.2507 	0.111612 	0.996319 	2.44403 	1.47254e-19
21.3209 	0.111612 	0.996319 	2.44403 	1.47254e-19
21.391 	0.111612 	0.996319 	2.44403 	1.47254e-19
21.4611 	0.125301 	0.702045 	1.91123 	-2.38391e-19
21.5313 	0.125301 	0.702045 	1.91123 	-2.38391e-19
21.6014 	0.125301 	0.702045 	1.91123 	-2.38391e-19
21.6715 	0.0191542 	0.616544 	1.41376 	3.54328e-20
21.7417 	0.0191542 	0.616544 	1.41376 	3.54328e-20
21.8118 	0.0191542 	0.616544 	1.41376 	3.54328e-20
21.8819 	0.0191542 	0.616544 	1.41376 	3.54328e-20
21.9521 	0.0191542 	0.616544 	1.41376 	3.54328e-20
22.0222 	-0.112905 	0.935246 	2.34834 	-2.31292e-20
22.0923 	-0.112905 	0.935246 	2.34834 	-2.31292e-20
22.1625 	-0.112905 	0.935246 	2.34834 	-2.31292e-20
22.2326 	-0.112905 	0.935246 	2.34834 	-2.31292e-20
22.3027 	-0.112905 	0.935246 	2.34834 	-2.31292e-20
22.3729 	-0.112905 	0.935246 	2.34834 	-2.31292e-20
22.443 	-0.112905 	0.935246 	2.34834 	-2.31292e-20
22.5131 	-0.112905 	0.935246 	2.34834 	-2.31292e-20
22.5833 	-0.112905 	0.935246 	2.34834 	-2.31292e-20
22.6534 	-0.112905 	0.935246 	2.34834 	-2.31292e-20
22.7235 	-0.112905 	0.935246 	2.34834 	-2.31292e-20
22.7937 	-0.112905 	0.935246 	2.34834 	-2.31292e-20
22.8638 	-0.112905 	0.935246 	2.34834 	-2.31292e-20
22.9339 	-0.112905 	0.935246 	2.34834 	-2.31292e-20
23.0041 	-0.112905 	0.935246 	2.34834 	-2.31292e-20
23.0742 	-0.112905 	0.935246 	2.34834 	-2.31292e-20
23.1443 	-0.112905 	0.935246 	2.34834 	-2.31292e-20
23.2145 	-0.112905 	0.935246 	2.34834 	-2.31292e-20
23.2846 	-0.112905 	0.935246 	2.34834 	-2.31292e-20
23.3548 	-0.112905 	0.935246 	2.34834 	-2.31292e-20
23.4249 	-0.112905 	0.935246 	2.34834 	-2.31292e-20
23.495 	0.0733732 	0.902384 	2.32762 	-4.48067e-20
23.5652 	0.0733732 	0.902384 	2.32762 	-4.48067e-20
23.6353 	0.0733732 	0.902384 	2.32762 	-4.48067e-20
23.7054 	0.0733732 	0.902384 	2.32762 	-4.48067e-20
23.7756 	0.0733732 	0.902384 	2.32762 	-4.48067e-20
23.8457 	0.0733732 	0.902384 	2.32762 	-4.48067e-20
23.9158 	0.0733732 	0.902384 	2.32762 	-4.48067e-20
23.986 	0.199337 	0.843754 	2.19273 	1.98821e-21
24.0561 	0.199337 	0.843754 	2.19273 	1.98821e-21
24.1262 	0.199337 	0.843754 	2.19273 	1.98821e-21
24.1964 	0.199337 	0.843754 	2.19273 	1.98821e-21
24.2665 	0.199337 	0.843754 	2.19273 	1.98821e-21
24.3366 	0.199337 	0.843754 	2.19273 	1.98821e-21
24.4068 	0.199337 	0.843754 	2.19273 	1.98821e-21
24.4769 	0.199337 	0.843754 	2.19273 	1.98821e-21
24.547 	0.199337 	0.843754 	2.19273 	1.98821e-21
24.6172 	0.199337 	0.843754 	2.19273 	1.98821e-21
24.6873 	0.199337 	0.843754 	2.19273 	1.98821e-21
24.7574 	0.199337 	0.843754 	2.19273 	1.98821e-21
24.8276 	0.199337 	0.843754 	2.19273 	1.98821e-21
24.8977 	0.199337 	0.843754 	2.19273 	1.98821e-21
24.9678 	0.199337 	0.843754 	2.19273 	1.98821e-21
25.038 	0.199337 	0.843754 	2.19273 	1.98821e-21
25.1081 	0.199337 	0.843754 	2.19273 	1.98821e-21
25.1782 	0.145881 	0.505368 	1.36807 	0
25.2484 	0.145881 	0.505368 	1.36807 	0
25.3185 	0.145881 	0.505368 	1.36807 	0
25.3886 	0.145881 	0.505368 	1.36807 	0
25.4588 	0.145881 	0.505368 	1.36807 	0
25.5289 	0.145881 	0.505368 	1.36807 	0
25.5991 	0.145881 	0.505368 	1.36807 	0
25.6692 	0.145881 	0.505368 	1.36807 	0
25.7393 	0.145881 	0.505368 	1.36807 	0
25.8095 	0.145881 	0.505368 	1.36807 	0
25.8796 	0.145881 	0.505368 	1.36807 	0
25.9497 	0.145881 	0.505368 	1.36807 	0
26.0199 	0.145881 	0.505368 	1.36807 	0
26.09 	0.145881 	0.505368 	1.36807 	0
26.1601 	0.145881 	0.505368 	1.36807 	0
26.2303 	0.0496929 	0.499829 	1.37897 	-3.98586e-20
26.3004 	0.0496929 	0.499829 	1.37897 	-3.98586e-20
26.3705 	0.0496929 	0.499829 	1.37897 	-3.98586e-20
26.4407 	0.0496929 	0.499829 	1.37897 	-3.98586e-20
26.5108 	0.0496929 	0.499829 	1.37897 	-3.98586e-20
26.5809 	0.0496929 	0.499829 	1.37897 	-3.98586e-20
26.6511 	0.0496929 	0.499829 	1.37897 	-3.98586e-20
26.7212 	0.0496929 	0.499829 	1.37897 	-3.98586e-20
26.7913 	0.0496929 	0.499829 	1.37897 	-3.98586e-20
26.8615 	0.0496929 	0.499829 	1.37897 	-3.98586e-20
26.9316 	0.0496929 	0.499829 	1.37897 	-3.98586e-20
27.0017 	0.0496929 	0.499829 	1.37897 	-3.98586e-20
27.0719 	0.0496929 	0.499829 	1.37897 	-3.98586e-20
27.142 	0.0496929 	0.499829 	1.37897 	-3.98586e-20
27.2121 	0.0496929 	0.499829 	1.37897 	-3.98586e-20
27.2823 	0.0496929 	0.499829 	1.37897 	-3.98586e-20
27.3524 	-0.00716891 	0.492867 	1.38481 	4.69646e-20
27.4225 	-0.00716891 	0.492867 	1.38481 	4.69646e-20
27.4927 	-0.00716891 	0.492867 	1.38481 	4.69646e-20
27.5628 	-0.00716891 	0.492867 	1.38481 	4.69646e-20
27.6329 	-0.00716891 	0.492867 	1.38481 	4.69646e-20
27.7031 	-0.00716891 	0.492867 	1.38481 	4.69646e-20
27.7732 	-0.00716891 	0.492867 	1.38481 	4.69646e-20
27.8434 	-0.00716891 	0.492867 	1.38481 	4.69646e-20
27.9135 	-0.00716891 	0.492867 	1.38481 	4.69646e-20
27.9836 	-0.00716891 	0.492867 	1.38481 	4.69646e-20
28.0538 	-0.00716891 	0.492867 	1.38481 	4.69646e-20
28.1239 	-0.00716891 	0.492867 	1.38481 	4.69646e-20
28.194 	-0.00716891 	0.492867 	1.38481 	4.69646e-20
28.2642 	-0.00716891 	0.492867 	1.38481 	4.69646e-20
28.3343 	-0.00716891 	0.492867 	1.38481 	4.69646e-20
28.4044 	-0.00716891 	0.492867 	1.38481 	4.69646e-20
28.4746 	-0.00716891 	0.492867 	1.38481 	4.69646e-20
28.5447 	-0.00716891 	0.492867 	1.38481 	4.69646e-20
28.6148 	-0.00716891 	0.492867 	1.38481 	4.69646e-20
28.685 	-0.00716891 	0.492867 	1.38481 	4.69646e-20
28.7551 	-0.00716891 	0.492867 	1.38481 	4.69646e-20
28.8252 	-0.00716891 	0.492867 	1.38481 	4.69646e-20
28.8954 	-0.00716891 	0.492867 	1.38481 	4.69646e-20
28.9655 	-0.0532032 	0.435412 	1.29509 	-3.39177e-21
29.0356 	-0.0532032 	0.435412 	1.29509 	-3.39177e-21
29.1058 	-0.0532032 	0.435412 	1.29509 	-3.39177e-21
29.1759 	-0.0532032 	0.435412 	1.29509 	-3.39177e-21
29.246 	-0.0532032 	0.435412 	1.29509 	-3.39177e-21
29.3162 	-0.0532032 	0.435412 	1.29509 	-3.39177e-21
29.3863 	-0.0532032 	0.435412 	1.29509 	-3.39177e-21
29.4564 	-0.0532032 	0.435412 	1.29509 	-3.39177e-21
29.5266 	-0.0532032 	0.435412 	1.29509 	-3.39177e-21
29.5967 	-0.0532032 	0.435412 	1.29509 	-3.39177e-21
29.6668 	-0.0532032 	0.435412 	1.29509 	-3.39177e-21
29.737 	-0.0532032 	0.435412 	1.29509 	-3.39177e-21
29.8071 	-0.0532032 	0.435412 	1.29509 	-3.39177e-21
29.8773 	-0.0532032 	0.435412 	1.29509 	-3.39177e-21
29.9474 	-0.0532032 	0.435412 	1.29509 	-3.39177e-21
30.0175 	-0.0532032 	0.435412 	1.29509 	-3.39177e-21
30.0877 	-0.0532032 	0.435412 	1.29509 	-3.39177e-21
30.1578 	-0.0532032 	0.435412 	1.29509 	-3.39177e-21
30.2279 	-0.0532032 	0.435412 	1.29509 	-3.39177e-21
30.2981 	-0.0532032 	0.435412 	1.29509 	-3.39177e-21
30.3682 	-0.0532032 	0.435412 	1.29509 	-3.39177e-21
30.4383 	-0.0532032 	0.435412 	1.29509 	-3.39177e-21
30.5085 	-0.0532032 	0.435412 	1.29509 	-3.39177e-21
30.5786 	-0.0532032 	0.435412 	1.29509 	-3.39177e-21
30.6487 	-0.0532032 	0.435412 	1.29509 	-3.39177e-21
30.7189 	-0.0532032 	0.435412 	1.29509 	-3.39177e-21
30.789 	-0.0634371 	0.362182 	1.28219 	1.75013e-19
30.8591 	-0.0634371 	0.362182 	1.28219 	1.75013e-19
30.9293 	-0.0634371 	0.362182 	1.28219 	1.75013e-19
30.9994 	-0.0634371 	0.362182 	1.28219 	1.75013e-19
31.0695 	-0.0634371 	0.362182 	1.28219 	1.75013e-19
31.1397 	-0.0634371 	0.362182 	1.28219 	1.75013e-19
31.2098 	-0.0634371 	0.362182 	1.28219 	1.75013e-19
31.2799 	-0.0634371 	0.362182 	1.28219 	1.75013e-19
31.3501 	-0.0634371 	0.362182 	1.28219 	1.75013e-19
31.4202 	-0.0634371 	0.362182 	1.28219 	1.75013e-19
31.4903 	-0.0634371 	0.362182 	1.28219 	1.75013e-19
31.5605 	-0.0634371 	0.362182 	1.28219 	1.75013e-19
31.6306 	-0.0634371 	0.362182 	1.28219 	1.75013e-19
31.7007 	-0.0634371 	0.362182 	1.28219 	1.75013e-19
31.7709 	-0.0634371 	0.362182 	1.28219 	1.75013e-19
31.841 	-0.0634371 	0.362182 	1.28219 	1.75013e-19
31.9111 	-0.0634371 	0.362182 	1.28219 	1.75013e-19
31.9813 	-0.0634371 	0.362182 	1.28219 	1.75013e-19
32.0514 	-0.0634371 	0.362182 	1.28219 	1.75013e-19
32.1216 	-0.0634371 	0.362182 	1.28219 	1.75013e-19
32.1917 	-0.0634371 	0.362182 	1.28219 	1.75013e-19
32.2618 	-0.0634371 	0.362182 	1.28219 	1.75013e-19
32.332 	-0.0634371 	0.362182 	1.28219 	1.75013e-19
32.4021 	-0.0634371 	0.362182 	1.28219 	1.75013e-19
32.4722 	-0.0634371 	0.362182 	1.28219 	1.75013e-19
32.5424 	-0.0634371 	0.362182 	1.28219 	1.75013e-19
32.6125 	-0.0634371 	0.362182 	1.28219 	1.75013e-19
32.6826 	-0.0634371 	0.362182 	1.28219 	1.75013e-19
32.7528 	-0.0634371 	0.362182 	1.28219 	1.75013e-19
32.8229 	-0.0634371 	0.362182 	1.28219 	1.75013e-19
32.893 	-0.0634371 	0.362182 	1.28219 	1.75013e-19
32.9632 	-0.0634371 	0.362182 	1.28219 	1.75013e-19
33.0333 	-0.0634371 	0.362182 	1.28219 	1.75013e-19
33.1034 	-0.0634371 	0.362182 	1.28219 	1.75013e-19
33.1736 	-0.0634371 	0.362182 	1.28219 	1.75013e-19
33.2437 	-0.0634371 	0.362182 	1.28219 	1.75013e-19
33.3138 	-0.0634371 	0.362182 	1.28219 	1.75013e-19
33.384 	-0.0634371 	0.362182 	1.28219 	1.75013e-19
33.4541 	-0.0634371 	0.362182 	1.28219 	1.75013e-19
33.5242 	-0.0634371 	0.362182 	1.28219 	1.75013e-19
33.5944 	-0.0634371 	0.362182 	1.28219 	1.75013e-19
33.6645 	-0.0634371 	0.362182 	1.28219 	1.75013e-19
33.7346 	-0.0993174 	0.361714 	1.35535 	-1.12676e-19
33.8048 	-0.0993174 	0.361714 	1.35535 	-1.12676e-19
33.8749 	-0.0993174 	0.361714 	1.35535 	-1.12676e-19
33.945 	-0.0993174 	0.361714 	1.35535 	-1.12676e-19
34.0152 	-0.0993174 	0.361714 	1.35535 	-1.12676e-19
34.0853 	-0.0993174 	0.361714 	1.35535 	-1.12676e-19
34.1554 	-0.105122 	0.268872 	1.30508 	3.98134e-20
34.2256 	-0.105122 	0.268872 	1.30508 	3.98134e-20
34.2957 	-0.105122 	0.268872 	1.30508 	3.98134e-20
34.3659 	-0.105122 	0.268872 	1.30508 	3.98134e-20
34.436 	-0.105122 	0.268872 	1.30508 	3.98134e-20
34.5061 	-0.105122 	0.268872 	1.30508 	3.98134e-20
34.5763 	-0.105122 	0.268872 	1.30508 	3.98134e-20
34.6464 	-0.105122 	0.268872 	1.30508 	3.98134e-20
34.7165 	0.101325 	0.260969 	1.61539 	3.8993e-21
34.7867 	0.101325 	0.260969 	1.61539 	3.8993e-21
34.8568 	0.101325 	0.260969 	1.61539 	3.8993e-21
34.9269 	0.101325 	0.260969 	1.61539 	3.8993e-21
34.9971 	0.101325 	0.260969 	1.61539 	3.8993e-21
35.0672 	0.101325 	0.260969 	1.61539 	3.8993e-21
35.1373 	0.101325 	0.260969 	1.61539 	3.8993e-21
35.2075 	0.101325 	0.260969 	1.61539 	3.8993e-21
35.2776 	0.101325 	0.260969 	1.61539 	3.8993e-21
35.3477 	0.101325 	0.260969 	1.61539 	3.8993e-21
35.4179 	0.101325 	0.260969 	1.61539 	3.8993e-21
35.488 	0.101325 	0.260969 	1.61539 	3.8993e-21
35.5581 	0.101325 	0.260969 	1.61539 	3.8993e-21
35.6283 	0.101325 	0.260969 	1.61539 	3.8993e-21
35.6984 	0.101325 	0.260969 	1.61539 	3.8993e-21
35.7685 	0.101325 	0.260969 	1.61539 	3.8993e-21
35.8387 	0.101325 	0.260969 	1.61539 	3.8993e-21
35.9088 	0.101325 	0.260969 	1.61539 	3.8993e-21
35.9789 	0.101325 	0.260969 	1.61539 	3.8993e-21
36.0491 	0.0757699 	0.236615 	1.5737 	0
36.1192 	0.0757699 	0.236615 	1.5737 	0
36.1893 	0.0757699 	0.236615 	1.5737 	0
36.2595 	0.0757699 	0.236615 	1.5737 	0
36.3296 	0.0757699 	0.236615 	1.5737 	0
36.3997 	0.0757699 	0.236615 	1.5737 	0
36.4699 	0.0757699 	0.236615 	1.5737 	0
36.54 	0.0757699 	0.236615 	1.5737 	0
36.6102 	0.0757699 	0.236615 	1.5737 	0
36.6803 	0.0757699 	0.236615 	1.5737 	0
36.7504 	0.0757699 	0.236615 	1.5737 	0
36.8206 	0.0757699 	0.236615 	1.5737 	0
36.8907 	-0.0511946 	0.1838 	1.44008 	-3.57036e-20
36.9608 	-0.0511946 	0.1838 	1.44008 	-3.57036e-20
37.031 	-0.0511946 	0.1838 	1.44008 	-3.57036e-20
37.1011 	-0.0511946 	0.1838 	1.44008 	-3.57036e-20
37.1712 	-0.0511946 	0.1838 	1.44008 	-3.57036e-20
37.2414 	-0.0511946 	0.1838 	1.44008 	-3.57036e-20
37.3115 	-0.0511946 	0.1838 	1.44008 	-3.57036e-20
37.3816 	-0.0511946 	0.1838 	1.44008 	-3.57036e-20
37.4518 	-0.0511946 	0.1838 	1.44008 	-3.57036e-20
37.5219 	-0.0511946 	0.1838 	1.44008 	-3.57036e-20
37.592 	-0.0511946 	0.1838 	1.44008 	-3.57036e-20
37.6622 	-0.0511946 	0.1838 	1.44008 	-3.57036e-20
37.7323 	-0.0511946 	0.1838 	1.44008 	-3.57036e-20
37.8024 	-0.0511946 	0.1838 	1.44008 	-3.57036e-20
37.8726 	-0.0511946 	0.1838 	1.44008 	-3.57036e-20
37.9427 	-0.0511946 	0.1838 	1.44008 	-3.57036e-20
38.0128 	-0.0511946 	0.1838 	1.44008 	-3.57036e-20
38.083 	-0.0511946 	0.1838 	1.44008 	-3.57036e-20
38.1531 	-0.0511946 	0.1838 	1.44008 	-3.57036e-20
38.2232 	-0.0249431 	0.125372 	1.59027 	4.09231e-20
38.2934 	-0.0249431 	0.125372 	1.59027 	4.09231e-20
38.3635 	-0.0249431 	0.125372 	1.59027 	4.09231e-20
38.4336 	-0.0249431 	0.125372 	1.59027 	4.09231e-20
38.5038 	-0.0249431 	0.125372 	1.59027 	4.09231e-20
38.5739 	-0.0249431 	0.125372 	1.59027 	4.09231e-20
38.644 	-0.0249431 	0.125372 	1.59027 	4.09231e-20
38.7142 	-0.0249431 	0.125372 	1.59027 	4.09231e-20
38.7843 	-0.0249431 	0.125372 	1.59027 	4.09231e-20
38.8545 	-0.0249431 	0.125372 	1.59027 	4.09231e-20
38.9246 	-0.0249431 	0.125372 	1.59027 	4.09231e-20
38.9947 	-0.0249431 	0.125372 	1.59027 	4.09231e-20
39.0649 	-0.0249431 	0.125372 	1.59027 	4.09231e-20
39.135 	-0.0249431 	0.125372 	1.59027 	4.09231e-20
39.2051 	-0.0568835 	0.108461 	1.55847 	0
39.2753 	-0.0568835 	0.108461 	1.55847 	0
39.3454 	-0.0568835 	0.108461 	1.55847 	0
39.4155 	-0.0568835 	0.108461 	1.55847 	0
39.4857 	-0.0568835 	0.108461 	1.55847 	0
39.5558 	-0.0568835 	0.108461 	1.55847 	0
39.6259 	-0.0568835 	0.108461 	1.55847 	0
39.6961 	-0.0568835 	0.108461 	1.55847 	0
39.7662 	-0.0568835 	0.108461 	1.55847 	0
39.8363 	-0.0568835 	0.108461 	1.55847 	0
39.9065 	-0.0568835 	0.108461 	1.55847 	0
39.9766 	-0.0568835 	0.108461 	1.55847 	0
40.0467 	-0.0568835 	0.108461 	1.55847 	0
40.1169 	-0.0568835 	0.108461 	1.55847 	0
40.187 	-0.0568835 	0.108461 	1.55847 	0
40.2571 	-0.0568835 	0.108461 	1.55847 	0
40.3273 	-0.0568835 	0.108461 	1.55847 	0
40.3974 	-0.0568835 	0.108461 	1.55847 	0
40.4675 	-0.0568835 	0.108461 	1.55847 	0
40.5377 	-0.0568835 	0.108461 	1.55847 	0
40.6078 	-0.0568835 	0.108461 	1.55847 	0
40.6779 	-0.0683324 	0.103258 	1.49161 	4.09832e-20
40.7481 	-0.0683324 	0.103258 	1.49161 	4.09832e-20
40.8182 	-0.0683324 	0.103258 	1.49161 	4.09832e-20
40.8883 	-0.0683324 	0.103258 	1.49161 	4.09832e-20
40.9585 	-0.0683324 	0.103258 	1.49161 	4.09832e-20
41.0286 	-0.0683324 	0.103258 	1.49161 	4.09832e-20
41.0988 	-0.0683324 	0.103258 	1.49161 	4.09832e-20
41.1689 	-0.0683324 	0.103258 	1.49161 	4.09832e-20
41.239 	-0.0717137 	0.0824885 	1.5216 	-7.69007e-20
41.3092 	-0.0717137 	0.0824885 	1.5216 	-7.69007e-20
41.3793 	-0.0717137 	0.0824885 	1.5216 	-7.69007e-20
41.4494 	-0.0717137 	0.0824885 	1.5216 	-7.69007e-20
41.5196 	-0.0717137 	0.0824885 	1.5216 	-7.69007e-20
41.5897 	-0.0717137 	0.0824885 	1.5216 	-7.69007e-20
41.6598 	-0.0717137 	0.0824885 	1.5216 	-7.69007e-20
41.73 	-0.0717137 	0.0824885 	1.5216 	-7.69007e-20
41.8001 	-0.0717137 	0.0824885 	1.5216 	-7.69007e-20
41.8702 	-0.0717137 	0.0824885 	1.5216 	-7.69007e-20
41.9404 	-0.0717137 	0.0824885 	1.5216 	-7.69007e-20
42.0105 	-0.0717137 	0.0824885 	1.5216 	-7.69007e-20
42.0806 	-0.0717137 	0.0824885 	1.5216 	-7.69007e-20
42.1508 	-0.0717137 	0.0824885 	1.5216 	-7.69007e-20
42.2209 	-0.0717137 	0.0824885 	1.5216 	-7.69007e-20
42.291 	-0.0717137 	0.0824885 	1.5216 	-7.69007e-20
42.3612 	-0.0717137 	0.0824885 	1.5216 	-7.69007e-20
42.4313 	-0.0717137 	0.0824885 	1.5216 	-7.69007e-20
42.5014 	-0.0717137 	0.0824885 	1.5216 	-7.69007e-20
42.5716 	-0.0717137 	0.0824885 	1.5216 	-7.69007e-20
42.6417 	-0.0717137 	0.0824885 	1.5216 	-7.69007e-20
42.7118 	-0.0805591 	0.0892613 	1.50505 	0
42.782 	-0.0805591 	0.0892613 	1.50505 	0
42.8521 	-0.0805591 	0.0892613 	1.50505 	0
42.9222 	-0.0805591 	0.0892613 	1.50505 	0
42.9924 	-0.057364 	0.0374192 	1.57163 	0
43.0625 	-0.057364 	0.0374192 	1.57163 	0
43.1327 	-0.057364 	0.0374192 	1.57163 	0