0.490941 	0.853797 	0.00615265 	3.00296 	0
0.561075 	0.853797 	0.00615265 	3.00296 	0
0.63121 	0.853797 	0.00615265 	3.00296 	0
0.701344 	0.853797 	0.00615265 	3.00296 	0
0.771478 	0.853797 	0.00615265 	3.00296 	0
0.841613 	0.853797 	0.00615265 	3.00296 	0
0.911747 	0.853797 	0.00615265 	3.00296 	0
0.981881 	0.853797 	0.00615265 	3.00296 	0
1.05202 	0.853797 	0.00615265 	3.00296 	0
1.12215 	0.853797 	0.00615265 	3.00296 	0
1.19228 	0.853797 	0.00615265 	3.00296 	0
1.26242 	0.82775 	0.0116082 	3.00795 	0
1.33255 	0.82775 	0.0116082 	3.00795 	0
1.40269 	0.82775 	0.0116082 	3.00795 	0
1.47282 	0.82775 	0.0116082 	3.00795 	0
1.54296 	0.82775 	0.0116082 	3.00795 	0
1.61309 	0.82775 	0.0116082 	3.00795 	0
1.68323 	0.82775 	0.0116082 	3.00795 	0
1.75336 	0.82775 	0.0116082 	3.00795 	0
1.82349 	0.777947 	0.0150053 	3.02364 	2.98156e-19
1.89363 	0.777947 	0.0150053 	3.02364 	2.98156e-19
1.96376 	0.777947 	0.0150053 	3.02364 	2.98156e-19
2.0339 	0.777947 	0.0150053 	3.02364 	2.98156e-19
2.10403 	0.777947 	0.0150053 	3.02364 	2.98156e-19
2.17417 	0.777947 	0.0150053 	3.02364 	2.98156e-19
2.2443 	0.777947 	0.0150053 	3.02364 	2.98156e-19
2.31443 	0.777947 	0.0150053 	3.02364 	2.98156e-19
2.38457 	0.777947 	0.0150053 	3.02364 	2.98156e-19
2.4547 	0.777947 	0.0150053 	3.02364 	2.98156e-19
2.52484 	0.777947 	0.0150053 	3.02364 	2.98156e-19
2.59497 	0.743313 	0.0074682 	3.03724 	-4.66459e-19
2.66511 	0.743313 	0.0074682 	3.03724 	-4.66459e-19
2.73524 	0.743313 	0.0074682 	3.03724 	-4.66459e-19
2.80538 	0.743313 	0.0074682 	3.03724 	-4.66459e-19
2.87551 	0.743313 	0.0074682 	3.03724 	-4.66459e-19
2.94564 	0.743313 	0.0074682 	3.03724 	-4.66459e-19
3.01578 	0.743313 	0.0074682 	3.03724 	-4.66459e-19
3.08591 	0.743313 	0.0074682 	3.03724 	-4.66459e-19
3.15605 	0.743313 	0.0074682 	3.03724 	-4.66459e-19
3.22618 	0.743313 	0.0074682 	3.03724 	-4.66459e-19
3.29632 	0.711278 	0.0198147 	3.04338 	4.68731e-19
3.36645 	0.711278 	0.0198147 	3.04338 	4.68731e-19
3.43659 	0.711278 	0.0198147 	3.04338 	4.68731e-19
3.50672 	0.711278 	0.0198147 	3.04338 	4.68731e-19
3.57685 	0.711278 	0.0198147 	3.04338 	4.68731e-19
3.64699 	0.711278 	0.0198147 	3.04338 	4.68731e-19
3.71712 	0.711278 	0.0198147 	3.04338 	4.68731e-19
3.78726 	0.711278 	0.0198147 	3.04338 	4.68731e-19
3.85739 	0.711278 	0.0198147 	3.04338 	4.68731e-19
3.92753 	0.711278 	0.0198147 	3.04338 	4.68731e-19
3.99766 	0.711278 	0.0198147 	3.04338 	4.68731e-19
4.06779 	0.69322 	0.00365361 	3.05059 	-1.30645e-20
4.13793 	0.69322 	0.00365361 	3.05059 	-1.30645e-20
4.20806 	0.69322 	0.00365361 	3.05059 	-1.30645e-20
4.2782 	0.69322 	0.00365361 	3.05059 	-1.30645e-20
4.34833 	0.69322 	0.00365361 	3.05059 	-1.30645e-20
4.41847 	0.69322 	0.00365361 	3.05059 	-1.30645e-20
4.4886 	0.668266 	0.0159633 	3.05796 	0
4.55874 	0.668266 	0.0159633 	3.05796 	0
4.62887 	0.668266 	0.0159633 	3.05796 	0
4.699 	0.668266 	0.0159633 	3.05796 	0
4.76914 	0.668266 	0.0159633 	3.05796 	0
4.83927 	0.668266 	0.0159633 	3.05796 	0
4.90941 	0.668266 	0.0159633 	3.05796 	0
4.97954 	0.668266 	0.0159633 	3.05796 	0
5.04968 	0.668266 	0.0159633 	3.05796 	0
5.11981 	0.668266 	0.0159633 	3.05796 	0
5.18994 	0.645678 	0.00577033 	3.0649 	-6.0468e-21
5.26008 	0.645678 	0.00577033 	3.0649 	-6.0468e-21
5.33021 	0.645678 	0.00577033 	3.0649 	-6.0468e-21
5.40035 	0.645678 	0.00577033 	3.0649 	-6.0468e-21
5.47048 	0.645678 	0.00577033 	3.0649 	-6.0468e-21
5.54062 	0.645678 	0.00577033 	3.0649 	-6.0468e-21
5.61075 	0.645678 	0.00577033 	3.0649 	-6.0468e-21
5.68089 	0.61689 	0.0108433 	3.07497 	0
5.75102 	0.61689 	0.0108433 	3.07497 	0
5.82115 	0.61689 	0.0108433 	3.07497 	0
5.89129 	0.61689 	0.0108433 	3.07497 	0
5.96142 	0.61689 	0.0108433 	3.07497 	0
6.03156 	0.61689 	0.0108433 	3.07497 	0
6.10169 	0.61689 	0.0108433 	3.07497 	0
6.17183 	0.61689 	0.0108433 	3.07497 	0
6.24196 	0.61689 	0.0108433 	3.07497 	0
6.3121 	0.588966 	0.00744116 	3.08208 	0
6.38223 	0.588966 	0.00744116 	3.08208 	0
6.45236 	0.588966 	0.00744116 	3.08208 	0
6.5225 	0.588966 	0.00744116 	3.08208 	0
6.59263 	0.588966 	0.00744116 	3.08208 	0
6.66277 	0.588966 	0.00744116 	3.08208 	0
6.7329 	0.588966 	0.00744116 	3.08208 	0
6.80304 	0.588966 	0.00744116 	3.08208 	0
6.87317 	0.563012 	0.00601176 	3.09095 	1.91329e-19
6.9433 	0.563012 	0.00601176 	3.09095 	1.91329e-19
7.01344 	0.563012 	0.00601176 	3.09095 	1.91329e-19
7.08357 	0.563012 	0.00601176 	3.09095 	1.91329e-19
7.15371 	0.563012 	0.00601176 	3.09095 	1.91329e-19
7.22384 	0.563012 	0.00601176 	3.09095 	1.91329e-19
7.29398 	0.563012 	0.00601176 	3.09095 	1.91329e-19
7.36411 	0.563012 	0.00601176 	3.09095 	1.91329e-19
7.43425 	0.563012 	0.00601176 	3.09095 	1.91329e-19
7.50438 	0.530535 	0.00869791 	3.10018 	-1.40286e-18
7.57451 	0.530535 	0.00869791 	3.10018 	-1.40286e-18
7.64465 	0.530535 	0.00869791 	3.10018 	-1.40286e-18
7.71478 	0.530535 	0.00869791 	3.10018 	-1.40286e-18
7.78492 	0.530535 	0.00869791 	3.10018 	-1.40286e-18
7.85505 	0.530535 	0.00869791 	3.10018 	-1.40286e-18
7.92519 	0.530535 	0.00869791 	3.10018 	-1.40286e-18
7.99532 	0.530535 	0.00869791 	3.10018 	-1.40286e-18
8.06545 	0.513588 	0.00250104 	3.1049 	1.37621e-18
8.13559 	0.513588 	0.00250104 	3.1049 	1.37621e-18
8.20572 	0.513588 	0.00250104 	3.1049 	1.37621e-18
8.27586 	0.513588 	0.00250104 	3.1049 	1.37621e-18
8.34599 	0.513588 	0.00250104 	3.1049 	1.37621e-18
8.41613 	0.513588 	0.00250104 	3.1049 	1.37621e-18
8.48626 	0.513588 	0.00250104 	3.1049 	1.37621e-18
8.5564 	0.513588 	0.00250104 	3.1049 	1.37621e-18
8.62653 	0.513588 	0.00250104 	3.1049 	1.37621e-18
8.69666 	0.481192 	0.0142168 	3.11867 	1.21436e-18
8.7668 	0.481192 	0.0142168 	3.11867 	1.21436e-18
8.83693 	0.481192 	0.0142168 	3.11867 	1.21436e-18
8.90707 	0.481192 	0.0142168 	3.11867 	1.21436e-18
8.9772 	0.481192 	0.0142168 	3.11867 	1.21436e-18
9.04734 	0.481192 	0.0142168 	3.11867 	1.21436e-18
9.11747 	0.481192 	0.0142168 	3.11867 	1.21436e-18
9.18761 	0.481192 	0.0142168 	3.11867 	1.21436e-18
9.25774 	0.447848 	0.00271554 	3.11882 	-1.12529e-18
9.32787 	0.447848 	0.00271554 	3.11882 	-1.12529e-18
9.39801 	0.447848 	0.00271554 	3.11882 	-1.12529e-18
9.46814 	0.447848 	0.00271554 	3.11882 	-1.12529e-18
9.53828 	0.447848 	0.00271554 	3.11882 	-1.12529e-18
9.60841 	0.447848 	0.00271554 	3.11882 	-1.12529e-18
9.67855 	0.447848 	0.00271554 	3.11882 	-1.12529e-18
9.74868 	0.447848 	0.00271554 	3.11882 	-1.12529e-18
9.81881 	0.433307 	0.0192786 	3.12958 	-3.41215e-19
9.88895 	0.433307 	0.0192786 	3.12958 	-3.41215e-19
9.95908 	0.433307 	0.0192786 	3.12958 	-3.41215e-19
10.0292 	0.433307 	0.0192786 	3.12958 	-3.41215e-19
10.0994 	0.433307 	0.0192786 	3.12958 	-3.41215e-19
10.1695 	0.433307 	0.0192786 	3.12958 	-3.41215e-19
10.2396 	0.433307 	0.0192786 	3.12958 	-3.41215e-19
10.3098 	0.433307 	0.0192786 	3.12958 	-3.41215e-19
10.3799 	0.433307 	0.0192786 	3.12958 	-3.41215e-19
10.45 	0.433307 	0.0192786 	3.12958 	-3.41215e-19
10.5202 	0.433307 	0.0192786 	3.12958 	-3.41215e-19
10.5903 	0.433307 	0.0192786 	3.12958 	-3.41215e-19
10.6604 	0.458535 	0.0178376 	3.12495 	5.02248e-19
10.7306 	0.402117 	0.0404645 	3.14022 	0
10.8007 	0.402117 	0.0404645 	3.14022 	0
10.8708 	0.402117 	0.0404645 	3.14022 	0
10.941 	0.402117 	0.0404645 	3.14022 	0
11.0111 	0.402117 	0.0404645 	3.14022 	0
11.0812 	0.402117 	0.0404645 	3.14022 	0
11.1514 	0.402117 	0.0404645 	3.14022 	0
11.2215 	0.402117 	0.0404645 	3.14022 	0
11.2916 	0.402117 	0.0404645 	3.14022 	0
11.3618 	0.402117 	0.0404645 	3.14022 	0
11.4319 	0.402117 	0.0404645 	3.14022 	0
11.502 	0.402117 	0.0404645 	3.14022 	0
11.5722 	0.402117 	0.0404645 	3.14022 	0
11.6423 	0.402117 	0.0404645 	3.14022 	0
11.7124 	0.40969 	0.0310738 	3.12672 	0
11.7826 	0.339688 	0.0828351 	3.16653 	5.0092e-19
11.8527 	0.339688 	0.0828351 	3.16653 	5.0092e-19
11.9228 	0.339688 	0.0828351 	3.16653 	5.0092e-19
11.993 	0.339688 	0.0828351 	3.16653 	5.0092e-19
12.0631 	0.339688 	0.0828351 	3.16653 	5.0092e-19
12.1332 	0.339688 	0.0828351 	3.16653 	5.0092e-19
12.2034 	0.230156 	0.0767045 	3.19432 	-2.11154e-19
12.2735 	0.230156 	0.0767045 	3.19432 	-2.11154e-19
12.3437 	0.230156 	0.0767045 	3.19432 	-2.11154e-19
12.4138 	0.230156 	0.0767045 	3.19432 	-2.11154e-19
12.4839 	0.230156 	0.0767045 	3.19432 	-2.11154e-19
12.5541 	0.230156 	0.0767045 	3.19432 	-2.11154e-19
12.6242 	0.230156 	0.0767045 	3.19432 	-2.11154e-19
12.6943 	0.230156 	0.0767045 	3.19432 	-2.11154e-19
12.7645 	0.230156 	0.0767045 	3.19432 	-2.11154e-19
12.8346 	0.103552 	0.042024 	3.1862 	9.02056e-20
12.9047 	0.0764348 	0.139335 	3.23612 	9.89491e-21
12.9749 	0.0764348 	0.139335 	3.23612 	9.89491e-21
13.045 	0.0764348 	0.139335 	3.23612 	9.89491e-21
13.1151 	0.0764348 	0.139335 	3.23612 	9.89491e-21
13.1853 	0.0764348 	0.139335 	3.23612 	9.89491e-21
13.2554 	0.0764348 	0.139335 	3.23612 	9.89491e-21
13.3255 	0.0764348 	0.139335 	3.23612 	9.89491e-21
13.3957 	0.301942 	0.148676 	3.20787 	7.327e-19
13.4658 	0.301942 	0.148676 	3.20787 	7.327e-19
13.5359 	0.301942 	0.148676 	3.20787 	7.327e-19
13.6061 	0.301942 	0.148676 	3.20787 	7.327e-19
13.6762 	0.301942 	0.148676 	3.20787 	7.327e-19
13.7463 	0.301942 	0.148676 	3.20787 	7.327e-19
13.8165 	0.357423 	0.134732 	2.8863 	-6.32156e-19
13.8866 	0.497305 	0.162191 	2.99414 	3.87436e-20
13.9567 	0.497305 	0.162191 	2.99414 	3.87436e-20
14.0269 	-0.0450187 	0.247703 	3.0664 	-4.97669e-19
14.097 	-0.0450187 	0.247703 	3.0664 	-4.97669e-19
14.1671 	-0.0450187 	0.247703 	3.0664 	-4.97669e-19
14.2373 	-0.0450187 	0.247703 	3.0664 	-4.97669e-19
14.3074 	-0.0450187 	0.247703 	3.0664 	-4.97669e-19
14.3776 	-0.0450187 	0.247703 	3.0664 	-4.97669e-19
14.4477 	-0.0450187 	0.247703 	3.0664 	-4.97669e-19
14.5178 	-0.0450187 	0.247703 	3.0664 	-4.97669e-19
14.588 	-0.0450187 	0.247703 	3.0664 	-4.97669e-19
14.6581 	-0.0450187 	0.247703 	3.0664 	-4.97669e-19
14.7282 	-0.0450187 	0.247703 	3.0664 	-4.97669e-19
14.7984 	-0.0450187 	0.247703 	3.0664 	-4.97669e-19
14.8685 	-0.0450187 	0.247703 	3.0664 	-4.97669e-19
14.9386 	-0.208426 	0.34127 	3.21316 	0
15.0088 	-0.208426 	0.34127 	3.21316 	0
15.0789 	-0.208426 	0.34127 	3.21316 	0
15.149 	-0.208426 	0.34127 	3.21316 	0
15.2192 	-0.208426 	0.34127 	3.21316 	0
15.2893 	-0.685556 	0.327968 	3.42641 	-4.54872e-19
15.3594 	-0.685556 	0.327968 	3.42641 	-4.54872e-19
15.4296 	-0.685556 	0.327968 	3.42641 	-4.54872e-19
15.4997 	-0.685556 	0.327968 	3.42641 	-4.54872e-19
15.5698 	-0.685556 	0.327968 	3.42641 	-4.54872e-19
15.64 	-0.685556 	0.327968 	3.42641 	-4.54872e-19
15.7101 	-1.16692 	0.384454 	3.49636 	0
15.7802 	-1.16692 	0.384454 	3.49636 	0
15.8504 	-1.07309 	0.623463 	3.54466 	1.63523e-18
15.9205 	-1.07309 	0.623463 	3.54466 	1.63523e-18
15.9906 	-1.07309 	0.623463 	3.54466 	1.63523e-18
16.0608 	-1.07309 	0.623463 	3.54466 	1.63523e-18
16.1309 	-1.07309 	0.623463 	3.54466 	1.63523e-18
16.201 	-1.07309 	0.623463 	3.54466 	1.63523e-18
16.2712 	-1.07309 	0.623463 	3.54466 	1.63523e-18
16.3413 	-1.07309 	0.623463 	3.54466 	1.63523e-18
16.4114 	-1.07309 	0.623463 	3.54466 	1.63523e-18
16.4816 	-1.07309 	0.623463 	3.54466 	1.63523e-18
16.5517 	-1.07309 	0.623463 	3.54466 	1.63523e-18
16.6219 	-1.07309 	0.623463 	3.54466 	1.63523e-18
16.692 	-1.07309 	0.623463 	3.54466 	1.63523e-18
16.7621 	-1.07309 	0.623463 	3.54466 	1.63523e-18
16.8323 	-0.617583 	0.843652 	3.14562 	3.79782e-19
16.9024 	-0.617583 	0.843652 	3.14562 	3.79782e-19
16.9725 	-0.617583 	0.843652 	3.14562 	3.79782e-19
17.0427 	-0.617583 	0.843652 	3.14562 	3.79782e-19
17.1128 	-0.617583 	0.843652 	3.14562 	3.79782e-19
17.1829 	-0.617583 	0.843652 	3.14562 	3.79782e-19
17.2531 	-0.617583 	0.843652 	3.14562 	3.79782e-19
17.3232 	-0.617583 	0.843652 	3.14562 	3.79782e-19
17.3933 	-0.617583 	0.843652 	3.14562 	3.79782e-19
17.4635 	-0.617583 	0.843652 	3.14562 	3.79782e-19
17.5336 	-0.473917 	0.895188 	3.04812 	-3.50606e-19
17.6037 	-0.473917 	0.895188 	3.04812 	-3.50606e-19
17.6739 	-0.473917 	0.895188 	3.04812 	-3.50606e-19
17.744 	-0.550052 	1.02135 	3.15571 	4.15121e-19
17.8141 	-0.550052 	1.02135 	3.15571 	4.15121e-19
17.8843 	-0.550052 	1.02135 	3.15571 	4.15121e-19
17.9544 	-0.550052 	1.02135 	3.15571 	4.15121e-19
18.0245 	-0.550052 	1.02135 	3.15571 	4.15121e-19
18.0947 	-0.550052 	1.02135 	3.15571 	4.15121e-19
18.1648 	-0.550052 	1.02135 	3.15571 	4.15121e-19
18.2349 	-0.550052 	1.02135 	3.15571 	4.15121e-19
18.3051 	-0.550052 	1.02135 	3.15571 	4.15121e-19
18.3752 	-0.287378 	0.983499 	2.80442 	-3.1514e-19
18.4453 	-0.287378 	0.983499 	2.80442 	-3.1514e-19
18.5155 	-0.287378 	0.983499 	2.80442 	-3.1514e-19
18.5856 	-0.287378 	0.983499 	2.80442 	-3.1514e-19
18.6557 	-0.287378 	0.983499 	2.80442 	-3.1514e-19
18.7259 	-0.287378 	0.983499 	2.80442 	-3.1514e-19
18.796 	-0.287378 	0.983499 	2.80442 	-3.1514e-19
18.8662 	-0.234565 	1.03755 	2.79211 	2.3008e-19
18.9363 	-0.234565 	1.03755 	2.79211 	2.3008e-19
19.0064 	-0.234565 	1.03755 	2.79211 	2.3008e-19
19.0766 	-0.234565 	1.03755 	2.79211 	2.3008e-19
19.1467 	-0.234565 	1.03755 	2.79211 	2.3008e-19
19.2168 	-0.234565 	1.03755 	2.79211 	2.3008e-19
19.287 	-0.234565 	1.03755 	2.79211 	2.3008e-19
19.3571 	-0.234565 	1.03755 	2.79211 	2.3008e-19
19.4272 	-0.234565 	1.03755 	2.79211 	2.3008e-19
19.4974 	-0.234565 	1.03755 	2.79211 	2.3008e-19
19.5675 	-0.234565 	1.03755 	2.79211 	2.3008e-19
19.6376 	-0.234565 	1.03755 	2.79211 	2.3008e-19
19.7078 	-0.234565 	1.03755 	2.79211 	2.3008e-19
19.7779 	-0.065652 	0.975334 	2.47768 	-1.0593e-19
19.848 	-0.065652 	0.975334 	2.47768 	-1.0593e-19
19.9182 	-0.065652 	0.975334 	2.47768 	-1.0593e-19
19.9883 	-0.065652 	0.975334 	2.47768 	-1.0593e-19
20.0584 	-0.065652 	0.975334 	2.47768 	-1.0593e-19
20.1286 	-0.065652 	0.975334 	2.47768 	-1.0593e-19
20.1987 	-0.065652 	0.975334 	2.47768 	-1.0593e-19
20.2688 	-0.0287151 	0.999575 	2.36846 	-6.06873e-20
20.339 	-0.0287151 	0.999575 	2.36846 	-6.06873e-20
20.4091 	-0.0287151 	0.999575 	2.36846 	-6.06873e-20
20.4792 	-0.0287151 	0.999575 	2.36846 	-6.06873e-20
20.5494 	-0.0287151 	0.999575 	2.36846 	-6.06873e-20
20.6195 	-0.0287151 	0.999575 	2.36846 	-6.06873e-20
20.6896 	-0.0287151 	0.999575 	2.36846 	-6.06873e-20
20.7598 	-0.0287151 	0.999575 	2.36846 	-6.06873e-20
20.8299 	-0.0287151 	0.999575 	2.36846 	-6.06873e-20
20.9 	-0.0287151 	0.999575 	2.36846 	-6.06873e-20
20.9702 	-0.0287151 	0.999575 	2.36846 	-6.06873e-20
21.0403 	-0.0287151 	0.999575 	2.36846 	-6.06873e-20
21.1105 	-0.0287151 	0.999575 	2.36846 	-6.06873e-20
21.1806 	-0.0287151 	0.999575 	2.36846 	-6.06873e-20
21.2507 	-0.0287151 	0.999575 	2.36846 	-6.06873e-20
21.3209 	-0.0287151 	0.999575 	2.36846 	-6.06873e-20
21.391 	-0.0287151 	0.999575 	2.36846 	-6.06873e-20
21.4611 	0.0339943 	0.770485 	1.87793 	-7.65372e-20
21.5313 	0.0339943 	0.770485 	1.87793 	-7.65372e-20
21.6014 	0.0339943 	0.770485 	1.87793 	-7.65372e-20
21.6715 	-0.0906637 	0.869981 	1.41024 	1.67067e-19
21.7417 	-0.0906637 	0.869981 	1.41024 	1.67067e-19
21.8118 	-0.0906637 	0.869981 	1.41024 	1.67067e-19
21.8819 	-0.0906637 	0.869981 	1.41024 	1.67067e-19
21.9521 	-0.0906637 	0.869981 	1.41024 	1.67067e-19
22.0222 	-0.379711 	1.14786 	2.33482 	-2.6074e-19
22.0923 	-0.379711 	1.14786 	2.33482 	-2.6074e-19
22.1625 	-0.379711 	1.14786 	2.33482 	-2.6074e-19
22.2326 	-0.379711 	1.14786 	2.33482 	-2.6074e-19
22.3027 	-0.379711 	1.14786 	2.33482 	-2.6074e-19
22.3729 	-0.379711 	1.14786 	2.33482 	-2.6074e-19
22.443 	-0.379711 	1.14786 	2.33482 	-2.6074e-19
22.5131 	-0.379711 	1.14786 	2.33482 	-2.6074e-19
22.5833 	-0.379711 	1.14786 	2.33482 	-2.6074e-19
22.6534 	-0.379711 	1.14786 	2.33482 	-2.6074e-19
22.7235 	-0.379711 	1.14786 	2.33482 	-2.6074e-19
22.7937 	-0.379711 	1.14786 	2.33482 	-2.6074e-19
22.8638 	-0.379711 	1.14786 	2.33482 	-2.6074e-19
22.9339 	-0.379711 	1.14786 	2.33482 	-2.6074e-19
23.0041 	-0.379711 	1.14786 	2.33482 	-2.6074e-19
23.0742 	-0.379711 	1.14786 	2.33482 	-2.6074e-19
23.1443 	-0.379711 	1.14786 	2.33482 	-2.6074e-19
23.2145 	-0.379711 	1.14786 	2.33482 	-2.6074e-19
23.2846 	-0.379711 	1.14786 	2.33482 	-2.6074e-19
23.3548 	-0.379711 	1.14786 	2.33482 	-2.6074e-19
23.4249 	-0.379711 	1.14786 	2.33482 	-2.6074e-19
23.495 	-0.517297 	1.11423 	2.43472 	1.16227e-19
23.5652 	-0.517297 	1.11423 	2.43472 	1.16227e-19
23.6353 	-0.517297 	1.11423 	2.43472 	1.16227e-19
23.7054 	-0.517297 	1.11423 	2.43472 	1.16227e-19
23.7756 	-0.517297 	1.11423 	2.43472 	1.16227e-19
23.8457 	-0.517297 	1.11423 	2.43472 	1.16227e-19
23.9158 	-0.517297 	1.11423 	2.43472 	1.16227e-19
23.986 	-0.440206 	0.982306 	2.54572 	-7.41285e-21
24.0561 	-0.440206 	0.982306 	2.54572 	-7.41285e-21
24.1262 	-0.440206 	0.982306 	2.54572 	-7.41285e-21
24.1964 	-0.440206 	0.982306 	2.54572 	-7.41285e-21
24.2665 	-0.440206 	0.982306 	2.54572 	-7.41285e-21
24.3366 	-0.440206 	0.982306 	2.54572 	-7.41285e-21
24.4068 	-0.440206 	0.982306 	2.54572 	-7.41285e-21
24.4769 	-0.440206 	0.982306 	2.54572 	-7.41285e-21
24.547 	-0.440206 	0.982306 	2.54572 	-7.41285e-21
24.6172 	-0.440206 	0.982306 	2.54572 	-7.41285e-21
24.6873 	-0.440206 	0.982306 	2.54572 	-7.41285e-21
24.7574 	-0.440206 	0.982306 	2.54572 	-7.41285e-21
24.8276 	-0.440206 	0.982306 	2.54572 	-7.41285e-21
24.8977 	-0.440206 	0.982306 	2.54572 	-7.41285e-21
24.9678 	-0.440206 	0.982306 	2.54572 	-7.41285e-21
25.038 	-0.440206 	0.982306 	2.54572 	-7.41285e-21
25.1081 	-0.440206 	0.982306 	2.54572 	-7.41285e-21
25.1782 	-0.494345 	0.784032 	1.77181 	0
25.2484 	-0.494345 	0.784032 	1.77181 	0
25.3185 	-0.494345 	0.784032 	1.77181 	0
25.3886 	-0.494345 	0.784032 	1.77181 	0
25.4588 	-0.494345 	0.784032 	1.77181 	0
25.5289 	-0.494345 	0.784032 	1.77181 	0
25.5991 	-0.494345 	0.784032 	1.77181 	0
25.6692 	-0.494345 	0.784032 	1.77181 	0
25.7393 	-0.494345 	0.784032 	1.77181 	0
25.8095 	-0.494345 	0.784032 	1.77181 	0
25.8796 	-0.494345 	0.784032 	1.77181 	0
25.9497 	-0.494345 	0.784032 	1.77181 	0
26.0199 	-0.494345 	0.784032 	1.77181 	0
26.09 	-0.494345 	0.784032 	1.77181 	0
26.1601 	-0.494345 	0.784032 	1.77181 	0
26.2303 	-0.601972 	0.531886 	1.91648 	1.10113e-18
26.3004 	-0.601972 	0.531886 	1.91648 	1.10113e-18
26.3705 	-0.601972 	0.531886 	1.91648 	1.10113e-18
26.4407 	-0.601972 	0.531886 	1.91648 	1.10113e-18
26.5108 	-0.601972 	0.531886 	1.91648 	1.10113e-18
26.5809 	-0.601972 	0.531886 	1.91648 	1.10113e-18
26.6511 	-0.601972 	0.531886 	1.91648 	1.10113e-18
26.7212 	-0.601972 	0.531886 	1.91648 	1.10113e-18
26.7913 	-0.601972 	0.531886 	1.91648 	1.10113e-18
26.8615 	-0.601972 	0.531886 	1.91648 	1.10113e-18
26.9316 	-0.601972 	0.531886 	1.91648 	1.10113e-18
27.0017 	-0.601972 	0.531886 	1.91648 	1.10113e-18
27.0719 	-0.601972 	0.531886 	1.91648 	1.10113e-18
27.142 	-0.601972 	0.531886 	1.91648 	1.10113e-18
27.2121 	-0.601972 	0.531886 	1.91648 	1.10113e-18
27.2823 	-0.601972 	0.531886 	1.91648 	1.10113e-18
27.3524 	-0.504802 	0.262612 	1.98727 	-1.19601e-18
27.4225 	-0.504802 	0.262612 	1.98727 	-1.19601e-18
27.4927 	-0.504802 	0.262612 	1.98727 	-1.19601e-18
27.5628 	-0.504802 	0.262612 	1.98727 	-1.19601e-18
27.6329 	-0.504802 	0.262612 	1.98727 	-1.19601e-18
27.7031 	-0.504802 	0.262612 	1.98727 	-1.19601e-18
27.7732 	-0.504802 	0.262612 	1.98727 	-1.19601e-18
27.8434 	-0.504802 	0.262612 	1.98727 	-1.19601e-18
27.9135 	-0.504802 	0.262612 	1.98727 	-1.19601e-18
27.9836 	-0.504802 	0.262612 	1.98727 	-1.19601e-18
28.0538 	-0.504802 	0.262612 	1.98727 	-1.19601e-18
28.1239 	-0.504802 	0.262612 	1.98727 	-1.19601e-18
28.194 	-0.504802 	0.262612 	1.98727 	-1.19601e-18
28.2642 	-0.504802 	0.262612 	1.98727 	-1.19601e-18
28.3343 	-0.504802 	0.262612 	1.98727 	-1.19601e-18
28.4044 	-0.504802 	0.262612 	1.98727 	-1.19601e-18
28.4746 	-0.504802 	0.262612 	1.98727 	-1.19601e-18
28.5447 	-0.504802 	0.262612 	1.98727 	-1.19601e-18
28.6148 	-0.504802 	0.262612 	1.98727 	-1.19601e-18
28.685 	-0.504802 	0.262612 	1.98727 	-1.19601e-18
28.7551 	-0.504802 	0.262612 	1.98727 	-1.19601e-18
28.8252 	-0.504802 	0.262612 	1.98727 	-1.19601e-18
28.8954 	-0.504802 	0.262612 	1.98727 	-1.19601e-18
28.9655 	-0.468001 	0.00539642 	2.13488 	-4.86002e-20
29.0356 	-0.468001 	0.00539642 	2.13488 	-4.86002e-20
29.1058 	-0.468001 	0.00539642 	2.13488 	-4.86002e-20
29.1759 	-0.468001 	0.00539642 	2.13488 	-4.86002e-20
29.246 	-0.468001 	0.00539642 	2.13488 	-4.86002e-20
29.3162 	-0.468001 	0.00539642 	2.13488 	-4.86002e-20
29.3863 	-0.468001 	0.00539642 	2.13488 	-4.86002e-20
29.4564 	-0.468001 	0.00539642 	2.13488 	-4.86002e-20
29.5266 	-0.468001 	0.00539642 	2.13488 	-4.86002e-20
29.5967 	-0.468001 	0.00539642 	2.13488 	-4.86002e-20
29.6668 	-0.468001 	0.00539642 	2.13488 	-4.86002e-20
29.737 	-0.468001 	0.00539642 	2.13488 	-4.86002e-20
29.8071 	-0.468001 	0.00539642 	2.13488 	-4.86002e-20
29.8773 	-0.468001 	0.00539642 	2.13488 	-4.86002e-20
29.9474 	-0.468001 	0.00539642 	2.13488 	-4.86002e-20
30.0175 	-0.468001 	0.00539642 	2.13488 	-4.86002e-20
30.0877 	-0.468001 	0.00539642 	2.13488 	-4.86002e-20
30.1578 	-0.468001 	0.00539642 	2.13488 	-4.86002e-20
30.2279 	-0.468001 	0.00539642 	2.13488 	-4.86002e-20
30.2981 	-0.468001 	0.00539642 	2.13488 	-4.86002e-20
30.3682 	-0.468001 	0.00539642 	2.13488 	-4.86002e-20
30.4383 	-0.468001 	0.00539642 	2.13488 	-4.86002e-20
30.5085 	-0.468001 	0.00539642 	2.13488 	-4.86002e-20
30.5786 	-0.468001 	0.00539642 	2.13488 	-4.86002e-20
30.6487 	-0.468001 	0.00539642 	2.13488 	-4.86002e-20
30.7189 	-0.468001 	0.00539642 	2.13488 	-4.86002e-20
30.789 	-0.110931 	-0.188745 	1.81836 	3.81607e-19
30.8591 	-0.110931 	-0.188745 	1.81836 	3.81607e-19
30.9293 	-0.110931 	-0.188745 	1.81836 	3.81607e-19
30.9994 	-0.110931 	-0.188745 	1.81836 	3.81607e-19
31.0695 	-0.110931 	-0.188745 	1.81836 	3.81607e-19
31.1397 	-0.110931 	-0.188745 	1.81836 	3.81607e-19
31.2098 	-0.110931 	-0.188745 	1.81836 	3.81607e-19
31.2799 	-0.110931 	-0.188745 	1.81836 	3.81607e-19
31.3501 	-0.110931 	-0.188745 	1.81836 	3.81607e-19
31.4202 	-0.110931 	-0.188745 	1.81836 	3.81607e-19
31.4903 	-0.110931 	-0.188745 	1.81836 	3.81607e-19
31.5605 	-0.110931 	-0.188745 	1.81836 	3.81607e-19
31.6306 	-0.110931 	-0.188745 	1.81836 	3.81607e-19
31.7007 	-0.110931 	-0.188745 	1.81836 	3.81607e-19
31.7709 	-0.110931 	-0.188745 	1.81836 	3.81607e-19
31.841 	-0.110931 	-0.188745 	1.81836 	3.81607e-19
31.9111 	-0.110931 	-0.188745 	1.81836 	3.81607e-19
31.9813 	-0.110931 	-0.188745 	1.81836 	3.81607e-19
32.0514 	-0.110931 	-0.188745 	1.81836 	3.81607e-19
32.1216 	-0.110931 	-0.188745 	1.81836 	3.81607e-19
32.1917 	-0.110931 	-0.188745 	1.81836 	3.81607e-19
32.2618 	-0.110931 	-0.188745 	1.81836 	3.81607e-19
32.332 	-0.110931 	-0.188745 	1.81836 	3.81607e-19
32.4021 	-0.110931 	-0.188745 	1.81836 	3.81607e-19
32.4722 	-0.110931 	-0.188745 	1.81836 	3.81607e-19
32.5424 	-0.110931 	-0.188745 	1.81836 	3.81607e-19
32.6125 	-0.110931 	-0.188745 	1.81836 	3.81607e-19
32.6826 	-0.110931 	-0.188745 	1.81836 	3.81607e-19
32.7528 	-0.110931 	-0.188745 	1.81836 	3.81607e-19
32.8229 	-0.110931 	-0.188745 	1.81836 	3.81607e-19
32.893 	-0.110931 	-0.188745 	1.81836 	3.81607e-19
32.9632 	-0.110931 	-0.188745 	1.81836 	3.81607e-19
33.0333 	-0.110931 	-0.188745 	1.81836 	3.81607e-19
33.1034 	-0.110931 	-0.188745 	1.81836 	3.81607e-19
33.1736 	-0.110931 	-0.188745 	1.81836 	3.81607e-19
33.2437 	-0.110931 	-0.188745 	1.81836 	3.81607e-19
33.3138 	-0.110931 	-0.188745 	1.81836 	3.81607e-19
33.384 	-0.110931 	-0.188745 	1.81836 	3.81607e-19
33.4541 	-0.110931 	-0.188745 	1.81836 	3.81607e-19
33.5242 	-0.110931 	-0.188745 	1.81836 	3.81607e-19
33.5944 	-0.110931 	-0.188745 	1.81836 	3.81607e-19
33.6645 	-0.110931 	-0.188745 	1.81836 	3.81607e-19
33.7346 	-0.14983 	-0.0937853 	1.75167 	-1.72407e-19
33.8048 	-0.14983 	-0.0937853 	1.75167 	-1.72407e-19
33.8749 	-0.14983 	-0.0937853 	1.75167 	-1.72407e-19
33.945 	-0.14983 	-0.0937853 	1.75167 	-1.72407e-19
34.0152 	-0.14983 	-0.0937853 	1.75167 	-1.72407e-19
34.0853 	-0.14983 	-0.0937853 	1.75167 	-1.72407e-19
34.1554 	-0.150017 	-0.0751691 	1.73884 	7.62339e-20
34.2256 	-0.150017 	-0.0751691 	1.73884 	7.62339e-20
34.2957 	-0.150017 	-0.0751691 	1.73884 	7.62339e-20
34.3659 	-0.150017 	-0.0751691 	1.73884 	7.62339e-20
34.436 	-0.150017 	-0.0751691 	1.73884 	7.62339e-20
34.5061 	-0.150017 	-0.0751691 	1.73884 	7.62339e-20
34.5763 	-0.150017 	-0.0751691 	1.73884 	7.62339e-20
34.6464 	-0.150017 	-0.0751691 	1.73884 	7.62339e-20
34.7165 	0.0995107 	-0.00640191 	1.8901 	-1.65576e-20
34.7867 	0.0995107 	-0.00640191 	1.8901 	-1.65576e-20
34.8568 	0.0995107 	-0.00640191 	1.8901 	-1.65576e-20
34.9269 	0.0995107 	-0.00640191 	1.8901 	-1.65576e-20
34.9971 	0.0995107 	-0.00640191 	1.8901 	-1.65576e-20
35.0672 	0.0995107 	-0.00640191 	1.8901 	-1.65576e-20
35.1373 	0.0995107 	-0.00640191 	1.8901 	-1.65576e-20
35.2075 	0.0995107 	-0.00640191 	1.8901 	-1.65576e-20
35.2776 	0.0995107 	-0.00640191 	1.8901 	-1.65576e-20
35.3477 	0.0995107 	-0.00640191 	1.8901 	-1.65576e-20
35.4179 	0.0995107 	-0.00640191 	1.8901 	-1.65576e-20
35.488 	0.0995107 	-0.00640191 	1.8901 	-1.65576e-20
35.5581 	0.0995107 	-0.00640191 	1.8901 	-1.65576e-20
35.6283 	0.0995107 	-0.00640191 	1.8901 	-1.65576e-20
35.6984 	0.0995107 	-0.00640191 	1.8901 	-1.65576e-20
35.7685 	0.0995107 	-0.00640191 	1.8901 	-1.65576e-20
35.8387 	0.0995107 	-0.00640191 	1.8901 	-1.65576e-20
35.9088 	0.0995107 	-0.00640191 	1.8901 	-1.65576e-20
35.9789 	0.0995107 	-0.00640191 	1.8901 	-1.65576e-20
36.0491 	0.145361 	0.00883093 	1.86344 	0
36.1192 	0.145361 	0.00883093 	1.86344 	0
36.1893 	0.145361 	0.00883093 	1.86344 	0
36.2595 	0.145361 	0.00883093 	1.86344 	0
36.3296 	0.145361 	0.00883093 	1.86344 	0
36.3997 	0.145361 	0.00883093 	1.86344 	0
36.4699 	0.145361 	0.00883093 	1.86344 	0
36.54 	0.145361 	0.00883093 	1.86344 	0
36.6102 	0.145361 	0.00883093 	1.86344 	0
36.6803 	0.145361 	0.00883093 	1.86344 	0
36.7504 	0.145361 	0.00883093 	1.86344 	0
36.8206 	0.145361 	0.00883093 	1.86344 	0
36.8907 	0.0669096 	-0.00535262 	1.83265 	8.73898e-20
36.9608 	0.0669096 	-0.00535262 	1.83265 	8.73898e-20
37.031 	0.0669096 	-0.00535262 	1.83265 	8.73898e-20
37.1011 	0.0669096 	-0.00535262 	1.83265 	8.73898e-20
37.1712 	0.0669096 	-0.00535262 	1.83265 	8.73898e-20
37.2414 	0.0669096 	-0.00535262 	1.83265 	8.73898e-20
37.3115 	0.0669096 	-0.00535262 	1.83265 	8.73898e-20
37.3816 	0.0669096 	-0.00535262 	1.83265 	8.73898e-20
37.4518 	0.0669096 	-0.00535262 	1.83265 	8.73898e-20
37.5219 	0.0669096 	-0.00535262 	1.83265 	8.73898e-20
37.592 	0.0669096 	-0.00535262 	1.83265 	8.73898e-20
37.6622 	0.0669096 	-0.00535262 	1.83265 	8.73898e-20
37.7323 	0.0669096 	-0.00535262 	1.83265 	8.73898e-20
37.8024 	0.0669096 	-0.00535262 	1.83265 	8.73898e-20
37.8726 	0.0669096 	-0.00535262 	1.83265 	8.73898e-20
37.9427 	0.0669096 	-0.00535262 	1.83265 	8.73898e-20
38.0128 	0.0669096 	-0.00535262 	1.83265 	8.73898e-20
38.083 	0.0669096 	-0.00535262 	1.83265 	8.73898e-20
38.1531 	0.0669096 	-0.00535262 	1.83265 	8.73898e-20
38.2232 	0.117649 	0.00933712 	1.81404 	-9.69731e-20
38.2934 	0.117649 	0.00933712 	1.81404 	-9.69731e-20
38.3635 	0.117649 	0.00933712 	1.81404 	-9.69731e-20
38.4336 	0.117649 	0.00933712 	1.81404 	-9.69731e-20
38.5038 	0.117649 	0.00933712 	1.81404 	-9.69731e-20
38.5739 	0.117649 	0.00933712 	1.81404 	-9.69731e-20
38.644 	0.117649 	0.00933712 	1.81404 	-9.69731e-20
38.7142 	0.117649 	0.00933712 	1.81404 	-9.69731e-20
38.7843 	0.117649 	0.00933712 	1.81404 	-9.69731e-20
38.8545 	0.117649 	0.00933712 	1.81404 	-9.69731e-20
38.9246 	0.117649 	0.00933712 	1.81404 	-9.69731e-20
38.9947 	0.117649 	0.00933712 	1.81404 	-9.69731e-20
39.0649 	0.117649 	0.00933712 	1.81404 	-9.69731e-20
39.135 	0.117649 	0.00933712 	1.81404 	-9.69731e-20
39.2051 	0.104448 	0.0168482 	1.81062 	0
39.2753 	0.104448 	0.0168482 	1.81062 	0
39.3454 	0.104448 	0.0168482 	1.81062 	0
39.4155 	0.104448 	0.0168482 	1.81062 	0
39.4857 	0.104448 	0.0168482 	1.81062 	0
39.5558 	0.104448 	0.0168482 	1.81062 	0
39.6259 	0.104448 	0.0168482 	1.81062 	0
39.6961 	0.104448 	0.0168482 	1.81062 	0
39.7662 	0.104448 	0.0168482 	1.81062 	0
39.8363 	0.104448 	0.0168482 	1.81062 	0
39.9065 	0.104448 	0.0168482 	1.81062 	0
39.9766 	0.104448 	0.0168482 	1.81062 	0
40.0467 	0.104448 	0.0168482 	1.81062 	0
40.1169 	0.104448 	0.0168482 	1.81062 	0
40.187 	0.104448 	0.0168482 	1.81062 	0
40.2571 	0.104448 	0.0168482 	1.81062 	0
40.3273 	0.104448 	0.0168482 	1.81062 	0
40.3974 	0.104448 	0.0168482 	1.81062 	0
40.4675 	0.104448 	0.0168482 	1.81062 	0
40.5377 	0.104448 	0.0168482 	1.81062 	0
40.6078 	0.104448 	0.0168482 	1.81062 	0
40.6779 	0.0420564 	0.00412532 	1.80961 	-3.11808e-20
40.7481 	0.0420564 	0.00412532 	1.80961 	-3.11808e-20
40.8182 	0.0420564 	0.00412532 	1.80961 	-3.11808e-20
40.8883 	0.0420564 	0.00412532 	1.80961 	-3.11808e-20
40.9585 	0.0420564 	0.00412532 	1.80961 	-3.11808e-20
41.0286 	0.0420564 	0.00412532 	1.80961 	-3.11808e-20
41.0988 	0.0420564 	0.00412532 	1.80961 	-3.11808e-20
41.1689 	0.0420564 	0.00412532 	1.80961 	-3.11808e-20
41.239 	0.0651106 	0.00410209 	1.80202 	5.82486e-20
41.3092 	0.0651106 	0.00410209 	1.80202 	5.82486e-20
41.3793 	0.0651106 	0.00410209 	1.80202 	5.82486e-20
41.4494 	0.0651106 	0.00410209 	1.80202 	5.82486e-20
41.5196 	0.0651106 	0.00410209 	1.80202 	5.82486e-20
41.5897 	0.0651106 	0.00410209 	1.80202 	5.82486e-20
41.6598 	0.0651106 	0.00410209 	1.80202 	5.82486e-20
41.73 	0.0651106 	0.00410209 	1.80202 	5.82486e-20
41.8001 	0.0651106 	0.00410209 	1.80202 	5.82486e-20
41.8702 	0.0651106 	0.00410209 	1.80202 	5.82486e-20
41.9404 	0.0651106 	0.00410209 	1.80202 	5.82486e-20
42.0105 	0.0651106 	0.00410209 	1.80202 	5.82486e-20
42.0806 	0.0651106 	0.00410209 	1.80202 	5.82486e-20
42.1508 	0.0651106 	0.00410209 	1.80202 	5.82486e-20
42.2209 	0.0651106 	0.00410209 	1.80202 	5.82486e-20
42.291 	0.0651106 	0.00410209 	1.80202 	5.82486e-20
42.3612 	0.0651106 	0.00410209 	1.80202 	5.82486e-20
42.4313 	0.0651106 	0.00410209 	1.80202 	5.82486e-20
42.5014 	0.0651106 	0.00410209 	1.80202 	5.82486e-20
42.5716 	0.0651106 	0.00410209 	1.80202 	5.82486e-20
42.6417 	0.0651106 	0.00410209 	1.80202 	5.82486e-20
42.7118 	0.0550783 	0.00575957 	1.79919 	0