0.490941 	0.872142 	0.00612754 	3.00283 	0
0.561075 	0.872142 	0.00612754 	3.00283 	0
0.63121 	0.872142 	0.00612754 	3.00283 	0
0.701344 	0.872142 	0.00612754 	3.00283 	0
0.771478 	0.872142 	0.00612754 	3.00283 	0
0.841613 	0.872142 	0.00612754 	3.00283 	0
0.911747 	0.872142 	0.00612754 	3.00283 	0
0.981881 	0.872142 	0.00612754 	3.00283 	0
1.05202 	0.872142 	0.00612754 	3.00283 	0
1.12215 	0.872142 	0.00612754 	3.00283 	0
1.19228 	0.872142 	0.00612754 	3.00283 	0
1.26242 	0.846013 	0.0115202 	3.00793 	0
1.33255 	0.846013 	0.0115202 	3.00793 	0
1.40269 	0.846013 	0.0115202 	3.00793 	0
1.47282 	0.846013 	0.0115202 	3.00793 	0
1.54296 	0.846013 	0.0115202 	3.00793 	0
1.61309 	0.846013 	0.0115202 	3.00793 	0
1.68323 	0.846013 	0.0115202 	3.00793 	0
1.75336 	0.846013 	0.0115202 	3.00793 	0
1.82349 	0.796358 	0.0147982 	3.024 	3.03832e-19
1.89363 	0.796358 	0.0147982 	3.024 	3.03832e-19
1.96376 	0.796358 	0.0147982 	3.024 	3.03832e-19
2.0339 	0.796358 	0.0147982 	3.024 	3.03832e-19
2.10403 	0.796358 	0.0147982 	3.024 	3.03832e-19
2.17417 	0.796358 	0.0147982 	3.024 	3.03832e-19
2.2443 	0.796358 	0.0147982 	3.024 	3.03832e-19
2.31443 	0.796358 	0.0147982 	3.024 	3.03832e-19
2.38457 	0.796358 	0.0147982 	3.024 	3.03832e-19
2.4547 	0.796358 	0.0147982 	3.024 	3.03832e-19
2.52484 	0.796358 	0.0147982 	3.024 	3.03832e-19
2.59497 	0.761515 	0.00727387 	3.03674 	-4.75572e-19
2.66511 	0.761515 	0.00727387 	3.03674 	-4.75572e-19
2.73524 	0.761515 	0.00727387 	3.03674 	-4.75572e-19
2.80538 	0.761515 	0.00727387 	3.03674 	-4.75572e-19
2.87551 	0.761515 	0.00727387 	3.03674 	-4.75572e-19
2.94564 	0.761515 	0.00727387 	3.03674 	-4.75572e-19
3.01578 	0.761515 	0.00727387 	3.03674 	-4.75572e-19
3.08591 	0.761515 	0.00727387 	3.03674 	-4.75572e-19
3.15605 	0.761515 	0.00727387 	3.03674 	-4.75572e-19
3.22618 	0.761515 	0.00727387 	3.03674 	-4.75572e-19
3.29632 	0.728865 	0.0199662 	3.04358 	4.81648e-19
3.36645 	0.728865 	0.0199662 	3.04358 	4.81648e-19
3.43659 	0.728865 	0.0199662 	3.04358 	4.81648e-19
3.50672 	0.728865 	0.0199662 	3.04358 	4.81648e-19
3.57685 	0.728865 	0.0199662 	3.04358 	4.81648e-19
3.64699 	0.728865 	0.0199662 	3.04358 	4.81648e-19
3.71712 	0.728865 	0.0199662 	3.04358 	4.81648e-19
3.78726 	0.728865 	0.0199662 	3.04358 	4.81648e-19
3.85739 	0.728865 	0.0199662 	3.04358 	4.81648e-19
3.92753 	0.728865 	0.0199662 	3.04358 	4.81648e-19
3.99766 	0.728865 	0.0199662 	3.04358 	4.81648e-19
4.06779 	0.710562 	0.00384706 	3.05019 	-1.33892e-20
4.13793 	0.710562 	0.00384706 	3.05019 	-1.33892e-20
4.20806 	0.710562 	0.00384706 	3.05019 	-1.33892e-20
4.2782 	0.710562 	0.00384706 	3.05019 	-1.33892e-20
4.34833 	0.710562 	0.00384706 	3.05019 	-1.33892e-20
4.41847 	0.710562 	0.00384706 	3.05019 	-1.33892e-20
4.4886 	0.685437 	0.0162537 	3.05812 	0
4.55874 	0.685437 	0.0162537 	3.05812 	0
4.62887 	0.685437 	0.0162537 	3.05812 	0
4.699 	0.685437 	0.0162537 	3.05812 	0
4.76914 	0.685437 	0.0162537 	3.05812 	0
4.83927 	0.685437 	0.0162537 	3.05812 	0
4.90941 	0.685437 	0.0162537 	3.05812 	0
4.97954 	0.685437 	0.0162537 	3.05812 	0
5.04968 	0.685437 	0.0162537 	3.05812 	0
5.11981 	0.685437 	0.0162537 	3.05812 	0
5.18994 	0.663149 	0.00591079 	3.06478 	-6.2089e-21
5.26008 	0.663149 	0.00591079 	3.06478 	-6.2089e-21
5.33021 	0.663149 	0.00591079 	3.06478 	-6.2089e-21
5.40035 	0.663149 	0.00591079 	3.06478 	-6.2089e-21
5.47048 	0.663149 	0.00591079 	3.06478 	-6.2089e-21
5.54062 	0.663149 	0.00591079 	3.06478 	-6.2089e-21
5.61075 	0.663149 	0.00591079 	3.06478 	-6.2089e-21
5.68089 	0.634451 	0.0107742 	3.07455 	0
5.75102 	0.634451 	0.0107742 	3.07455 	0
5.82115 	0.634451 	0.0107742 	3.07455 	0
5.89129 	0.634451 	0.0107742 	3.07455 	0
5.96142 	0.634451 	0.0107742 	3.07455 	0
6.03156 	0.634451 	0.0107742 	3.07455 	0
6.10169 	0.634451 	0.0107742 	3.07455 	0
6.17183 	0.634451 	0.0107742 	3.07455 	0
6.24196 	0.634451 	0.0107742 	3.07455 	0
6.3121 	0.605461 	0.00774166 	3.08245 	0
6.38223 	0.605461 	0.00774166 	3.08245 	0
6.45236 	0.605461 	0.00774166 	3.08245 	0
6.5225 	0.605461 	0.00774166 	3.08245 	0
6.59263 	0.605461 	0.00774166 	3.08245 	0
6.66277 	0.605461 	0.00774166 	3.08245 	0
6.7329 	0.605461 	0.00774166 	3.08245 	0
6.80304 	0.605461 	0.00774166 	3.08245 	0
6.87317 	0.580027 	0.00595473 	3.09132 	1.97351e-19
6.9433 	0.580027 	0.00595473 	3.09132 	1.97351e-19
7.01344 	0.580027 	0.00595473 	3.09132 	1.97351e-19
7.08357 	0.580027 	0.00595473 	3.09132 	1.97351e-19
7.15371 	0.580027 	0.00595473 	3.09132 	1.97351e-19
7.22384 	0.580027 	0.00595473 	3.09132 	1.97351e-19
7.29398 	0.580027 	0.00595473 	3.09132 	1.97351e-19
7.36411 	0.580027 	0.00595473 	3.09132 	1.97351e-19
7.43425 	0.580027 	0.00595473 	3.09132 	1.97351e-19
7.50438 	0.54806 	0.00909724 	3.09924 	-1.44898e-18
7.57451 	0.54806 	0.00909724 	3.09924 	-1.44898e-18
7.64465 	0.54806 	0.00909724 	3.09924 	-1.44898e-18
7.71478 	0.54806 	0.00909724 	3.09924 	-1.44898e-18
7.78492 	0.54806 	0.00909724 	3.09924 	-1.44898e-18
7.85505 	0.54806 	0.00909724 	3.09924 	-1.44898e-18
7.92519 	0.54806 	0.00909724 	3.09924 	-1.44898e-18
7.99532 	0.54806 	0.00909724 	3.09924 	-1.44898e-18
8.06545 	0.530574 	0.00267752 	3.10624 	1.40645e-18
8.13559 	0.530574 	0.00267752 	3.10624 	1.40645e-18
8.20572 	0.530574 	0.00267752 	3.10624 	1.40645e-18
8.27586 	0.530574 	0.00267752 	3.10624 	1.40645e-18
8.34599 	0.530574 	0.00267752 	3.10624 	1.40645e-18
8.41613 	0.530574 	0.00267752 	3.10624 	1.40645e-18
8.48626 	0.530574 	0.00267752 	3.10624 	1.40645e-18
8.5564 	0.530574 	0.00267752 	3.10624 	1.40645e-18
8.62653 	0.530574 	0.00267752 	3.10624 	1.40645e-18
8.69666 	0.499755 	0.0178058 	3.11767 	1.25089e-18
8.7668 	0.499755 	0.0178058 	3.11767 	1.25089e-18
8.83693 	0.499755 	0.0178058 	3.11767 	1.25089e-18
8.90707 	0.499755 	0.0178058 	3.11767 	1.25089e-18
8.9772 	0.499755 	0.0178058 	3.11767 	1.25089e-18
9.04734 	0.499755 	0.0178058 	3.11767 	1.25089e-18
9.11747 	0.499755 	0.0178058 	3.11767 	1.25089e-18
9.18761 	0.499755 	0.0178058 	3.11767 	1.25089e-18
9.25774 	0.467611 	0.00246029 	3.11864 	-1.17148e-18
9.32787 	0.467611 	0.00246029 	3.11864 	-1.17148e-18
9.39801 	0.467611 	0.00246029 	3.11864 	-1.17148e-18
9.46814 	0.467611 	0.00246029 	3.11864 	-1.17148e-18
9.53828 	0.467611 	0.00246029 	3.11864 	-1.17148e-18
9.60841 	0.467611 	0.00246029 	3.11864 	-1.17148e-18
9.67855 	0.467611 	0.00246029 	3.11864 	-1.17148e-18
9.74868 	0.467611 	0.00246029 	3.11864 	-1.17148e-18
9.81881 	0.451481 	0.0177825 	3.12985 	-3.55302e-19
9.88895 	0.451481 	0.0177825 	3.12985 	-3.55302e-19
9.95908 	0.451481 	0.0177825 	3.12985 	-3.55302e-19
10.0292 	0.451481 	0.0177825 	3.12985 	-3.55302e-19
10.0994 	0.451481 	0.0177825 	3.12985 	-3.55302e-19
10.1695 	0.451481 	0.0177825 	3.12985 	-3.55302e-19
10.2396 	0.451481 	0.0177825 	3.12985 	-3.55302e-19
10.3098 	0.451481 	0.0177825 	3.12985 	-3.55302e-19
10.3799 	0.451481 	0.0177825 	3.12985 	-3.55302e-19
10.45 	0.451481 	0.0177825 	3.12985 	-3.55302e-19
10.5202 	0.451481 	0.0177825 	3.12985 	-3.55302e-19
10.5903 	0.451481 	0.0177825 	3.12985 	-3.55302e-19
10.6604 	0.477284 	0.0157792 	3.1256 	5.22957e-19
10.7306 	0.420619 	0.0396972 	3.14051 	0
10.8007 	0.420619 	0.0396972 	3.14051 	0
10.8708 	0.420619 	0.0396972 	3.14051 	0
10.941 	0.420619 	0.0396972 	3.14051 	0
11.0111 	0.420619 	0.0396972 	3.14051 	0
11.0812 	0.420619 	0.0396972 	3.14051 	0
11.1514 	0.420619 	0.0396972 	3.14051 	0
11.2215 	0.420619 	0.0396972 	3.14051 	0
11.2916 	0.420619 	0.0396972 	3.14051 	0
11.3618 	0.420619 	0.0396972 	3.14051 	0
11.4319 	0.420619 	0.0396972 	3.14051 	0
11.502 	0.420619 	0.0396972 	3.14051 	0
11.5722 	0.420619 	0.0396972 	3.14051 	0
11.6423 	0.420619 	0.0396972 	3.14051 	0
11.7124 	0.429932 	0.0272641 	3.12848 	0
11.7826 	0.363438 	0.0847338 	3.16349 	5.35919e-19
11.8527 	0.363438 	0.0847338 	3.16349 	5.35919e-19
11.9228 	0.363438 	0.0847338 	3.16349 	5.35919e-19
11.993 	0.363438 	0.0847338 	3.16349 	5.35919e-19
12.0631 	0.363438 	0.0847338 	3.16349 	5.35919e-19
12.1332 	0.363438 	0.0847338 	3.16349 	5.35919e-19
12.2034 	0.255745 	0.076785 	3.19202 	-2.30981e-19
12.2735 	0.255745 	0.076785 	3.19202 	-2.30981e-19
12.3437 	0.255745 	0.076785 	3.19202 	-2.30981e-19
12.4138 	0.255745 	0.076785 	3.19202 	-2.30981e-19
12.4839 	0.255745 	0.076785 	3.19202 	-2.30981e-19
12.5541 	0.255745 	0.076785 	3.19202 	-2.30981e-19
12.6242 	0.255745 	0.076785 	3.19202 	-2.30981e-19
12.6943 	0.255745 	0.076785 	3.19202 	-2.30981e-19
12.7645 	0.255745 	0.076785 	3.19202 	-2.30981e-19
12.8346 	0.136294 	0.0437108 	3.18985 	1.26079e-19
12.9047 	0.115258 	0.144543 	3.22758 	-1.04256e-20
12.9749 	0.115258 	0.144543 	3.22758 	-1.04256e-20
13.045 	0.115258 	0.144543 	3.22758 	-1.04256e-20
13.1151 	0.115258 	0.144543 	3.22758 	-1.04256e-20
13.1853 	0.115258 	0.144543 	3.22758 	-1.04256e-20
13.2554 	0.115258 	0.144543 	3.22758 	-1.04256e-20
13.3255 	0.115258 	0.144543 	3.22758 	-1.04256e-20
13.3957 	0.346579 	0.152812 	3.19912 	8.36065e-19
13.4658 	0.346579 	0.152812 	3.19912 	8.36065e-19
13.5359 	0.346579 	0.152812 	3.19912 	8.36065e-19
13.6061 	0.346579 	0.152812 	3.19912 	8.36065e-19
13.6762 	0.346579 	0.152812 	3.19912 	8.36065e-19
13.7463 	0.346579 	0.152812 	3.19912 	8.36065e-19
13.8165 	0.414861 	0.133407 	2.87653 	-6.93146e-19
13.8866 	0.593161 	0.164646 	2.97042 	1.18538e-19
13.9567 	0.593161 	0.164646 	2.97042 	1.18538e-19
14.0269 	0.00756192 	0.260526 	3.049 	-7.21309e-19
14.097 	0.00756192 	0.260526 	3.049 	-7.21309e-19
14.1671 	0.00756192 	0.260526 	3.049 	-7.21309e-19
14.2373 	0.00756192 	0.260526 	3.049 	-7.21309e-19
14.3074 	0.00756192 	0.260526 	3.049 	-7.21309e-19
14.3776 	0.00756192 	0.260526 	3.049 	-7.21309e-19
14.4477 	0.00756192 	0.260526 	3.049 	-7.21309e-19
14.5178 	0.00756192 	0.260526 	3.049 	-7.21309e-19
14.588 	0.00756192 	0.260526 	3.049 	-7.21309e-19
14.6581 	0.00756192 	0.260526 	3.049 	-7.21309e-19
14.7282 	0.00756192 	0.260526 	3.049 	-7.21309e-19
14.7984 	0.00756192 	0.260526 	3.049 	-7.21309e-19
14.8685 	0.00756192 	0.260526 	3.049 	-7.21309e-19
14.9386 	-0.187214 	0.360694 	3.21083 	0
15.0088 	-0.187214 	0.360694 	3.21083 	0
15.0789 	-0.187214 	0.360694 	3.21083 	0
15.149 	-0.187214 	0.360694 	3.21083 	0
15.2192 	-0.187214 	0.360694 	3.21083 	0
15.2893 	-0.674011 	0.342534 	3.43996 	-4.44485e-19
15.3594 	-0.674011 	0.342534 	3.43996 	-4.44485e-19
15.4296 	-0.674011 	0.342534 	3.43996 	-4.44485e-19
15.4997 	-0.674011 	0.342534 	3.43996 	-4.44485e-19
15.5698 	-0.674011 	0.342534 	3.43996 	-4.44485e-19
15.64 	-0.674011 	0.342534 	3.43996 	-4.44485e-19
15.7101 	-1.16168 	0.399737 	3.50959 	0
15.7802 	-1.16168 	0.399737 	3.50959 	0
15.8504 	-1.06825 	0.644687 	3.56922 	1.64712e-18
15.9205 	-1.06825 	0.644687 	3.56922 	1.64712e-18
15.9906 	-1.06825 	0.644687 	3.56922 	1.64712e-18
16.0608 	-1.06825 	0.644687 	3.56922 	1.64712e-18
16.1309 	-1.06825 	0.644687 	3.56922 	1.64712e-18
16.201 	-1.06825 	0.644687 	3.56922 	1.64712e-18
16.2712 	-1.06825 	0.644687 	3.56922 	1.64712e-18
16.3413 	-1.06825 	0.644687 	3.56922 	1.64712e-18
16.4114 	-1.06825 	0.644687 	3.56922 	1.64712e-18
16.4816 	-1.06825 	0.644687 	3.56922 	1.64712e-18
16.5517 	-1.06825 	0.644687 	3.56922 	1.64712e-18
16.6219 	-1.06825 	0.644687 	3.56922 	1.64712e-18
16.692 	-1.06825 	0.644687 	3.56922 	1.64712e-18
16.7621 	-1.06825 	0.644687 	3.56922 	1.64712e-18
16.8323 	-0.659221 	0.871195 	3.13621 	4.20537e-19
16.9024 	-0.659221 	0.871195 	3.13621 	4.20537e-19
16.9725 	-0.659221 	0.871195 	3.13621 	4.20537e-19
17.0427 	-0.659221 	0.871195 	3.13621 	4.20537e-19
17.1128 	-0.659221 	0.871195 	3.13621 	4.20537e-19
17.1829 	-0.659221 	0.871195 	3.13621 	4.20537e-19
17.2531 	-0.659221 	0.871195 	3.13621 	4.20537e-19
17.3232 	-0.659221 	0.871195 	3.13621 	4.20537e-19
17.3933 	-0.659221 	0.871195 	3.13621 	4.20537e-19
17.4635 	-0.659221 	0.871195 	3.13621 	4.20537e-19
17.5336 	-0.560775 	0.885906 	3.06147 	-4.6288e-19
17.6037 	-0.560775 	0.885906 	3.06147 	-4.6288e-19
17.6739 	-0.560775 	0.885906 	3.06147 	-4.6288e-19
17.744 	-0.632923 	1.01209 	3.19127 	4.799e-19
17.8141 	-0.632923 	1.01209 	3.19127 	4.799e-19
17.8843 	-0.632923 	1.01209 	3.19127 	4.799e-19
17.9544 	-0.632923 	1.01209 	3.19127 	4.799e-19
18.0245 	-0.632923 	1.01209 	3.19127 	4.799e-19
18.0947 	-0.632923 	1.01209 	3.19127 	4.799e-19
18.1648 	-0.632923 	1.01209 	3.19127 	4.799e-19
18.2349 	-0.632923 	1.01209 	3.19127 	4.799e-19
18.3051 	-0.632923 	1.01209 	3.19127 	4.799e-19
18.3752 	-0.340501 	0.963699 	2.80173 	-3.64556e-19
18.4453 	-0.340501 	0.963699 	2.80173 	-3.64556e-19
18.5155 	-0.340501 	0.963699 	2.80173 	-3.64556e-19
18.5856 	-0.340501 	0.963699 	2.80173 	-3.64556e-19
18.6557 	-0.340501 	0.963699 	2.80173 	-3.64556e-19
18.7259 	-0.340501 	0.963699 	2.80173 	-3.64556e-19
18.796 	-0.340501 	0.963699 	2.80173 	-3.64556e-19
18.8662 	-0.261359 	0.998176 	2.87347 	2.72903e-19
18.9363 	-0.261359 	0.998176 	2.87347 	2.72903e-19
19.0064 	-0.261359 	0.998176 	2.87347 	2.72903e-19
19.0766 	-0.261359 	0.998176 	2.87347 	2.72903e-19
19.1467 	-0.261359 	0.998176 	2.87347 	2.72903e-19
19.2168 	-0.261359 	0.998176 	2.87347 	2.72903e-19
19.287 	-0.261359 	0.998176 	2.87347 	2.72903e-19
19.3571 	-0.261359 	0.998176 	2.87347 	2.72903e-19
19.4272 	-0.261359 	0.998176 	2.87347 	2.72903e-19
19.4974 	-0.261359 	0.998176 	2.87347 	2.72903e-19
19.5675 	-0.261359 	0.998176 	2.87347 	2.72903e-19
19.6376 	-0.261359 	0.998176 	2.87347 	2.72903e-19
19.7078 	-0.261359 	0.998176 	2.87347 	2.72903e-19
19.7779 	-0.103358 	0.954853 	2.50158 	-7.47579e-20
19.848 	-0.103358 	0.954853 	2.50158 	-7.47579e-20
19.9182 	-0.103358 	0.954853 	2.50158 	-7.47579e-20
19.9883 	-0.103358 	0.954853 	2.50158 	-7.47579e-20
20.0584 	-0.103358 	0.954853 	2.50158 	-7.47579e-20
20.1286 	-0.103358 	0.954853 	2.50158 	-7.47579e-20
20.1987 	-0.103358 	0.954853 	2.50158 	-7.47579e-20
20.2688 	-0.0984044 	0.961712 	2.5197 	-1.1778e-19
20.339 	-0.0984044 	0.961712 	2.5197 	-1.1778e-19
20.4091 	-0.0984044 	0.961712 	2.5197 	-1.1778e-19
20.4792 	-0.0984044 	0.961712 	2.5197 	-1.1778e-19
20.5494 	-0.0984044 	0.961712 	2.5197 	-1.1778e-19
20.6195 	-0.0984044 	0.961712 	2.5197 	-1.1778e-19
20.6896 	-0.0984044 	0.961712 	2.5197 	-1.1778e-19
20.7598 	-0.0984044 	0.961712 	2.5197 	-1.1778e-19
20.8299 	-0.0984044 	0.961712 	2.5197 	-1.1778e-19
20.9 	-0.0984044 	0.961712 	2.5197 	-1.1778e-19
20.9702 	-0.0984044 	0.961712 	2.5197 	-1.1778e-19
21.0403 	-0.0984044 	0.961712 	2.5197 	-1.1778e-19
21.1105 	-0.0984044 	0.961712 	2.5197 	-1.1778e-19
21.1806 	-0.0984044 	0.961712 	2.5197 	-1.1778e-19
21.2507 	-0.0984044 	0.961712 	2.5197 	-1.1778e-19
21.3209 	-0.0984044 	0.961712 	2.5197 	-1.1778e-19
21.391 	-0.0984044 	0.961712 	2.5197 	-1.1778e-19
21.4611 	-0.0904388 	0.656797 	1.99348 	9.0255e-20
21.5313 	-0.0904388 	0.656797 	1.99348 	9.0255e-20
21.6014 	-0.0904388 	0.656797 	1.99348 	9.0255e-20
21.6715 	-0.106668 	0.552307 	1.53802 	9.45619e-20
21.7417 	-0.106668 	0.552307 	1.53802 	9.45619e-20
21.8118 	-0.106668 	0.552307 	1.53802 	9.45619e-20
21.8819 	-0.106668 	0.552307 	1.53802 	9.45619e-20
21.9521 	-0.106668 	0.552307 	1.53802 	9.45619e-20
22.0222 	-0.167695 	0.90232 	2.34501 	-1.21465e-19
22.0923 	-0.167695 	0.90232 	2.34501 	-1.21465e-19
22.1625 	-0.167695 	0.90232 	2.34501 	-1.21465e-19
22.2326 	-0.167695 	0.90232 	2.34501 	-1.21465e-19
22.3027 	-0.167695 	0.90232 	2.34501 	-1.21465e-19
22.3729 	-0.167695 	0.90232 	2.34501 	-1.21465e-19
22.443 	-0.167695 	0.90232 	2.34501 	-1.21465e-19
22.5131 	-0.167695 	0.90232 	2.34501 	-1.21465e-19
22.5833 	-0.167695 	0.90232 	2.34501 	-1.21465e-19
22.6534 	-0.167695 	0.90232 	2.34501 	-1.21465e-19
22.7235 	-0.167695 	0.90232 	2.34501 	-1.21465e-19
22.7937 	-0.167695 	0.90232 	2.34501 	-1.21465e-19
22.8638 	-0.167695 	0.90232 	2.34501 	-1.21465e-19
22.9339 	-0.167695 	0.90232 	2.34501 	-1.21465e-19
23.0041 	-0.167695 	0.90232 	2.34501 	-1.21465e-19
23.0742 	-0.167695 	0.90232 	2.34501 	-1.21465e-19
23.1443 	-0.167695 	0.90232 	2.34501 	-1.21465e-19
23.2145 	-0.167695 	0.90232 	2.34501 	-1.21465e-19
23.2846 	-0.167695 	0.90232 	2.34501 	-1.21465e-19
23.3548 	-0.167695 	0.90232 	2.34501 	-1.21465e-19
23.4249 	-0.167695 	0.90232 	2.34501 	-1.21465e-19
23.495 	0.028846 	0.882834 	2.31113 	-2.35102e-21
23.5652 	0.028846 	0.882834 	2.31113 	-2.35102e-21
23.6353 	0.028846 	0.882834 	2.31113 	-2.35102e-21
23.7054 	0.028846 	0.882834 	2.31113 	-2.35102e-21
23.7756 	0.028846 	0.882834 	2.31113 	-2.35102e-21
23.8457 	0.028846 	0.882834 	2.31113 	-2.35102e-21
23.9158 	0.028846 	0.882834 	2.31113 	-2.35102e-21
23.986 	0.110451 	0.960479 	2.15399 	9.93577e-22
24.0561 	0.110451 	0.960479 	2.15399 	9.93577e-22
24.1262 	0.110451 	0.960479 	2.15399 	9.93577e-22
24.1964 	0.110451 	0.960479 	2.15399 	9.93577e-22
24.2665 	0.110451 	0.960479 	2.15399 	9.93577e-22
24.3366 	0.110451 	0.960479 	2.15399 	9.93577e-22
24.4068 	0.110451 	0.960479 	2.15399 	9.93577e-22
24.4769 	0.110451 	0.960479 	2.15399 	9.93577e-22
24.547 	0.110451 	0.960479 	2.15399 	9.93577e-22
24.6172 	0.110451 	0.960479 	2.15399 	9.93577e-22
24.6873 	0.110451 	0.960479 	2.15399 	9.93577e-22
24.7574 	0.110451 	0.960479 	2.15399 	9.93577e-22
24.8276 	0.110451 	0.960479 	2.15399 	9.93577e-22
24.8977 	0.110451 	0.960479 	2.15399 	9.93577e-22
24.9678 	0.110451 	0.960479 	2.15399 	9.93577e-22
25.038 	0.110451 	0.960479 	2.15399 	9.93577e-22
25.1081 	0.110451 	0.960479 	2.15399 	9.93577e-22
25.1782 	-0.0139253 	0.741484 	1.47071 	0
25.2484 	-0.0139253 	0.741484 	1.47071 	0
25.3185 	-0.0139253 	0.741484 	1.47071 	0
25.3886 	-0.0139253 	0.741484 	1.47071 	0
25.4588 	-0.0139253 	0.741484 	1.47071 	0
25.5289 	-0.0139253 	0.741484 	1.47071 	0
25.5991 	-0.0139253 	0.741484 	1.47071 	0
25.6692 	-0.0139253 	0.741484 	1.47071 	0
25.7393 	-0.0139253 	0.741484 	1.47071 	0
25.8095 	-0.0139253 	0.741484 	1.47071 	0
25.8796 	-0.0139253 	0.741484 	1.47071 	0
25.9497 	-0.0139253 	0.741484 	1.47071 	0
26.0199 	-0.0139253 	0.741484 	1.47071 	0
26.09 	-0.0139253 	0.741484 	1.47071 	0
26.1601 	-0.0139253 	0.741484 	1.47071 	0
26.2303 	-0.266482 	0.815435 	1.47226 	6.71218e-19
26.3004 	-0.266482 	0.815435 	1.47226 	6.71218e-19
26.3705 	-0.266482 	0.815435 	1.47226 	6.71218e-19
26.4407 	-0.266482 	0.815435 	1.47226 	6.71218e-19
26.5108 	-0.266482 	0.815435 	1.47226 	6.71218e-19
26.5809 	-0.266482 	0.815435 	1.47226 	6.71218e-19
26.6511 	-0.266482 	0.815435 	1.47226 	6.71218e-19
26.7212 	-0.266482 	0.815435 	1.47226 	6.71218e-19
26.7913 	-0.266482 	0.815435 	1.47226 	6.71218e-19
26.8615 	-0.266482 	0.815435 	1.47226 	6.71218e-19
26.9316 	-0.266482 	0.815435 	1.47226 	6.71218e-19
27.0017 	-0.266482 	0.815435 	1.47226 	6.71218e-19
27.0719 	-0.266482 	0.815435 	1.47226 	6.71218e-19
27.142 	-0.266482 	0.815435 	1.47226 	6.71218e-19
27.2121 	-0.266482 	0.815435 	1.47226 	6.71218e-19
27.2823 	-0.266482 	0.815435 	1.47226 	6.71218e-19
27.3524 	-0.400299 	0.77826 	1.61126 	-7.10113e-19
27.4225 	-0.400299 	0.77826 	1.61126 	-7.10113e-19
27.4927 	-0.400299 	0.77826 	1.61126 	-7.10113e-19
27.5628 	-0.400299 	0.77826 	1.61126 	-7.10113e-19
27.6329 	-0.400299 	0.77826 	1.61126 	-7.10113e-19
27.7031 	-0.400299 	0.77826 	1.61126 	-7.10113e-19
27.7732 	-0.400299 	0.77826 	1.61126 	-7.10113e-19
27.8434 	-0.400299 	0.77826 	1.61126 	-7.10113e-19
27.9135 	-0.400299 	0.77826 	1.61126 	-7.10113e-19
27.9836 	-0.400299 	0.77826 	1.61126 	-7.10113e-19
28.0538 	-0.400299 	0.77826 	1.61126 	-7.10113e-19
28.1239 	-0.400299 	0.77826 	1.61126 	-7.10113e-19
28.194 	-0.400299 	0.77826 	1.61126 	-7.10113e-19
28.2642 	-0.400299 	0.77826 	1.61126 	-7.10113e-19
28.3343 	-0.400299 	0.77826 	1.61126 	-7.10113e-19
28.4044 	-0.400299 	0.77826 	1.61126 	-7.10113e-19
28.4746 	-0.400299 	0.77826 	1.61126 	-7.10113e-19
28.5447 	-0.400299 	0.77826 	1.61126 	-7.10113e-19
28.6148 	-0.400299 	0.77826 	1.61126 	-7.10113e-19
28.685 	-0.400299 	0.77826 	1.61126 	-7.10113e-19
28.7551 	-0.400299 	0.77826 	1.61126 	-7.10113e-19
28.8252 	-0.400299 	0.77826 	1.61126 	-7.10113e-19
28.8954 	-0.400299 	0.77826 	1.61126 	-7.10113e-19
28.9655 	-0.637877 	0.665903 	1.60525 	-5.43374e-20
29.0356 	-0.637877 	0.665903 	1.60525 	-5.43374e-20
29.1058 	-0.637877 	0.665903 	1.60525 	-5.43374e-20
29.1759 	-0.637877 	0.665903 	1.60525 	-5.43374e-20
29.246 	-0.637877 	0.665903 	1.60525 	-5.43374e-20
29.3162 	-0.637877 	0.665903 	1.60525 	-5.43374e-20
29.3863 	-0.637877 	0.665903 	1.60525 	-5.43374e-20
29.4564 	-0.637877 	0.665903 	1.60525 	-5.43374e-20
29.5266 	-0.637877 	0.665903 	1.60525 	-5.43374e-20
29.5967 	-0.637877 	0.665903 	1.60525 	-5.43374e-20
29.6668 	-0.637877 	0.665903 	1.60525 	-5.43374e-20
29.737 	-0.637877 	0.665903 	1.60525 	-5.43374e-20
29.8071 	-0.637877 	0.665903 	1.60525 	-5.43374e-20
29.8773 	-0.637877 	0.665903 	1.60525 	-5.43374e-20
29.9474 	-0.637877 	0.665903 	1.60525 	-5.43374e-20
30.0175 	-0.637877 	0.665903 	1.60525 	-5.43374e-20
30.0877 	-0.637877 	0.665903 	1.60525 	-5.43374e-20
30.1578 	-0.637877 	0.665903 	1.60525 	-5.43374e-20
30.2279 	-0.637877 	0.665903 	1.60525 	-5.43374e-20
30.2981 	-0.637877 	0.665903 	1.60525 	-5.43374e-20
30.3682 	-0.637877 	0.665903 	1.60525 	-5.43374e-20
30.4383 	-0.637877 	0.665903 	1.60525 	-5.43374e-20
30.5085 	-0.637877 	0.665903 	1.60525 	-5.43374e-20
30.5786 	-0.637877 	0.665903 	1.60525 	-5.43374e-20
30.6487 	-0.637877 	0.665903 	1.60525 	-5.43374e-20
30.7189 	-0.637877 	0.665903 	1.60525 	-5.43374e-20
30.789 	-0.600025 	-0.081379 	1.70834 	1.27304e-18
30.8591 	-0.600025 	-0.081379 	1.70834 	1.27304e-18
30.9293 	-0.600025 	-0.081379 	1.70834 	1.27304e-18
30.9994 	-0.600025 	-0.081379 	1.70834 	1.27304e-18
31.0695 	-0.600025 	-0.081379 	1.70834 	1.27304e-18
31.1397 	-0.600025 	-0.081379 	1.70834 	1.27304e-18
31.2098 	-0.600025 	-0.081379 	1.70834 	1.27304e-18
31.2799 	-0.600025 	-0.081379 	1.70834 	1.27304e-18
31.3501 	-0.600025 	-0.081379 	1.70834 	1.27304e-18
31.4202 	-0.600025 	-0.081379 	1.70834 	1.27304e-18
31.4903 	-0.600025 	-0.081379 	1.70834 	1.27304e-18
31.5605 	-0.600025 	-0.081379 	1.70834 	1.27304e-18
31.6306 	-0.600025 	-0.081379 	1.70834 	1.27304e-18
31.7007 	-0.600025 	-0.081379 	1.70834 	1.27304e-18
31.7709 	-0.600025 	-0.081379 	1.70834 	1.27304e-18
31.841 	-0.600025 	-0.081379 	1.70834 	1.27304e-18
31.9111 	-0.600025 	-0.081379 	1.70834 	1.27304e-18
31.9813 	-0.600025 	-0.081379 	1.70834 	1.27304e-18
32.0514 	-0.600025 	-0.081379 	1.70834 	1.27304e-18
32.1216 	-0.600025 	-0.081379 	1.70834 	1.27304e-18
32.1917 	-0.600025 	-0.081379 	1.70834 	1.27304e-18
32.2618 	-0.600025 	-0.081379 	1.70834 	1.27304e-18
32.332 	-0.600025 	-0.081379 	1.70834 	1.27304e-18
32.4021 	-0.600025 	-0.081379 	1.70834 	1.27304e-18
32.4722 	-0.600025 	-0.081379 	1.70834 	1.27304e-18
32.5424 	-0.600025 	-0.081379 	1.70834 	1.27304e-18
32.6125 	-0.600025 	-0.081379 	1.70834 	1.27304e-18
32.6826 	-0.600025 	-0.081379 	1.70834 	1.27304e-18
32.7528 	-0.600025 	-0.081379 	1.70834 	1.27304e-18
32.8229 	-0.600025 	-0.081379 	1.70834 	1.27304e-18
32.893 	-0.600025 	-0.081379 	1.70834 	1.27304e-18
32.9632 	-0.600025 	-0.081379 	1.70834 	1.27304e-18
33.0333 	-0.600025 	-0.081379 	1.70834 	1.27304e-18
33.1034 	-0.600025 	-0.081379 	1.70834 	1.27304e-18
33.1736 	-0.600025 	-0.081379 	1.70834 	1.27304e-18
33.2437 	-0.600025 	-0.081379 	1.70834 	1.27304e-18
33.3138 	-0.600025 	-0.081379 	1.70834 	1.27304e-18
33.384 	-0.600025 	-0.081379 	1.70834 	1.27304e-18
33.4541 	-0.600025 	-0.081379 	1.70834 	1.27304e-18
33.5242 	-0.600025 	-0.081379 	1.70834 	1.27304e-18
33.5944 	-0.600025 	-0.081379 	1.70834 	1.27304e-18
33.6645 	-0.600025 	-0.081379 	1.70834 	1.27304e-18
33.7346 	-0.492927 	-0.0889306 	1.57982 	-6.81157e-19
33.8048 	-0.492927 	-0.0889306 	1.57982 	-6.81157e-19
33.8749 	-0.492927 	-0.0889306 	1.57982 	-6.81157e-19
33.945 	-0.492927 	-0.0889306 	1.57982 	-6.81157e-19
34.0152 	-0.492927 	-0.0889306 	1.57982 	-6.81157e-19
34.0853 	-0.492927 	-0.0889306 	1.57982 	-6.81157e-19
34.1554 	-0.383117 	-0.209379 	1.51407 	4.00659e-19
34.2256 	-0.383117 	-0.209379 	1.51407 	4.00659e-19
34.2957 	-0.383117 	-0.209379 	1.51407 	4.00659e-19
34.3659 	-0.383117 	-0.209379 	1.51407 	4.00659e-19
34.436 	-0.383117 	-0.209379 	1.51407 	4.00659e-19
34.5061 	-0.383117 	-0.209379 	1.51407 	4.00659e-19
34.5763 	-0.383117 	-0.209379 	1.51407 	4.00659e-19
34.6464 	-0.383117 	-0.209379 	1.51407 	4.00659e-19
34.7165 	-0.128361 	-0.212852 	2.06011 	-2.28009e-19
34.7867 	-0.128361 	-0.212852 	2.06011 	-2.28009e-19
34.8568 	-0.128361 	-0.212852 	2.06011 	-2.28009e-19
34.9269 	-0.128361 	-0.212852 	2.06011 	-2.28009e-19
34.9971 	-0.128361 	-0.212852 	2.06011 	-2.28009e-19
35.0672 	-0.128361 	-0.212852 	2.06011 	-2.28009e-19
35.1373 	-0.128361 	-0.212852 	2.06011 	-2.28009e-19
35.2075 	-0.128361 	-0.212852 	2.06011 	-2.28009e-19
35.2776 	-0.128361 	-0.212852 	2.06011 	-2.28009e-19
35.3477 	-0.128361 	-0.212852 	2.06011 	-2.28009e-19
35.4179 	-0.128361 	-0.212852 	2.06011 	-2.28009e-19
35.488 	-0.128361 	-0.212852 	2.06011 	-2.28009e-19
35.5581 	-0.128361 	-0.212852 	2.06011 	-2.28009e-19
35.6283 	-0.128361 	-0.212852 	2.06011 	-2.28009e-19
35.6984 	-0.128361 	-0.212852 	2.06011 	-2.28009e-19
35.7685 	-0.128361 	-0.212852 	2.06011 	-2.28009e-19
35.8387 	-0.128361 	-0.212852 	2.06011 	-2.28009e-19
35.9088 	-0.128361 	-0.212852 	2.06011 	-2.28009e-19
35.9789 	-0.128361 	-0.212852 	2.06011 	-2.28009e-19
36.0491 	-0.00484679 	-0.220054 	2.01675 	0
36.1192 	-0.00484679 	-0.220054 	2.01675 	0
36.1893 	-0.00484679 	-0.220054 	2.01675 	0
36.2595 	-0.00484679 	-0.220054 	2.01675 	0
36.3296 	-0.00484679 	-0.220054 	2.01675 	0
36.3997 	-0.00484679 	-0.220054 	2.01675 	0
36.4699 	-0.00484679 	-0.220054 	2.01675 	0
36.54 	-0.00484679 	-0.220054 	2.01675 	0
36.6102 	-0.00484679 	-0.220054 	2.01675 	0
36.6803 	-0.00484679 	-0.220054 	2.01675 	0
36.7504 	-0.00484679 	-0.220054 	2.01675 	0
36.8206 	-0.00484679 	-0.220054 	2.01675 	0
36.8907 	0.0106998 	-0.220769 	1.92448 	4.86421e-20
36.9608 	0.0106998 	-0.220769 	1.92448 	4.86421e-20
37.031 	0.0106998 	-0.220769 	1.92448 	4.86421e-20
37.1011 	0.0106998 	-0.220769 	1.92448 	4.86421e-20
37.1712 	0.0106998 	-0.220769 	1.92448 	4.86421e-20
37.2414 	0.0106998 	-0.220769 	1.92448 	4.86421e-20
37.3115 	0.0106998 	-0.220769 	1.92448 	4.86421e-20
37.3816 	0.0106998 	-0.220769 	1.92448 	4.86421e-20
37.4518 	0.0106998 	-0.220769 	1.92448 	4.86421e-20
37.5219 	0.0106998 	-0.220769 	1.92448 	4.86421e-20
37.592 	0.0106998 	-0.220769 	1.92448 	4.86421e-20
37.6622 	0.0106998 	-0.220769 	1.92448 	4.86421e-20
37.7323 	0.0106998 	-0.220769 	1.92448 	4.86421e-20
37.8024 	0.0106998 	-0.220769 	1.92448 	4.86421e-20
37.8726 	0.0106998 	-0.220769 	1.92448 	4.86421e-20
37.9427 	0.0106998 	-0.220769 	1.92448 	4.86421e-20
38.0128 	0.0106998 	-0.220769 	1.92448 	4.86421e-20
38.083 	0.0106998 	-0.220769 	1.92448 	4.86421e-20
38.1531 	0.0106998 	-0.220769 	1.92448 	4.86421e-20
38.2232 	0.0887648 	-0.173806 	1.90287 	-5.39246e-20
38.2934 	0.0887648 	-0.173806 	1.90287 	-5.39246e-20
38.3635 	0.0887648 	-0.173806 	1.90287 	-5.39246e-20
38.4336 	0.0887648 	-0.173806 	1.90287 	-5.39246e-20
38.5038 	0.0887648 	-0.173806 	1.90287 	-5.39246e-20
38.5739 	0.0887648 	-0.173806 	1.90287 	-5.39246e-20
38.644 	0.0887648 	-0.173806 	1.90287 	-5.39246e-20
38.7142 	0.0887648 	-0.173806 	1.90287 	-5.39246e-20
38.7843 	0.0887648 	-0.173806 	1.90287 	-5.39246e-20
38.8545 	0.0887648 	-0.173806 	1.90287 	-5.39246e-20
38.9246 	0.0887648 	-0.173806 	1.90287 	-5.39246e-20
38.9947 	0.0887648 	-0.173806 	1.90287 	-5.39246e-20
39.0649 	0.0887648 	-0.173806 	1.90287 	-5.39246e-20
39.135 	0.0887648 	-0.173806 	1.90287 	-5.39246e-20
39.2051 	0.0945778 	-0.142048 	1.89736 	0
39.2753 	0.0945778 	-0.142048 	1.89736 	0
39.3454 	0.0945778 	-0.142048 	1.89736 	0
39.4155 	0.0945778 	-0.142048 	1.89736 	0
39.4857 	0.0945778 	-0.142048 	1.89736 	0
39.5558 	0.0945778 	-0.142048 	1.89736 	0
39.6259 	0.0945778 	-0.142048 	1.89736 	0
39.6961 	0.0945778 	-0.142048 	1.89736 	0
39.7662 	0.0945778 	-0.142048 	1.89736 	0
39.8363 	0.0945778 	-0.142048 	1.89736 	0
39.9065 	0.0945778 	-0.142048 	1.89736 	0
39.9766 	0.0945778 	-0.142048 	1.89736 	0
40.0467 	0.0945778 	-0.142048 	1.89736 	0
40.1169 	0.0945778 	-0.142048 	1.89736 	0
40.187 	0.0945778 	-0.142048 	1.89736 	0
40.2571 	0.0945778 	-0.142048 	1.89736 	0
40.3273 	0.0945778 	-0.142048 	1.89736 	0
40.3974 	0.0945778 	-0.142048 	1.89736 	0
40.4675 	0.0945778 	-0.142048 	1.89736 	0
40.5377 	0.0945778 	-0.142048 	1.89736 	0
40.6078 	0.0945778 	-0.142048 	1.89736 	0
40.6779 	0.0377654 	-0.126437 	1.86551 	-2.76772e-20
40.7481 	0.0377654 	-0.126437 	1.86551 	-2.76772e-20
40.8182 	0.0377654 	-0.126437 	1.86551 	-2.76772e-20
40.8883 	0.0377654 	-0.126437 	1.86551 	-2.76772e-20
40.9585 	0.0377654 	-0.126437 	1.86551 	-2.76772e-20
41.0286 	0.0377654 	-0.126437 	1.86551 	-2.76772e-20
41.0988 	0.0377654 	-0.126437 	1.86551 	-2.76772e-20
41.1689 	0.0377654 	-0.126437 	1.86551 	-2.76772e-20
41.239 	0.0554346 	-0.106475 	1.85097 	4.95553e-20
41.3092 	0.0554346 	-0.106475 	1.85097 	4.95553e-20
41.3793 	0.0554346 	-0.106475 	1.85097 	4.95553e-20
41.4494 	0.0554346 	-0.106475 	1.85097 	4.95553e-20
41.5196 	0.0554346 	-0.106475 	1.85097 	4.95553e-20
41.5897 	0.0554346 	-0.106475 	1.85097 	4.95553e-20
41.6598 	0.0554346 	-0.106475 	1.85097 	4.95553e-20
41.73 	0.0554346 	-0.106475 	1.85097 	4.95553e-20
41.8001 	0.0554346 	-0.106475 	1.85097 	4.95553e-20
41.8702 	0.0554346 	-0.106475 	1.85097 	4.95553e-20
41.9404 	0.0554346 	-0.106475 	1.85097 	4.95553e-20
42.0105 	0.0554346 	-0.106475 	1.85097 	4.95553e-20
42.0806 	0.0554346 	-0.106475 	1.85097 	4.95553e-20
42.1508 	0.0554346 	-0.106475 	1.85097 	4.95553e-20
42.2209 	0.0554346 	-0.106475 	1.85097 	4.95553e-20
42.291 	0.0554346 	-0.106475 	1.85097 	4.95553e-20
42.3612 	0.0554346 	-0.106475 	1.85097 	4.95553e-20
42.4313 	0.0554346 	-0.106475 	1.85097 	4.95553e-20
42.5014 	0.0554346 	-0.106475 	1.85097 	4.95553e-20
42.5716 	0.0554346 	-0.106475 	1.85097 	4.95553e-20
42.6417 	0.0554346 	-0.106475 	1.85097 	4.95553e-20
42.7118 	0.0563387 	-0.0865518 	1.83851 	0
42.782 	0.0563387 	-0.0865518 	1.83851 	0
42.8521 	0.0563387 	-0.0865518 	1.83851 	0
42.9222 	0.0563387 	-0.0865518 	1.83851 	0