0.490941 	1.72085 	0.00539825 	3.00065 	-5.31745e-20
0.561075 	1.72085 	0.00539825 	3.00065 	-5.31745e-20
0.63121 	1.72085 	0.00539825 	3.00065 	-5.31745e-20
0.701344 	1.72085 	0.00539825 	3.00065 	-5.31745e-20
0.771478 	1.72085 	0.00539825 	3.00065 	-5.31745e-20
0.841613 	1.72085 	0.00539825 	3.00065 	-5.31745e-20
0.911747 	1.72085 	0.00539825 	3.00065 	-5.31745e-20
0.981881 	1.72085 	0.00539825 	3.00065 	-5.31745e-20
1.05202 	1.72085 	0.00539825 	3.00065 	-5.31745e-20
1.12215 	1.72085 	0.00539825 	3.00065 	-5.31745e-20
1.19228 	1.72085 	0.00539825 	3.00065 	-5.31745e-20
1.26242 	1.72085 	0.00539825 	3.00065 	-5.31745e-20
1.33255 	1.68141 	0.0145254 	3.0142 	-5.44257e-20
1.40269 	1.68141 	0.0145254 	3.0142 	-5.44257e-20
1.47282 	1.68141 	0.0145254 	3.0142 	-5.44257e-20
1.54296 	1.68141 	0.0145254 	3.0142 	-5.44257e-20
1.61309 	1.68141 	0.0145254 	3.0142 	-5.44257e-20
1.68323 	1.68141 	0.0145254 	3.0142 	-5.44257e-20
1.75336 	1.68141 	0.0145254 	3.0142 	-5.44257e-20
1.82349 	1.68141 	0.0145254 	3.0142 	-5.44257e-20
1.89363 	1.68141 	0.0145254 	3.0142 	-5.44257e-20
1.96376 	1.68141 	0.0145254 	3.0142 	-5.44257e-20
2.0339 	1.68141 	0.0145254 	3.0142 	-5.44257e-20
2.10403 	1.68141 	0.0145254 	3.0142 	-5.44257e-20
2.17417 	1.62068 	0.0137618 	3.03212 	1.13394e-19
2.2443 	1.62068 	0.0137618 	3.03212 	1.13394e-19
2.31443 	1.62068 	0.0137618 	3.03212 	1.13394e-19
2.38457 	1.62068 	0.0137618 	3.03212 	1.13394e-19
2.4547 	1.62068 	0.0137618 	3.03212 	1.13394e-19
2.52484 	1.62068 	0.0137618 	3.03212 	1.13394e-19
2.59497 	1.62068 	0.0137618 	3.03212 	1.13394e-19
2.66511 	1.62068 	0.0137618 	3.03212 	1.13394e-19
2.73524 	1.62068 	0.0137618 	3.03212 	1.13394e-19
2.80538 	1.62068 	0.0137618 	3.03212 	1.13394e-19
2.87551 	1.62068 	0.0137618 	3.03212 	1.13394e-19
2.94564 	1.62068 	0.0137618 	3.03212 	1.13394e-19
3.01578 	1.54673 	0.0168582 	3.05864 	-1.31713e-20
3.08591 	1.54673 	0.0168582 	3.05864 	-1.31713e-20
3.15605 	1.54673 	0.0168582 	3.05864 	-1.31713e-20
3.22618 	1.54673 	0.0168582 	3.05864 	-1.31713e-20
3.29632 	1.54673 	0.0168582 	3.05864 	-1.31713e-20
3.36645 	1.54673 	0.0168582 	3.05864 	-1.31713e-20
3.43659 	1.54673 	0.0168582 	3.05864 	-1.31713e-20
3.50672 	1.54673 	0.0168582 	3.05864 	-1.31713e-20
3.57685 	1.54673 	0.0168582 	3.05864 	-1.31713e-20
3.64699 	1.54673 	0.0168582 	3.05864 	-1.31713e-20
3.71712 	1.54673 	0.0168582 	3.05864 	-1.31713e-20
3.78726 	1.53954 	0.0070979 	3.05565 	2.58031e-20
3.85739 	1.46054 	-0.000754011 	3.08404 	-1.90061e-19
3.92753 	1.46054 	-0.000754011 	3.08404 	-1.90061e-19
3.99766 	1.46054 	-0.000754011 	3.08404 	-1.90061e-19
4.06779 	1.46054 	-0.000754011 	3.08404 	-1.90061e-19
4.13793 	1.46054 	-0.000754011 	3.08404 	-1.90061e-19
4.20806 	1.46054 	-0.000754011 	3.08404 	-1.90061e-19
4.2782 	1.46054 	-0.000754011 	3.08404 	-1.90061e-19
4.34833 	1.46054 	-0.000754011 	3.08404 	-1.90061e-19
4.41847 	1.46054 	-0.000754011 	3.08404 	-1.90061e-19
4.4886 	1.46054 	-0.000754011 	3.08404 	-1.90061e-19
4.55874 	1.46054 	-0.000754011 	3.08404 	-1.90061e-19
4.62887 	1.46054 	-0.000754011 	3.08404 	-1.90061e-19
4.699 	1.46054 	-0.000754011 	3.08404 	-1.90061e-19
4.76914 	1.38185 	0.0055371 	3.10678 	3.69765e-19
4.83927 	1.38185 	0.0055371 	3.10678 	3.69765e-19
4.90941 	1.38185 	0.0055371 	3.10678 	3.69765e-19
4.97954 	1.38185 	0.0055371 	3.10678 	3.69765e-19
5.04968 	1.38185 	0.0055371 	3.10678 	3.69765e-19
5.11981 	1.38185 	0.0055371 	3.10678 	3.69765e-19
5.18994 	1.38185 	0.0055371 	3.10678 	3.69765e-19
5.26008 	1.38185 	0.0055371 	3.10678 	3.69765e-19
5.33021 	1.38185 	0.0055371 	3.10678 	3.69765e-19
5.40035 	1.38185 	0.0055371 	3.10678 	3.69765e-19
5.47048 	1.38185 	0.0055371 	3.10678 	3.69765e-19
5.54062 	1.38185 	0.0055371 	3.10678 	3.69765e-19
5.61075 	1.30724 	-0.00207417 	3.13344 	-1.79478e-19
5.68089 	1.30724 	-0.00207417 	3.13344 	-1.79478e-19
5.75102 	1.30724 	-0.00207417 	3.13344 	-1.79478e-19
5.82115 	1.30724 	-0.00207417 	3.13344 	-1.79478e-19
5.89129 	1.30724 	-0.00207417 	3.13344 	-1.79478e-19
5.96142 	1.30724 	-0.00207417 	3.13344 	-1.79478e-19
6.03156 	1.30724 	-0.00207417 	3.13344 	-1.79478e-19
6.10169 	1.30724 	-0.00207417 	3.13344 	-1.79478e-19
6.17183 	1.30724 	-0.00207417 	3.13344 	-1.79478e-19
6.24196 	1.30724 	-0.00207417 	3.13344 	-1.79478e-19
6.3121 	1.30724 	-0.00207417 	3.13344 	-1.79478e-19
6.38223 	1.30724 	-0.00207417 	3.13344 	-1.79478e-19
6.45236 	1.23602 	0.00522675 	3.15342 	0
6.5225 	1.23602 	0.00522675 	3.15342 	0
6.59263 	1.23602 	0.00522675 	3.15342 	0
6.66277 	1.23602 	0.00522675 	3.15342 	0
6.7329 	1.23602 	0.00522675 	3.15342 	0
6.80304 	1.23602 	0.00522675 	3.15342 	0
6.87317 	1.23602 	0.00522675 	3.15342 	0
6.9433 	1.23602 	0.00522675 	3.15342 	0
7.01344 	1.23602 	0.00522675 	3.15342 	0
7.08357 	1.23602 	0.00522675 	3.15342 	0
7.15371 	1.23602 	0.00522675 	3.15342 	0
7.22384 	1.23602 	0.00522675 	3.15342 	0
7.29398 	1.16805 	-0.00135177 	3.1777 	0
7.36411 	1.16805 	-0.00135177 	3.1777 	0
7.43425 	1.16805 	-0.00135177 	3.1777 	0
7.50438 	1.16805 	-0.00135177 	3.1777 	0
7.57451 	1.16805 	-0.00135177 	3.1777 	0
7.64465 	1.16805 	-0.00135177 	3.1777 	0
7.71478 	1.16805 	-0.00135177 	3.1777 	0
7.78492 	1.16805 	-0.00135177 	3.1777 	0
7.85505 	1.16805 	-0.00135177 	3.1777 	0
7.92519 	1.16805 	-0.00135177 	3.1777 	0
7.99532 	1.16805 	-0.00135177 	3.1777 	0
8.06545 	1.16805 	-0.00135177 	3.1777 	0
8.13559 	1.16805 	-0.00135177 	3.1777 	0
8.20572 	1.10089 	0.00736816 	3.1961 	3.63909e-22
8.27586 	1.10089 	0.00736816 	3.1961 	3.63909e-22
8.34599 	1.10089 	0.00736816 	3.1961 	3.63909e-22
8.41613 	1.10089 	0.00736816 	3.1961 	3.63909e-22
8.48626 	1.10089 	0.00736816 	3.1961 	3.63909e-22
8.5564 	1.10089 	0.00736816 	3.1961 	3.63909e-22
8.62653 	1.10089 	0.00736816 	3.1961 	3.63909e-22
8.69666 	1.10089 	0.00736816 	3.1961 	3.63909e-22
8.7668 	1.10089 	0.00736816 	3.1961 	3.63909e-22
8.83693 	1.10089 	0.00736816 	3.1961 	3.63909e-22
8.90707 	1.10089 	0.00736816 	3.1961 	3.63909e-22
8.9772 	1.10089 	0.00736816 	3.1961 	3.63909e-22
9.04734 	1.03442 	0.00306087 	3.21963 	2.6718e-19
9.11747 	1.03442 	0.00306087 	3.21963 	2.6718e-19
9.18761 	1.03442 	0.00306087 	3.21963 	2.6718e-19
9.25774 	1.03442 	0.00306087 	3.21963 	2.6718e-19
9.32787 	1.03442 	0.00306087 	3.21963 	2.6718e-19
9.39801 	1.03442 	0.00306087 	3.21963 	2.6718e-19
9.46814 	1.03442 	0.00306087 	3.21963 	2.6718e-19
9.53828 	1.03442 	0.00306087 	3.21963 	2.6718e-19
9.60841 	1.03442 	0.00306087 	3.21963 	2.6718e-19
9.67855 	1.03442 	0.00306087 	3.21963 	2.6718e-19
9.74868 	1.03442 	0.00306087 	3.21963 	2.6718e-19
9.81881 	1.03442 	0.00306087 	3.21963 	2.6718e-19
9.88895 	1.03442 	0.00306087 	3.21963 	2.6718e-19
9.95908 	0.967134 	0.0163193 	3.23786 	-2.23109e-21
10.0292 	0.967134 	0.0163193 	3.23786 	-2.23109e-21
10.0994 	0.967134 	0.0163193 	3.23786 	-2.23109e-21
10.1695 	0.967134 	0.0163193 	3.23786 	-2.23109e-21
10.2396 	0.967134 	0.0163193 	3.23786 	-2.23109e-21
10.3098 	0.967134 	0.0163193 	3.23786 	-2.23109e-21
10.3799 	0.967134 	0.0163193 	3.23786 	-2.23109e-21
10.45 	0.967134 	0.0163193 	3.23786 	-2.23109e-21
10.5202 	0.967134 	0.0163193 	3.23786 	-2.23109e-21
10.5903 	0.967134 	0.0163193 	3.23786 	-2.23109e-21
10.6604 	0.967134 	0.0163193 	3.23786 	-2.23109e-21
10.7306 	0.967134 	0.0163193 	3.23786 	-2.23109e-21
10.8007 	0.899351 	0.0213333 	3.26139 	-2.62775e-19
10.8708 	0.899351 	0.0213333 	3.26139 	-2.62775e-19
10.941 	0.899351 	0.0213333 	3.26139 	-2.62775e-19
11.0111 	0.899351 	0.0213333 	3.26139 	-2.62775e-19
11.0812 	0.899351 	0.0213333 	3.26139 	-2.62775e-19
11.1514 	0.899351 	0.0213333 	3.26139 	-2.62775e-19
11.2215 	0.899351 	0.0213333 	3.26139 	-2.62775e-19
11.2916 	0.899351 	0.0213333 	3.26139 	-2.62775e-19
11.3618 	0.899351 	0.0213333 	3.26139 	-2.62775e-19
11.4319 	0.899351 	0.0213333 	3.26139 	-2.62775e-19
11.502 	0.899351 	0.0213333 	3.26139 	-2.62775e-19
11.5722 	0.899351 	0.0213333 	3.26139 	-2.62775e-19
11.6423 	0.899351 	0.0213333 	3.26139 	-2.62775e-19
11.7124 	0.826855 	0.0509464 	3.28152 	-4.05288e-19
11.7826 	0.826855 	0.0509464 	3.28152 	-4.05288e-19
11.8527 	0.826855 	0.0509464 	3.28152 	-4.05288e-19
11.9228 	0.826855 	0.0509464 	3.28152 	-4.05288e-19
11.993 	0.826855 	0.0509464 	3.28152 	-4.05288e-19
12.0631 	0.826855 	0.0509464 	3.28152 	-4.05288e-19
12.1332 	0.826855 	0.0509464 	3.28152 	-4.05288e-19
12.2034 	0.826855 	0.0509464 	3.28152 	-4.05288e-19
12.2735 	0.826855 	0.0509464 	3.28152 	-4.05288e-19
12.3437 	0.826855 	0.0509464 	3.28152 	-4.05288e-19
12.4138 	0.826855 	0.0509464 	3.28152 	-4.05288e-19
12.4839 	0.826855 	0.0509464 	3.28152 	-4.05288e-19
12.5541 	0.826855 	0.0509464 	3.28152 	-4.05288e-19
12.6242 	0.746191 	0.0758126 	3.30697 	7.79317e-19
12.6943 	0.746191 	0.0758126 	3.30697 	7.79317e-19
12.7645 	0.746191 	0.0758126 	3.30697 	7.79317e-19
12.8346 	0.746191 	0.0758126 	3.30697 	7.79317e-19
12.9047 	0.746191 	0.0758126 	3.30697 	7.79317e-19
12.9749 	0.746191 	0.0758126 	3.30697 	7.79317e-19
13.045 	0.746191 	0.0758126 	3.30697 	7.79317e-19
13.1151 	0.746191 	0.0758126 	3.30697 	7.79317e-19
13.1853 	0.746191 	0.0758126 	3.30697 	7.79317e-19
13.2554 	0.746191 	0.0758126 	3.30697 	7.79317e-19
13.3255 	0.746191 	0.0758126 	3.30697 	7.79317e-19
13.3957 	0.746191 	0.0758126 	3.30697 	7.79317e-19
13.4658 	0.746191 	0.0758126 	3.30697 	7.79317e-19
13.5359 	0.644599 	0.14873 	3.34094 	-3.75826e-19
13.6061 	0.644599 	0.14873 	3.34094 	-3.75826e-19
13.6762 	0.644599 	0.14873 	3.34094 	-3.75826e-19
13.7463 	0.644599 	0.14873 	3.34094 	-3.75826e-19
13.8165 	0.644599 	0.14873 	3.34094 	-3.75826e-19
13.8866 	0.644599 	0.14873 	3.34094 	-3.75826e-19
13.9567 	0.644599 	0.14873 	3.34094 	-3.75826e-19
14.0269 	0.644599 	0.14873 	3.34094 	-3.75826e-19
14.097 	0.644599 	0.14873 	3.34094 	-3.75826e-19
14.1671 	0.644599 	0.14873 	3.34094 	-3.75826e-19
14.2373 	0.644599 	0.14873 	3.34094 	-3.75826e-19
14.3074 	0.644599 	0.14873 	3.34094 	-3.75826e-19
14.3776 	0.550099 	0.172539 	3.35911 	0
14.4477 	0.350533 	0.171809 	3.41691 	3.51887e-19
14.5178 	0.350533 	0.171809 	3.41691 	3.51887e-19
14.588 	0.350533 	0.171809 	3.41691 	3.51887e-19
14.6581 	0.350533 	0.171809 	3.41691 	3.51887e-19
14.7282 	0.350533 	0.171809 	3.41691 	3.51887e-19
14.7984 	0.350533 	0.171809 	3.41691 	3.51887e-19
14.8685 	0.378472 	0.196346 	3.40701 	-7.1156e-19
14.9386 	0.378472 	0.196346 	3.40701 	-7.1156e-19
15.0088 	0.378472 	0.196346 	3.40701 	-7.1156e-19
15.0789 	0.378472 	0.196346 	3.40701 	-7.1156e-19
15.149 	0.378472 	0.196346 	3.40701 	-7.1156e-19
15.2192 	0.14201 	0.261118 	3.47336 	3.42871e-19
15.2893 	0.14201 	0.261118 	3.47336 	3.42871e-19
15.3594 	0.14201 	0.261118 	3.47336 	3.42871e-19
15.4296 	0.272076 	0.329803 	3.42817 	4.97166e-20
15.4997 	0.272076 	0.329803 	3.42817 	4.97166e-20
15.5698 	0.272076 	0.329803 	3.42817 	4.97166e-20
15.64 	0.272076 	0.329803 	3.42817 	4.97166e-20
15.7101 	0.272076 	0.329803 	3.42817 	4.97166e-20
15.7802 	0.272076 	0.329803 	3.42817 	4.97166e-20
15.8504 	0.272076 	0.329803 	3.42817 	4.97166e-20
15.9205 	0.0190634 	0.33424 	3.52738 	9.13245e-20
15.9906 	0.0190634 	0.33424 	3.52738 	9.13245e-20
16.0608 	0.0190634 	0.33424 	3.52738 	9.13245e-20
16.1309 	0.231941 	0.419824 	3.43866 	2.06703e-19
16.201 	0.231941 	0.419824 	3.43866 	2.06703e-19
16.2712 	0.231941 	0.419824 	3.43866 	2.06703e-19
16.3413 	0.231941 	0.419824 	3.43866 	2.06703e-19
16.4114 	0.231941 	0.419824 	3.43866 	2.06703e-19
16.4816 	0.231941 	0.419824 	3.43866 	2.06703e-19
16.5517 	0.231941 	0.419824 	3.43866 	2.06703e-19
16.6219 	0.0487701 	0.518922 	3.51489 	0
16.692 	0.0487701 	0.518922 	3.51489 	0
16.7621 	0.0487701 	0.518922 	3.51489 	0
16.8323 	0.0487701 	0.518922 	3.51489 	0
16.9024 	0.0487701 	0.518922 	3.51489 	0
16.9725 	0.279658 	0.527546 	3.4192 	1.94371e-19
17.0427 	0.279658 	0.527546 	3.4192 	1.94371e-19
17.1128 	0.279658 	0.527546 	3.4192 	1.94371e-19
17.1829 	0.279658 	0.527546 	3.4192 	1.94371e-19
17.2531 	0.128971 	0.6105 	3.47023 	1.42161e-19
17.3232 	0.128971 	0.6105 	3.47023 	1.42161e-19
17.3933 	0.128971 	0.6105 	3.47023 	1.42161e-19
17.4635 	0.128971 	0.6105 	3.47023 	1.42161e-19
17.5336 	0.128971 	0.6105 	3.47023 	1.42161e-19
17.6037 	0.128971 	0.6105 	3.47023 	1.42161e-19
17.6739 	0.128971 	0.6105 	3.47023 	1.42161e-19
17.744 	0.128971 	0.6105 	3.47023 	1.42161e-19
17.8141 	0.128971 	0.6105 	3.47023 	1.42161e-19
17.8843 	0.128971 	0.6105 	3.47023 	1.42161e-19
17.9544 	0.205024 	0.626509 	3.39142 	0
18.0245 	0.205024 	0.626509 	3.39142 	0
18.0947 	0.205024 	0.626509 	3.39142 	0
18.1648 	0.205024 	0.626509 	3.39142 	0
18.2349 	0.205024 	0.626509 	3.39142 	0
18.3051 	0.205024 	0.626509 	3.39142 	0
18.3752 	0.205024 	0.626509 	3.39142 	0
18.4453 	0.205024 	0.626509 	3.39142 	0
18.5155 	0.205024 	0.626509 	3.39142 	0
18.5856 	0.112194 	0.717131 	3.43381 	0
18.6557 	0.112194 	0.717131 	3.43381 	0
18.7259 	0.112194 	0.717131 	3.43381 	0
18.796 	0.112194 	0.717131 	3.43381 	0
18.8662 	0.112194 	0.717131 	3.43381 	0
18.9363 	0.112194 	0.717131 	3.43381 	0
19.0064 	0.112194 	0.717131 	3.43381 	0
19.0766 	0.112194 	0.717131 	3.43381 	0
19.1467 	0.112194 	0.717131 	3.43381 	0
19.2168 	0.062518 	0.76175 	3.41271 	2.82688e-20
19.287 	0.288333 	0.687309 	3.21478 	-5.59737e-20
19.3571 	0.288333 	0.687309 	3.21478 	-5.59737e-20
19.4272 	0.288333 	0.687309 	3.21478 	-5.59737e-20
19.4974 	0.288333 	0.687309 	3.21478 	-5.59737e-20
19.5675 	0.288333 	0.687309 	3.21478 	-5.59737e-20
19.6376 	0.288333 	0.687309 	3.21478 	-5.59737e-20
19.7078 	0.288333 	0.687309 	3.21478 	-5.59737e-20
19.7779 	0.288333 	0.687309 	3.21478 	-5.59737e-20
19.848 	0.288333 	0.687309 	3.21478 	-5.59737e-20
19.9182 	0.234815 	0.750948 	3.2897 	-2.13294e-19
19.9883 	0.234815 	0.750948 	3.2897 	-2.13294e-19
20.0584 	0.234815 	0.750948 	3.2897 	-2.13294e-19
20.1286 	0.234815 	0.750948 	3.2897 	-2.13294e-19
20.1987 	0.234815 	0.750948 	3.2897 	-2.13294e-19
20.2688 	0.234815 	0.750948 	3.2897 	-2.13294e-19
20.339 	0.234815 	0.750948 	3.2897 	-2.13294e-19
20.4091 	0.234815 	0.750948 	3.2897 	-2.13294e-19
20.4792 	0.234815 	0.750948 	3.2897 	-2.13294e-19
20.5494 	0.234815 	0.750948 	3.2897 	-2.13294e-19
20.6195 	0.174307 	0.799285 	3.3167 	1.3793e-20
20.6896 	0.174307 	0.799285 	3.3167 	1.3793e-20
20.7598 	0.174307 	0.799285 	3.3167 	1.3793e-20
20.8299 	0.174307 	0.799285 	3.3167 	1.3793e-20
20.9 	0.255213 	0.695978 	2.76867 	-2.9403e-19
20.9702 	0.255213 	0.695978 	2.76867 	-2.9403e-19
21.0403 	0.255213 	0.695978 	2.76867 	-2.9403e-19
21.1105 	0.255213 	0.695978 	2.76867 	-2.9403e-19
21.1806 	0.255213 	0.695978 	2.76867 	-2.9403e-19
21.2507 	0.255213 	0.695978 	2.76867 	-2.9403e-19
21.3209 	0.214306 	0.747269 	2.95375 	0
21.391 	0.214306 	0.747269 	2.95375 	0
21.4611 	0.214306 	0.747269 	2.95375 	0
21.5313 	0.214306 	0.747269 	2.95375 	0
21.6014 	0.214306 	0.747269 	2.95375 	0
21.6715 	0.214306 	0.747269 	2.95375 	0
21.7417 	0.214306 	0.747269 	2.95375 	0
21.8118 	0.214306 	0.747269 	2.95375 	0
21.8819 	0.214306 	0.747269 	2.95375 	0
21.9521 	0.214306 	0.747269 	2.95375 	0
22.0222 	0.214306 	0.747269 	2.95375 	0
22.0923 	0.171871 	0.796324 	3.07476 	-1.1047e-19
22.1625 	0.171871 	0.796324 	3.07476 	-1.1047e-19
22.2326 	0.171871 	0.796324 	3.07476 	-1.1047e-19
22.3027 	0.171871 	0.796324 	3.07476 	-1.1047e-19
22.3729 	0.171871 	0.796324 	3.07476 	-1.1047e-19
22.443 	0.171871 	0.796324 	3.07476 	-1.1047e-19
22.5131 	0.171871 	0.796324 	3.07476 	-1.1047e-19
22.5833 	0.171871 	0.796324 	3.07476 	-1.1047e-19
22.6534 	0.171871 	0.796324 	3.07476 	-1.1047e-19
22.7235 	0.171871 	0.796324 	3.07476 	-1.1047e-19
22.7937 	0.171871 	0.796324 	3.07476 	-1.1047e-19
22.8638 	0.119928 	0.834882 	3.14415 	1.74158e-19
22.9339 	0.119928 	0.834882 	3.14415 	1.74158e-19
23.0041 	0.119928 	0.834882 	3.14415 	1.74158e-19
23.0742 	0.128433 	0.681729 	2.2702 	7.01635e-20
23.1443 	0.128433 	0.681729 	2.2702 	7.01635e-20
23.2145 	0.128433 	0.681729 	2.2702 	7.01635e-20
23.2846 	0.128433 	0.681729 	2.2702 	7.01635e-20
23.3548 	0.128433 	0.681729 	2.2702 	7.01635e-20
23.4249 	0.128433 	0.681729 	2.2702 	7.01635e-20
23.495 	0.128433 	0.681729 	2.2702 	7.01635e-20
23.5652 	0.128433 	0.681729 	2.2702 	7.01635e-20
23.6353 	0.128433 	0.681729 	2.2702 	7.01635e-20
23.7054 	0.0806238 	0.724055 	2.44917 	-2.60832e-21
23.7756 	0.0806238 	0.724055 	2.44917 	-2.60832e-21
23.8457 	0.0806238 	0.724055 	2.44917 	-2.60832e-21
23.9158 	0.0806238 	0.724055 	2.44917 	-2.60832e-21
23.986 	0.0806238 	0.724055 	2.44917 	-2.60832e-21
24.0561 	0.0806238 	0.724055 	2.44917 	-2.60832e-21
24.1262 	0.0806238 	0.724055 	2.44917 	-2.60832e-21
24.1964 	0.0806238 	0.724055 	2.44917 	-2.60832e-21
24.2665 	0.0806238 	0.724055 	2.44917 	-2.60832e-21
24.3366 	0.0806238 	0.724055 	2.44917 	-2.60832e-21
24.4068 	0.0806238 	0.724055 	2.44917 	-2.60832e-21
24.4769 	0.0806238 	0.724055 	2.44917 	-2.60832e-21
24.547 	0.0806238 	0.724055 	2.44917 	-2.60832e-21
24.6172 	0.0370018 	0.764092 	2.60582 	4.53934e-20
24.6873 	0.0370018 	0.764092 	2.60582 	4.53934e-20
24.7574 	0.0370018 	0.764092 	2.60582 	4.53934e-20
24.8276 	0.0370018 	0.764092 	2.60582 	4.53934e-20
24.8977 	0.0370018 	0.764092 	2.60582 	4.53934e-20
24.9678 	0.0370018 	0.764092 	2.60582 	4.53934e-20
25.038 	0.0370018 	0.764092 	2.60582 	4.53934e-20
25.1081 	0.0370018 	0.764092 	2.60582 	4.53934e-20
25.1782 	0.0370018 	0.764092 	2.60582 	4.53934e-20
25.2484 	0.0370018 	0.764092 	2.60582 	4.53934e-20
25.3185 	0.0370018 	0.764092 	2.60582 	4.53934e-20
25.3886 	0.0370018 	0.764092 	2.60582 	4.53934e-20
25.4588 	-0.00356869 	0.799856 	2.72529 	-2.2541e-21
25.5289 	-0.00356869 	0.799856 	2.72529 	-2.2541e-21
25.5991 	-0.00356869 	0.799856 	2.72529 	-2.2541e-21
25.6692 	-0.00356869 	0.799856 	2.72529 	-2.2541e-21
25.7393 	-0.00356869 	0.799856 	2.72529 	-2.2541e-21
25.8095 	-0.00356869 	0.799856 	2.72529 	-2.2541e-21
25.8796 	-0.00356869 	0.799856 	2.72529 	-2.2541e-21
25.9497 	-0.00356869 	0.799856 	2.72529 	-2.2541e-21
26.0199 	-0.00356869 	0.799856 	2.72529 	-2.2541e-21
26.09 	-0.00615062 	0.608449 	1.77016 	-1.0787e-20
26.1601 	-0.00615062 	0.608449 	1.77016 	-1.0787e-20
26.2303 	-0.00615062 	0.608449 	1.77016 	-1.0787e-20
26.3004 	-0.00615062 	0.608449 	1.77016 	-1.0787e-20
26.3705 	-0.00615062 	0.608449 	1.77016 	-1.0787e-20
26.4407 	-0.0516866 	0.620485 	1.85628 	-2.12987e-20
26.5108 	-0.0516866 	0.620485 	1.85628 	-2.12987e-20
26.5809 	-0.0516866 	0.620485 	1.85628 	-2.12987e-20
26.6511 	-0.0516866 	0.620485 	1.85628 	-2.12987e-20
26.7212 	-0.0516866 	0.620485 	1.85628 	-2.12987e-20
26.7913 	-0.0516866 	0.620485 	1.85628 	-2.12987e-20
26.8615 	-0.0516866 	0.620485 	1.85628 	-2.12987e-20
26.9316 	-0.0516866 	0.620485 	1.85628 	-2.12987e-20
27.0017 	-0.0516866 	0.620485 	1.85628 	-2.12987e-20
27.0719 	-0.0516866 	0.620485 	1.85628 	-2.12987e-20
27.142 	-0.0516866 	0.620485 	1.85628 	-2.12987e-20
27.2121 	-0.0516866 	0.620485 	1.85628 	-2.12987e-20
27.2823 	-0.0516866 	0.620485 	1.85628 	-2.12987e-20
27.3524 	-0.0964497 	0.631729 	1.92818 	0
27.4225 	-0.0964497 	0.631729 	1.92818 	0
27.4927 	-0.0964497 	0.631729 	1.92818 	0
27.5628 	-0.0964497 	0.631729 	1.92818 	0
27.6329 	-0.0964497 	0.631729 	1.92818 	0
27.7031 	-0.0964497 	0.631729 	1.92818 	0
27.7732 	-0.0964497 	0.631729 	1.92818 	0
27.8434 	-0.0964497 	0.631729 	1.92818 	0
27.9135 	-0.0964497 	0.631729 	1.92818 	0
27.9836 	-0.0964497 	0.631729 	1.92818 	0
28.0538 	-0.0964497 	0.631729 	1.92818 	0
28.1239 	-0.0964497 	0.631729 	1.92818 	0
28.194 	-0.0964497 	0.631729 	1.92818 	0
28.2642 	-0.0964497 	0.631729 	1.92818 	0
28.3343 	-0.0964497 	0.631729 	1.92818 	0
28.4044 	-0.137825 	0.634335 	1.99224 	0
28.4746 	-0.137825 	0.634335 	1.99224 	0
28.5447 	-0.137825 	0.634335 	1.99224 	0
28.6148 	-0.137825 	0.634335 	1.99224 	0
28.685 	-0.137825 	0.634335 	1.99224 	0
28.7551 	-0.137825 	0.634335 	1.99224 	0
28.8252 	-0.137825 	0.634335 	1.99224 	0
28.8954 	-0.137825 	0.634335 	1.99224 	0
28.9655 	-0.137825 	0.634335 	1.99224 	0
29.0356 	-0.137825 	0.634335 	1.99224 	0
29.1058 	-0.137825 	0.634335 	1.99224 	0
29.1759 	-0.137825 	0.634335 	1.99224 	0
29.246 	-0.137825 	0.634335 	1.99224 	0
29.3162 	-0.137825 	0.634335 	1.99224 	0
29.3863 	-0.137825 	0.634335 	1.99224 	0
29.4564 	-0.174247 	0.633093 	2.02124 	-8.00189e-20
29.5266 	-0.174247 	0.633093 	2.02124 	-8.00189e-20
29.5967 	-0.174247 	0.633093 	2.02124 	-8.00189e-20
29.6668 	-0.174247 	0.633093 	2.02124 	-8.00189e-20
29.737 	-0.174247 	0.633093 	2.02124 	-8.00189e-20
29.8071 	-0.174247 	0.633093 	2.02124 	-8.00189e-20
29.8773 	-0.174247 	0.633093 	2.02124 	-8.00189e-20
29.9474 	-0.174247 	0.633093 	2.02124 	-8.00189e-20
30.0175 	-0.174247 	0.633093 	2.02124 	-8.00189e-20
30.0877 	-0.174247 	0.633093 	2.02124 	-8.00189e-20
30.1578 	-0.174247 	0.633093 	2.02124 	-8.00189e-20
30.2279 	-0.174247 	0.633093 	2.02124 	-8.00189e-20
30.2981 	-0.174247 	0.633093 	2.02124 	-8.00189e-20
30.3682 	-0.174247 	0.633093 	2.02124 	-8.00189e-20
30.4383 	-0.174247 	0.633093 	2.02124 	-8.00189e-20
30.5085 	-0.174247 	0.633093 	2.02124 	-8.00189e-20
30.5786 	-0.204941 	0.618537 	2.0259 	-3.47922e-21
30.6487 	-0.204941 	0.618537 	2.0259 	-3.47922e-21
30.7189 	-0.204941 	0.618537 	2.0259 	-3.47922e-21
30.789 	-0.204941 	0.618537 	2.0259 	-3.47922e-21
30.8591 	-0.204941 	0.618537 	2.0259 	-3.47922e-21
30.9293 	-0.204941 	0.618537 	2.0259 	-3.47922e-21
30.9994 	-0.204941 	0.618537 	2.0259 	-3.47922e-21
31.0695 	-0.204941 	0.618537 	2.0259 	-3.47922e-21
31.1397 	-0.204941 	0.618537 	2.0259 	-3.47922e-21
31.2098 	-0.204941 	0.618537 	2.0259 	-3.47922e-21
31.2799 	-0.204941 	0.618537 	2.0259 	-3.47922e-21
31.3501 	-0.204941 	0.618537 	2.0259 	-3.47922e-21
31.4202 	-0.204941 	0.618537 	2.0259 	-3.47922e-21
31.4903 	-0.204941 	0.618537 	2.0259 	-3.47922e-21
31.5605 	-0.255471 	0.513864 	1.65801 	-1.59634e-19
31.6306 	-0.255471 	0.513864 	1.65801 	-1.59634e-19
31.7007 	-0.27307 	0.496986 	1.66772 	9.8653e-20
31.7709 	-0.27307 	0.496986 	1.66772 	9.8653e-20
31.841 	-0.27307 	0.496986 	1.66772 	9.8653e-20
31.9111 	-0.27307 	0.496986 	1.66772 	9.8653e-20
31.9813 	-0.27307 	0.496986 	1.66772 	9.8653e-20
32.0514 	-0.27307 	0.496986 	1.66772 	9.8653e-20
32.1216 	-0.27307 	0.496986 	1.66772 	9.8653e-20
32.1917 	-0.27307 	0.496986 	1.66772 	9.8653e-20
32.2618 	-0.27307 	0.496986 	1.66772 	9.8653e-20
32.332 	-0.27307 	0.496986 	1.66772 	9.8653e-20
32.4021 	-0.27307 	0.496986 	1.66772 	9.8653e-20
32.4722 	-0.27307 	0.496986 	1.66772 	9.8653e-20
32.5424 	-0.27307 	0.496986 	1.66772 	9.8653e-20
32.6125 	-0.27307 	0.496986 	1.66772 	9.8653e-20
32.6826 	-0.27307 	0.496986 	1.66772 	9.8653e-20
32.7528 	-0.27307 	0.496986 	1.66772 	9.8653e-20
32.8229 	-0.27307 	0.496986 	1.66772 	9.8653e-20
32.893 	-0.27307 	0.496986 	1.66772 	9.8653e-20
32.9632 	-0.277878 	0.47734 	1.668 	2.70603e-20
33.0333 	-0.277878 	0.47734 	1.668 	2.70603e-20
33.1034 	-0.277878 	0.47734 	1.668 	2.70603e-20
33.1736 	-0.277878 	0.47734 	1.668 	2.70603e-20
33.2437 	-0.277878 	0.47734 	1.668 	2.70603e-20
33.3138 	-0.277878 	0.47734 	1.668 	2.70603e-20
33.384 	-0.277878 	0.47734 	1.668 	2.70603e-20
33.4541 	-0.277878 	0.47734 	1.668 	2.70603e-20
33.5242 	-0.277878 	0.47734 	1.668 	2.70603e-20
33.5944 	-0.277878 	0.47734 	1.668 	2.70603e-20
33.6645 	-0.277878 	0.47734 	1.668 	2.70603e-20
33.7346 	-0.277878 	0.47734 	1.668 	2.70603e-20
33.8048 	-0.277878 	0.47734 	1.668 	2.70603e-20
33.8749 	-0.277878 	0.47734 	1.668 	2.70603e-20
33.945 	-0.277878 	0.47734 	1.668 	2.70603e-20
34.0152 	-0.277878 	0.47734 	1.668 	2.70603e-20
34.0853 	-0.277878 	0.47734 	1.668 	2.70603e-20
34.1554 	-0.277878 	0.47734 	1.668 	2.70603e-20
34.2256 	-0.265907 	0.453072 	1.65586 	-2.05784e-20
34.2957 	-0.265907 	0.453072 	1.65586 	-2.05784e-20
34.3659 	-0.265907 	0.453072 	1.65586 	-2.05784e-20
34.436 	-0.265907 	0.453072 	1.65586 	-2.05784e-20
34.5061 	-0.265907 	0.453072 	1.65586 	-2.05784e-20
34.5763 	-0.265907 	0.453072 	1.65586 	-2.05784e-20
34.6464 	-0.265907 	0.453072 	1.65586 	-2.05784e-20
34.7165 	-0.265907 	0.453072 	1.65586 	-2.05784e-20
34.7867 	-0.265907 	0.453072 	1.65586 	-2.05784e-20
34.8568 	-0.265907 	0.453072 	1.65586 	-2.05784e-20
34.9269 	-0.265907 	0.453072 	1.65586 	-2.05784e-20
34.9971 	-0.265907 	0.453072 	1.65586 	-2.05784e-20
35.0672 	-0.265907 	0.453072 	1.65586 	-2.05784e-20
35.1373 	-0.265907 	0.453072 	1.65586 	-2.05784e-20
35.2075 	-0.265907 	0.453072 	1.65586 	-2.05784e-20
35.2776 	-0.265907 	0.453072 	1.65586 	-2.05784e-20
35.3477 	-0.265907 	0.453072 	1.65586 	-2.05784e-20
35.4179 	-0.265907 	0.453072 	1.65586 	-2.05784e-20
35.488 	-0.265907 	0.453072 	1.65586 	-2.05784e-20
35.5581 	-0.265907 	0.453072 	1.65586 	-2.05784e-20
35.6283 	-0.234477 	0.420832 	1.63695 	-5.45654e-21
35.6984 	-0.234477 	0.420832 	1.63695 	-5.45654e-21
35.7685 	-0.234477 	0.420832 	1.63695 	-5.45654e-21
35.8387 	-0.234477 	0.420832 	1.63695 	-5.45654e-21
35.9088 	-0.234477 	0.420832 	1.63695 	-5.45654e-21
35.9789 	-0.234477 	0.420832 	1.63695 	-5.45654e-21
36.0491 	-0.234477 	0.420832 	1.63695 	-5.45654e-21
36.1192 	-0.234477 	0.420832 	1.63695 	-5.45654e-21
36.1893 	-0.234477 	0.420832 	1.63695 	-5.45654e-21
36.2595 	-0.234477 	0.420832 	1.63695 	-5.45654e-21
36.3296 	-0.234477 	0.420832 	1.63695 	-5.45654e-21
36.3997 	-0.234477 	0.420832 	1.63695 	-5.45654e-21
36.4699 	-0.234477 	0.420832 	1.63695 	-5.45654e-21
36.54 	-0.234477 	0.420832 	1.63695 	-5.45654e-21
36.6102 	-0.234477 	0.420832 	1.63695 	-5.45654e-21
36.6803 	-0.234477 	0.420832 	1.63695 	-5.45654e-21
36.7504 	-0.234477 	0.420832 	1.63695 	-5.45654e-21
36.8206 	-0.234477 	0.420832 	1.63695 	-5.45654e-21
36.8907 	-0.234477 	0.420832 	1.63695 	-5.45654e-21
36.9608 	-0.234477 	0.420832 	1.63695 	-5.45654e-21
37.031 	-0.234477 	0.420832 	1.63695 	-5.45654e-21
37.1011 	-0.197503 	0.376634 	1.61304 	0
37.1712 	-0.197503 	0.376634 	1.61304 	0
37.2414 	-0.197503 	0.376634 	1.61304 	0
37.3115 	-0.197503 	0.376634 	1.61304 	0
37.3816 	-0.197503 	0.376634 	1.61304 	0
37.4518 	-0.197503 	0.376634 	1.61304 	0
37.5219 	-0.197503 	0.376634 	1.61304 	0
37.592 	-0.197503 	0.376634 	1.61304 	0
37.6622 	-0.197503 	0.376634 	1.61304 	0
37.7323 	-0.197503 	0.376634 	1.61304 	0
37.8024 	-0.197503 	0.376634 	1.61304 	0
37.8726 	-0.197503 	0.376634 	1.61304 	0
37.9427 	-0.197503 	0.376634 	1.61304 	0
38.0128 	-0.197503 	0.376634 	1.61304 	0
38.083 	-0.197503 	0.376634 	1.61304 	0
38.1531 	-0.197503 	0.376634 	1.61304 	0
38.2232 	-0.197503 	0.376634 	1.61304 	0
38.2934 	-0.169457 	0.325685 	1.59651 	0
38.3635 	-0.169457 	0.325685 	1.59651 	0
38.4336 	-0.169457 	0.325685 	1.59651 	0
38.5038 	-0.169457 	0.325685 	1.59651 	0
38.5739 	-0.169457 	0.325685 	1.59651 	0
38.644 	-0.169457 	0.325685 	1.59651 	0
38.7142 	-0.169457 	0.325685 	1.59651 	0
38.7843 	-0.169457 	0.325685 	1.59651 	0
38.8545 	-0.169457 	0.325685 	1.59651 	0
38.9246 	-0.169457 	0.325685 	1.59651 	0
38.9947 	-0.169457 	0.325685 	1.59651 	0
39.0649 	-0.169457 	0.325685 	1.59651 	0
39.135 	-0.169457 	0.325685 	1.59651 	0
39.2051 	-0.169457 	0.325685 	1.59651 	0
39.2753 	-0.169457 	0.325685 	1.59651 	0
39.3454 	-0.169457 	0.325685 	1.59651 	0
39.4155 	-0.169457 	0.325685 	1.59651 	0
39.4857 	-0.169457 	0.325685 	1.59651 	0
39.5558 	-0.153583 	0.269106 	1.58734 	0
39.6259 	-0.153583 	0.269106 	1.58734 	0
39.6961 	-0.153583 	0.269106 	1.58734 	0
39.7662 	-0.153583 	0.269106 	1.58734 	0
39.8363 	-0.153583 	0.269106 	1.58734 	0
39.9065 	-0.153583 	0.269106 	1.58734 	0
39.9766 	-0.153583 	0.269106 	1.58734 	0
40.0467 	-0.153583 	0.269106 	1.58734 	0
40.1169 	-0.153583 	0.269106 	1.58734 	0
40.187 	-0.153583 	0.269106 	1.58734 	0
40.2571 	-0.153583 	0.269106 	1.58734 	0
40.3273 	-0.153583 	0.269106 	1.58734 	0
40.3974 	-0.153583 	0.269106 	1.58734 	0
40.4675 	-0.153583 	0.269106 	1.58734 	0
40.5377 	-0.153583 	0.269106 	1.58734 	0
40.6078 	-0.153583 	0.269106 	1.58734 	0
40.6779 	-0.153583 	0.269106 	1.58734 	0
40.7481 	-0.151848 	0.214638 	1.58772 	0
40.8182 	-0.151848 	0.214638 	1.58772 	0
40.8883 	-0.151848 	0.214638 	1.58772 	0
40.9585 	-0.151848 	0.214638 	1.58772 	0
41.0286 	-0.151848 	0.214638 	1.58772 	0
41.0988 	-0.151848 	0.214638 	1.58772 	0
41.1689 	-0.151848 	0.214638 	1.58772 	0
41.239 	-0.151848 	0.214638 	1.58772 	0
41.3092 	-0.151848 	0.214638 	1.58772 	0
41.3793 	-0.151848 	0.214638 	1.58772 	0
41.4494 	-0.151848 	0.214638 	1.58772 	0
41.5196 	-0.151848 	0.214638 	1.58772 	0
41.5897 	-0.151848 	0.214638 	1.58772 	0
41.6598 	-0.151848 	0.214638 	1.58772 	0
41.73 	-0.151848 	0.214638 	1.58772 	0
41.8001 	-0.151848 	0.214638 	1.58772 	0
41.8702 	-0.151848 	0.214638 	1.58772 	0
41.9404 	-0.151848 	0.214638 	1.58772 	0
42.0105 	-0.161184 	0.161316 	1.59474 	0
42.0806 	-0.161184 	0.161316 	1.59474 	0
42.1508 	-0.161184 	0.161316 	1.59474 	0
42.2209 	-0.161184 	0.161316 	1.59474 	0
42.291 	-0.161184 	0.161316 	1.59474 	0
42.3612 	-0.161184 	0.161316 	1.59474 	0
42.4313 	-0.161184 	0.161316 	1.59474 	0
42.5014 	-0.161184 	0.161316 	1.59474 	0
42.5716 	-0.161184 	0.161316 	1.59474 	0
42.6417 	-0.161184 	0.161316 	1.59474 	0
42.7118 	-0.161184 	0.161316 	1.59474 	0
42.782 	-0.161184 	0.161316 	1.59474 	0
42.8521 	-0.161184 	0.161316 	1.59474 	0
42.9222 	-0.161184 	0.161316 	1.59474 	0
42.9924 	-0.161184 	0.161316 	1.59474 	0
43.0625 	-0.161184 	0.161316 	1.59474 	0
43.1327 	-0.161184 	0.161316 	1.59474 	0
43.2028 	-0.17352 	0.113243 	1.60192 	0
43.2729 	-0.17352 	0.113243 	1.60192 	0
43.3431 	-0.17352 	0.113243 	1.60192 	0
43.4132 	-0.17352 	0.113243 	1.60192 	0
43.4833 	-0.17352 	0.113243 	1.60192 	0
43.5535 	-0.17352 	0.113243 	1.60192 	0
43.6236 	-0.17352 	0.113243 	1.60192 	0
43.6937 	-0.17352 	0.113243 	1.60192 	0
43.7639 	-0.17352 	0.113243 	1.60192 	0
43.834 	-0.17352 	0.113243 	1.60192 	0
43.9041 	-0.17352 	0.113243 	1.60192 	0
43.9743 	-0.17352 	0.113243 	1.60192 	0
44.0444 	-0.17352 	0.113243 	1.60192 	0
44.1145 	-0.17352 	0.113243 	1.60192 	0
44.1847 	-0.17352 	0.113243 	1.60192 	0
44.2548 	-0.17352 	0.113243 	1.60192 	0
44.3249 	-0.17352 	0.113243 	1.60192 	0
44.3951 	-0.17352 	0.113243 	1.60192 	0
44.4652 	-0.182805 	0.0690396 	1.60658 	0
44.5353 	-0.182805 	0.0690396 	1.60658 	0
44.6055 	-0.182805 	0.0690396 	1.60658 	0