0.490941 	1.14677 	0.00610921 	3.00276 	0
0.561075 	1.14677 	0.00610921 	3.00276 	0
0.63121 	1.14677 	0.00610921 	3.00276 	0
0.701344 	1.14677 	0.00610921 	3.00276 	0
0.771478 	1.14677 	0.00610921 	3.00276 	0
0.841613 	1.14677 	0.00610921 	3.00276 	0
0.911747 	1.14677 	0.00610921 	3.00276 	0
0.981881 	1.14677 	0.00610921 	3.00276 	0
1.05202 	1.14677 	0.00610921 	3.00276 	0
1.12215 	1.14677 	0.00610921 	3.00276 	0
1.19228 	1.14677 	0.00610921 	3.00276 	0
1.26242 	1.12062 	0.0114906 	3.00804 	0
1.33255 	1.12062 	0.0114906 	3.00804 	0
1.40269 	1.12062 	0.0114906 	3.00804 	0
1.47282 	1.12062 	0.0114906 	3.00804 	0
1.54296 	1.12062 	0.0114906 	3.00804 	0
1.61309 	1.12062 	0.0114906 	3.00804 	0
1.68323 	1.12062 	0.0114906 	3.00804 	0
1.75336 	1.12062 	0.0114906 	3.00804 	0
1.82349 	1.0709 	0.0148565 	3.02381 	4.10198e-19
1.89363 	1.0709 	0.0148565 	3.02381 	4.10198e-19
1.96376 	1.0709 	0.0148565 	3.02381 	4.10198e-19
2.0339 	1.0709 	0.0148565 	3.02381 	4.10198e-19
2.10403 	1.0709 	0.0148565 	3.02381 	4.10198e-19
2.17417 	1.0709 	0.0148565 	3.02381 	4.10198e-19
2.2443 	1.0709 	0.0148565 	3.02381 	4.10198e-19
2.31443 	1.0709 	0.0148565 	3.02381 	4.10198e-19
2.38457 	1.0709 	0.0148565 	3.02381 	4.10198e-19
2.4547 	1.0709 	0.0148565 	3.02381 	4.10198e-19
2.52484 	1.0709 	0.0148565 	3.02381 	4.10198e-19
2.59497 	1.03613 	0.00736022 	3.03677 	-6.50455e-19
2.66511 	1.03613 	0.00736022 	3.03677 	-6.50455e-19
2.73524 	1.03613 	0.00736022 	3.03677 	-6.50455e-19
2.80538 	1.03613 	0.00736022 	3.03677 	-6.50455e-19
2.87551 	1.03613 	0.00736022 	3.03677 	-6.50455e-19
2.94564 	1.03613 	0.00736022 	3.03677 	-6.50455e-19
3.01578 	1.03613 	0.00736022 	3.03677 	-6.50455e-19
3.08591 	1.03613 	0.00736022 	3.03677 	-6.50455e-19
3.15605 	1.03613 	0.00736022 	3.03677 	-6.50455e-19
3.22618 	1.03613 	0.00736022 	3.03677 	-6.50455e-19
3.29632 	1.00358 	0.0201952 	3.04341 	6.57792e-19
3.36645 	1.00358 	0.0201952 	3.04341 	6.57792e-19
3.43659 	1.00358 	0.0201952 	3.04341 	6.57792e-19
3.50672 	1.00358 	0.0201952 	3.04341 	6.57792e-19
3.57685 	1.00358 	0.0201952 	3.04341 	6.57792e-19
3.64699 	1.00358 	0.0201952 	3.04341 	6.57792e-19
3.71712 	1.00358 	0.0201952 	3.04341 	6.57792e-19
3.78726 	1.00358 	0.0201952 	3.04341 	6.57792e-19
3.85739 	1.00358 	0.0201952 	3.04341 	6.57792e-19
3.92753 	1.00358 	0.0201952 	3.04341 	6.57792e-19
3.99766 	1.00358 	0.0201952 	3.04341 	6.57792e-19
4.06779 	0.985337 	0.00365601 	3.0502 	-1.84851e-20
4.13793 	0.985337 	0.00365601 	3.0502 	-1.84851e-20
4.20806 	0.985337 	0.00365601 	3.0502 	-1.84851e-20
4.2782 	0.985337 	0.00365601 	3.0502 	-1.84851e-20
4.34833 	0.985337 	0.00365601 	3.0502 	-1.84851e-20
4.41847 	0.985337 	0.00365601 	3.0502 	-1.84851e-20
4.4886 	0.960376 	0.0166899 	3.05785 	0
4.55874 	0.960376 	0.0166899 	3.05785 	0
4.62887 	0.960376 	0.0166899 	3.05785 	0
4.699 	0.960376 	0.0166899 	3.05785 	0
4.76914 	0.960376 	0.0166899 	3.05785 	0
4.83927 	0.960376 	0.0166899 	3.05785 	0
4.90941 	0.960376 	0.0166899 	3.05785 	0
4.97954 	0.960376 	0.0166899 	3.05785 	0
5.04968 	0.960376 	0.0166899 	3.05785 	0
5.11981 	0.960376 	0.0166899 	3.05785 	0
5.18994 	0.938132 	0.00564033 	3.06476 	-8.74079e-21
5.26008 	0.938132 	0.00564033 	3.06476 	-8.74079e-21
5.33021 	0.938132 	0.00564033 	3.06476 	-8.74079e-21
5.40035 	0.938132 	0.00564033 	3.06476 	-8.74079e-21
5.47048 	0.938132 	0.00564033 	3.06476 	-8.74079e-21
5.54062 	0.938132 	0.00564033 	3.06476 	-8.74079e-21
5.61075 	0.938132 	0.00564033 	3.06476 	-8.74079e-21
5.68089 	0.909178 	0.0111922 	3.07432 	0
5.75102 	0.909178 	0.0111922 	3.07432 	0
5.82115 	0.909178 	0.0111922 	3.07432 	0
5.89129 	0.909178 	0.0111922 	3.07432 	0
5.96142 	0.909178 	0.0111922 	3.07432 	0
6.03156 	0.909178 	0.0111922 	3.07432 	0
6.10169 	0.909178 	0.0111922 	3.07432 	0
6.17183 	0.909178 	0.0111922 	3.07432 	0
6.24196 	0.909178 	0.0111922 	3.07432 	0
6.3121 	0.880159 	0.00729018 	3.0827 	0
6.38223 	0.880159 	0.00729018 	3.0827 	0
6.45236 	0.880159 	0.00729018 	3.0827 	0
6.5225 	0.880159 	0.00729018 	3.0827 	0
6.59263 	0.880159 	0.00729018 	3.0827 	0
6.66277 	0.880159 	0.00729018 	3.0827 	0
6.7329 	0.880159 	0.00729018 	3.0827 	0
6.80304 	0.880159 	0.00729018 	3.0827 	0
6.87317 	0.854696 	0.00624567 	3.09086 	2.93187e-19
6.9433 	0.854696 	0.00624567 	3.09086 	2.93187e-19
7.01344 	0.854696 	0.00624567 	3.09086 	2.93187e-19
7.08357 	0.854696 	0.00624567 	3.09086 	2.93187e-19
7.15371 	0.854696 	0.00624567 	3.09086 	2.93187e-19
7.22384 	0.854696 	0.00624567 	3.09086 	2.93187e-19
7.29398 	0.854696 	0.00624567 	3.09086 	2.93187e-19
7.36411 	0.854696 	0.00624567 	3.09086 	2.93187e-19
7.43425 	0.854696 	0.00624567 	3.09086 	2.93187e-19
7.50438 	0.82241 	0.0086491 	3.09967 	-2.18173e-18
7.57451 	0.82241 	0.0086491 	3.09967 	-2.18173e-18
7.64465 	0.82241 	0.0086491 	3.09967 	-2.18173e-18
7.71478 	0.82241 	0.0086491 	3.09967 	-2.18173e-18
7.78492 	0.82241 	0.0086491 	3.09967 	-2.18173e-18
7.85505 	0.82241 	0.0086491 	3.09967 	-2.18173e-18
7.92519 	0.82241 	0.0086491 	3.09967 	-2.18173e-18
7.99532 	0.82241 	0.0086491 	3.09967 	-2.18173e-18
8.06545 	0.803956 	0.00232833 	3.10628 	2.1298e-18
8.13559 	0.803956 	0.00232833 	3.10628 	2.1298e-18
8.20572 	0.803956 	0.00232833 	3.10628 	2.1298e-18
8.27586 	0.803956 	0.00232833 	3.10628 	2.1298e-18
8.34599 	0.803956 	0.00232833 	3.10628 	2.1298e-18
8.41613 	0.803956 	0.00232833 	3.10628 	2.1298e-18
8.48626 	0.803956 	0.00232833 	3.10628 	2.1298e-18
8.5564 	0.803956 	0.00232833 	3.10628 	2.1298e-18
8.62653 	0.803956 	0.00232833 	3.10628 	2.1298e-18
8.69666 	0.772985 	0.01644 	3.11794 	1.96551e-18
8.7668 	0.772985 	0.01644 	3.11794 	1.96551e-18
8.83693 	0.772985 	0.01644 	3.11794 	1.96551e-18
8.90707 	0.772985 	0.01644 	3.11794 	1.96551e-18
8.9772 	0.772985 	0.01644 	3.11794 	1.96551e-18
9.04734 	0.772985 	0.01644 	3.11794 	1.96551e-18
9.11747 	0.772985 	0.01644 	3.11794 	1.96551e-18
9.18761 	0.772985 	0.01644 	3.11794 	1.96551e-18
9.25774 	0.742694 	0.00199219 	3.11867 	-1.83369e-18
9.32787 	0.742694 	0.00199219 	3.11867 	-1.83369e-18
9.39801 	0.742694 	0.00199219 	3.11867 	-1.83369e-18
9.46814 	0.742694 	0.00199219 	3.11867 	-1.83369e-18
9.53828 	0.742694 	0.00199219 	3.11867 	-1.83369e-18
9.60841 	0.742694 	0.00199219 	3.11867 	-1.83369e-18
9.67855 	0.742694 	0.00199219 	3.11867 	-1.83369e-18
9.74868 	0.742694 	0.00199219 	3.11867 	-1.83369e-18
9.81881 	0.725478 	0.0158329 	3.12984 	-5.62489e-19
9.88895 	0.725478 	0.0158329 	3.12984 	-5.62489e-19
9.95908 	0.725478 	0.0158329 	3.12984 	-5.62489e-19
10.0292 	0.725478 	0.0158329 	3.12984 	-5.62489e-19
10.0994 	0.725478 	0.0158329 	3.12984 	-5.62489e-19
10.1695 	0.725478 	0.0158329 	3.12984 	-5.62489e-19
10.2396 	0.725478 	0.0158329 	3.12984 	-5.62489e-19
10.3098 	0.725478 	0.0158329 	3.12984 	-5.62489e-19
10.3799 	0.725478 	0.0158329 	3.12984 	-5.62489e-19
10.45 	0.725478 	0.0158329 	3.12984 	-5.62489e-19
10.5202 	0.725478 	0.0158329 	3.12984 	-5.62489e-19
10.5903 	0.725478 	0.0158329 	3.12984 	-5.62489e-19
10.6604 	0.748281 	0.0143315 	3.12591 	8.2787e-19
10.7306 	0.695269 	0.0353791 	3.14005 	0
10.8007 	0.695269 	0.0353791 	3.14005 	0
10.8708 	0.695269 	0.0353791 	3.14005 	0
10.941 	0.695269 	0.0353791 	3.14005 	0
11.0111 	0.695269 	0.0353791 	3.14005 	0
11.0812 	0.695269 	0.0353791 	3.14005 	0
11.1514 	0.695269 	0.0353791 	3.14005 	0
11.2215 	0.695269 	0.0353791 	3.14005 	0
11.2916 	0.695269 	0.0353791 	3.14005 	0
11.3618 	0.695269 	0.0353791 	3.14005 	0
11.4319 	0.695269 	0.0353791 	3.14005 	0
11.502 	0.695269 	0.0353791 	3.14005 	0
11.5722 	0.695269 	0.0353791 	3.14005 	0
11.6423 	0.695269 	0.0353791 	3.14005 	0
11.7124 	0.703199 	0.0225915 	3.12978 	0
11.7826 	0.643419 	0.0761479 	3.16025 	9.38972e-19
11.8527 	0.643419 	0.0761479 	3.16025 	9.38972e-19
11.9228 	0.643419 	0.0761479 	3.16025 	9.38972e-19
11.993 	0.643419 	0.0761479 	3.16025 	9.38972e-19
12.0631 	0.643419 	0.0761479 	3.16025 	9.38972e-19
12.1332 	0.643419 	0.0761479 	3.16025 	9.38972e-19
12.2034 	0.547336 	0.0688096 	3.18597 	-4.63912e-19
12.2735 	0.547336 	0.0688096 	3.18597 	-4.63912e-19
12.3437 	0.547336 	0.0688096 	3.18597 	-4.63912e-19
12.4138 	0.547336 	0.0688096 	3.18597 	-4.63912e-19
12.4839 	0.547336 	0.0688096 	3.18597 	-4.63912e-19
12.5541 	0.547336 	0.0688096 	3.18597 	-4.63912e-19
12.6242 	0.547336 	0.0688096 	3.18597 	-4.63912e-19
12.6943 	0.547336 	0.0688096 	3.18597 	-4.63912e-19
12.7645 	0.547336 	0.0688096 	3.18597 	-4.63912e-19
12.8346 	0.434069 	0.035599 	3.17812 	4.30794e-19
12.9047 	0.421136 	0.136119 	3.22124 	-2.12121e-19
12.9749 	0.421136 	0.136119 	3.22124 	-2.12121e-19
13.045 	0.421136 	0.136119 	3.22124 	-2.12121e-19
13.1151 	0.421136 	0.136119 	3.22124 	-2.12121e-19
13.1853 	0.421136 	0.136119 	3.22124 	-2.12121e-19
13.2554 	0.421136 	0.136119 	3.22124 	-2.12121e-19
13.3255 	0.421136 	0.136119 	3.22124 	-2.12121e-19
13.3957 	0.647701 	0.141039 	3.19246 	1.45576e-18
13.4658 	0.647701 	0.141039 	3.19246 	1.45576e-18
13.5359 	0.647701 	0.141039 	3.19246 	1.45576e-18
13.6061 	0.647701 	0.141039 	3.19246 	1.45576e-18
13.6762 	0.647701 	0.141039 	3.19246 	1.45576e-18
13.7463 	0.647701 	0.141039 	3.19246 	1.45576e-18
13.8165 	0.729548 	0.110858 	2.86544 	-1.20784e-18
13.8866 	0.939814 	0.133797 	2.95972 	5.58076e-19
13.9567 	0.939814 	0.133797 	2.95972 	5.58076e-19
14.0269 	0.354862 	0.243392 	3.03295 	-1.84384e-18
14.097 	0.354862 	0.243392 	3.03295 	-1.84384e-18
14.1671 	0.354862 	0.243392 	3.03295 	-1.84384e-18
14.2373 	0.354862 	0.243392 	3.03295 	-1.84384e-18
14.3074 	0.354862 	0.243392 	3.03295 	-1.84384e-18
14.3776 	0.354862 	0.243392 	3.03295 	-1.84384e-18
14.4477 	0.354862 	0.243392 	3.03295 	-1.84384e-18
14.5178 	0.354862 	0.243392 	3.03295 	-1.84384e-18
14.588 	0.354862 	0.243392 	3.03295 	-1.84384e-18
14.6581 	0.354862 	0.243392 	3.03295 	-1.84384e-18
14.7282 	0.354862 	0.243392 	3.03295 	-1.84384e-18
14.7984 	0.354862 	0.243392 	3.03295 	-1.84384e-18
14.8685 	0.354862 	0.243392 	3.03295 	-1.84384e-18
14.9386 	0.177519 	0.338212 	3.19218 	0
15.0088 	0.177519 	0.338212 	3.19218 	0
15.0789 	0.177519 	0.338212 	3.19218 	0
15.149 	0.177519 	0.338212 	3.19218 	0
15.2192 	0.177519 	0.338212 	3.19218 	0
15.2893 	-0.330695 	0.339108 	3.41864 	-2.057e-19
15.3594 	-0.330695 	0.339108 	3.41864 	-2.057e-19
15.4296 	-0.330695 	0.339108 	3.41864 	-2.057e-19
15.4997 	-0.330695 	0.339108 	3.41864 	-2.057e-19
15.5698 	-0.330695 	0.339108 	3.41864 	-2.057e-19
15.64 	-0.330695 	0.339108 	3.41864 	-2.057e-19
15.7101 	-0.824442 	0.394284 	3.48926 	0
15.7802 	-0.824442 	0.394284 	3.48926 	0
15.8504 	-0.718134 	0.646628 	3.54656 	1.2617e-18
15.9205 	-0.718134 	0.646628 	3.54656 	1.2617e-18
15.9906 	-0.718134 	0.646628 	3.54656 	1.2617e-18
16.0608 	-0.718134 	0.646628 	3.54656 	1.2617e-18
16.1309 	-0.718134 	0.646628 	3.54656 	1.2617e-18
16.201 	-0.718134 	0.646628 	3.54656 	1.2617e-18
16.2712 	-0.718134 	0.646628 	3.54656 	1.2617e-18
16.3413 	-0.718134 	0.646628 	3.54656 	1.2617e-18
16.4114 	-0.718134 	0.646628 	3.54656 	1.2617e-18
16.4816 	-0.718134 	0.646628 	3.54656 	1.2617e-18
16.5517 	-0.718134 	0.646628 	3.54656 	1.2617e-18
16.6219 	-0.718134 	0.646628 	3.54656 	1.2617e-18
16.692 	-0.718134 	0.646628 	3.54656 	1.2617e-18
16.7621 	-0.718134 	0.646628 	3.54656 	1.2617e-18
16.8323 	-0.266044 	0.870847 	3.1142 	6.93609e-20
16.9024 	-0.266044 	0.870847 	3.1142 	6.93609e-20
16.9725 	-0.266044 	0.870847 	3.1142 	6.93609e-20
17.0427 	-0.266044 	0.870847 	3.1142 	6.93609e-20
17.1128 	-0.266044 	0.870847 	3.1142 	6.93609e-20
17.1829 	-0.266044 	0.870847 	3.1142 	6.93609e-20
17.2531 	-0.266044 	0.870847 	3.1142 	6.93609e-20
17.3232 	-0.266044 	0.870847 	3.1142 	6.93609e-20
17.3933 	-0.266044 	0.870847 	3.1142 	6.93609e-20
17.4635 	-0.266044 	0.870847 	3.1142 	6.93609e-20
17.5336 	-0.173368 	0.913079 	3.03059 	-3.74916e-20
17.6037 	-0.173368 	0.913079 	3.03059 	-3.74916e-20
17.6739 	-0.173368 	0.913079 	3.03059 	-3.74916e-20
17.744 	-0.265445 	1.0421 	3.16058 	1.33952e-19
17.8141 	-0.265445 	1.0421 	3.16058 	1.33952e-19
17.8843 	-0.265445 	1.0421 	3.16058 	1.33952e-19
17.9544 	-0.265445 	1.0421 	3.16058 	1.33952e-19
18.0245 	-0.265445 	1.0421 	3.16058 	1.33952e-19
18.0947 	-0.265445 	1.0421 	3.16058 	1.33952e-19
18.1648 	-0.265445 	1.0421 	3.16058 	1.33952e-19
18.2349 	-0.265445 	1.0421 	3.16058 	1.33952e-19
18.3051 	-0.265445 	1.0421 	3.16058 	1.33952e-19
18.3752 	0.022857 	1.00472 	2.76267 	-1.01862e-19
18.4453 	0.022857 	1.00472 	2.76267 	-1.01862e-19
18.5155 	0.022857 	1.00472 	2.76267 	-1.01862e-19
18.5856 	0.022857 	1.00472 	2.76267 	-1.01862e-19
18.6557 	0.022857 	1.00472 	2.76267 	-1.01862e-19
18.7259 	0.022857 	1.00472 	2.76267 	-1.01862e-19
18.796 	0.022857 	1.00472 	2.76267 	-1.01862e-19
18.8662 	0.0859881 	1.04301 	2.82028 	-1.65592e-19
18.9363 	0.0859881 	1.04301 	2.82028 	-1.65592e-19
19.0064 	0.0859881 	1.04301 	2.82028 	-1.65592e-19
19.0766 	0.0859881 	1.04301 	2.82028 	-1.65592e-19
19.1467 	0.0859881 	1.04301 	2.82028 	-1.65592e-19
19.2168 	0.0859881 	1.04301 	2.82028 	-1.65592e-19
19.287 	0.0859881 	1.04301 	2.82028 	-1.65592e-19
19.3571 	0.0859881 	1.04301 	2.82028 	-1.65592e-19
19.4272 	0.0859881 	1.04301 	2.82028 	-1.65592e-19
19.4974 	0.0859881 	1.04301 	2.82028 	-1.65592e-19
19.5675 	0.0859881 	1.04301 	2.82028 	-1.65592e-19
19.6376 	0.0859881 	1.04301 	2.82028 	-1.65592e-19
19.7078 	0.0859881 	1.04301 	2.82028 	-1.65592e-19
19.7779 	0.232461 	0.990654 	2.44623 	-1.13874e-19
19.848 	0.232461 	0.990654 	2.44623 	-1.13874e-19
19.9182 	0.232461 	0.990654 	2.44623 	-1.13874e-19
19.9883 	0.232461 	0.990654 	2.44623 	-1.13874e-19
20.0584 	0.232461 	0.990654 	2.44623 	-1.13874e-19
20.1286 	0.232461 	0.990654 	2.44623 	-1.13874e-19
20.1987 	0.232461 	0.990654 	2.44623 	-1.13874e-19
20.2688 	0.226548 	0.996085 	2.43888 	2.98539e-19
20.339 	0.226548 	0.996085 	2.43888 	2.98539e-19
20.4091 	0.226548 	0.996085 	2.43888 	2.98539e-19
20.4792 	0.226548 	0.996085 	2.43888 	2.98539e-19
20.5494 	0.226548 	0.996085 	2.43888 	2.98539e-19
20.6195 	0.226548 	0.996085 	2.43888 	2.98539e-19
20.6896 	0.226548 	0.996085 	2.43888 	2.98539e-19
20.7598 	0.226548 	0.996085 	2.43888 	2.98539e-19
20.8299 	0.226548 	0.996085 	2.43888 	2.98539e-19
20.9 	0.226548 	0.996085 	2.43888 	2.98539e-19
20.9702 	0.226548 	0.996085 	2.43888 	2.98539e-19
21.0403 	0.226548 	0.996085 	2.43888 	2.98539e-19
21.1105 	0.226548 	0.996085 	2.43888 	2.98539e-19
21.1806 	0.226548 	0.996085 	2.43888 	2.98539e-19
21.2507 	0.226548 	0.996085 	2.43888 	2.98539e-19
21.3209 	0.226548 	0.996085 	2.43888 	2.98539e-19
21.391 	0.226548 	0.996085 	2.43888 	2.98539e-19
21.4611 	0.24066 	0.699766 	1.90372 	-4.06839e-19
21.5313 	0.24066 	0.699766 	1.90372 	-4.06839e-19
21.6014 	0.24066 	0.699766 	1.90372 	-4.06839e-19
21.6715 	0.134338 	0.611976 	1.40302 	-4.25456e-20
21.7417 	0.134338 	0.611976 	1.40302 	-4.25456e-20
21.8118 	0.134338 	0.611976 	1.40302 	-4.25456e-20
21.8819 	0.134338 	0.611976 	1.40302 	-4.25456e-20
21.9521 	0.134338 	0.611976 	1.40302 	-4.25456e-20
22.0222 	0.00179857 	0.932742 	2.34164 	1.02893e-19
22.0923 	0.00179857 	0.932742 	2.34164 	1.02893e-19
22.1625 	0.00179857 	0.932742 	2.34164 	1.02893e-19
22.2326 	0.00179857 	0.932742 	2.34164 	1.02893e-19
22.3027 	0.00179857 	0.932742 	2.34164 	1.02893e-19
22.3729 	0.00179857 	0.932742 	2.34164 	1.02893e-19
22.443 	0.00179857 	0.932742 	2.34164 	1.02893e-19
22.5131 	0.00179857 	0.932742 	2.34164 	1.02893e-19
22.5833 	0.00179857 	0.932742 	2.34164 	1.02893e-19
22.6534 	0.00179857 	0.932742 	2.34164 	1.02893e-19
22.7235 	0.00179857 	0.932742 	2.34164 	1.02893e-19
22.7937 	0.00179857 	0.932742 	2.34164 	1.02893e-19
22.8638 	0.00179857 	0.932742 	2.34164 	1.02893e-19
22.9339 	0.00179857 	0.932742 	2.34164 	1.02893e-19
23.0041 	0.00179857 	0.932742 	2.34164 	1.02893e-19
23.0742 	0.00179857 	0.932742 	2.34164 	1.02893e-19
23.1443 	0.00179857 	0.932742 	2.34164 	1.02893e-19
23.2145 	0.00179857 	0.932742 	2.34164 	1.02893e-19
23.2846 	0.00179857 	0.932742 	2.34164 	1.02893e-19
23.3548 	0.00179857 	0.932742 	2.34164 	1.02893e-19
23.4249 	0.00179857 	0.932742 	2.34164 	1.02893e-19
23.495 	0.190162 	0.900325 	2.32069 	-8.41797e-20
23.5652 	0.190162 	0.900325 	2.32069 	-8.41797e-20
23.6353 	0.190162 	0.900325 	2.32069 	-8.41797e-20
23.7054 	0.190162 	0.900325 	2.32069 	-8.41797e-20
23.7756 	0.190162 	0.900325 	2.32069 	-8.41797e-20
23.8457 	0.190162 	0.900325 	2.32069 	-8.41797e-20
23.9158 	0.190162 	0.900325 	2.32069 	-8.41797e-20
23.986 	0.318642 	0.839111 	2.18165 	3.84098e-21
24.0561 	0.318642 	0.839111 	2.18165 	3.84098e-21
24.1262 	0.318642 	0.839111 	2.18165 	3.84098e-21
24.1964 	0.318642 	0.839111 	2.18165 	3.84098e-21
24.2665 	0.318642 	0.839111 	2.18165 	3.84098e-21
24.3366 	0.318642 	0.839111 	2.18165 	3.84098e-21
24.4068 	0.318642 	0.839111 	2.18165 	3.84098e-21
24.4769 	0.318642 	0.839111 	2.18165 	3.84098e-21
24.547 	0.318642 	0.839111 	2.18165 	3.84098e-21
24.6172 	0.318642 	0.839111 	2.18165 	3.84098e-21
24.6873 	0.318642 	0.839111 	2.18165 	3.84098e-21
24.7574 	0.318642 	0.839111 	2.18165 	3.84098e-21
24.8276 	0.318642 	0.839111 	2.18165 	3.84098e-21
24.8977 	0.318642 	0.839111 	2.18165 	3.84098e-21
24.9678 	0.318642 	0.839111 	2.18165 	3.84098e-21
25.038 	0.318642 	0.839111 	2.18165 	3.84098e-21
25.1081 	0.318642 	0.839111 	2.18165 	3.84098e-21
25.1782 	0.266031 	0.498357 	1.35099 	0
25.2484 	0.266031 	0.498357 	1.35099 	0
25.3185 	0.266031 	0.498357 	1.35099 	0
25.3886 	0.266031 	0.498357 	1.35099 	0
25.4588 	0.266031 	0.498357 	1.35099 	0
25.5289 	0.266031 	0.498357 	1.35099 	0
25.5991 	0.266031 	0.498357 	1.35099 	0
25.6692 	0.266031 	0.498357 	1.35099 	0
25.7393 	0.266031 	0.498357 	1.35099 	0
25.8095 	0.266031 	0.498357 	1.35099 	0
25.8796 	0.266031 	0.498357 	1.35099 	0
25.9497 	0.266031 	0.498357 	1.35099 	0
26.0199 	0.266031 	0.498357 	1.35099 	0
26.09 	0.266031 	0.498357 	1.35099 	0
26.1601 	0.266031 	0.498357 	1.35099 	0
26.2303 	0.171154 	0.498034 	1.37081 	-2.78154e-19
26.3004 	0.171154 	0.498034 	1.37081 	-2.78154e-19
26.3705 	0.171154 	0.498034 	1.37081 	-2.78154e-19
26.4407 	0.171154 	0.498034 	1.37081 	-2.78154e-19
26.5108 	0.171154 	0.498034 	1.37081 	-2.78154e-19
26.5809 	0.171154 	0.498034 	1.37081 	-2.78154e-19
26.6511 	0.171154 	0.498034 	1.37081 	-2.78154e-19
26.7212 	0.171154 	0.498034 	1.37081 	-2.78154e-19
26.7913 	0.171154 	0.498034 	1.37081 	-2.78154e-19
26.8615 	0.171154 	0.498034 	1.37081 	-2.78154e-19
26.9316 	0.171154 	0.498034 	1.37081 	-2.78154e-19
27.0017 	0.171154 	0.498034 	1.37081 	-2.78154e-19
27.0719 	0.171154 	0.498034 	1.37081 	-2.78154e-19
27.142 	0.171154 	0.498034 	1.37081 	-2.78154e-19
27.2121 	0.171154 	0.498034 	1.37081 	-2.78154e-19
27.2823 	0.171154 	0.498034 	1.37081 	-2.78154e-19
27.3524 	0.111576 	0.491354 	1.37386 	3.0528e-19
27.4225 	0.111576 	0.491354 	1.37386 	3.0528e-19
27.4927 	0.111576 	0.491354 	1.37386 	3.0528e-19
27.5628 	0.111576 	0.491354 	1.37386 	3.0528e-19
27.6329 	0.111576 	0.491354 	1.37386 	3.0528e-19
27.7031 	0.111576 	0.491354 	1.37386 	3.0528e-19
27.7732 	0.111576 	0.491354 	1.37386 	3.0528e-19
27.8434 	0.111576 	0.491354 	1.37386 	3.0528e-19
27.9135 	0.111576 	0.491354 	1.37386 	3.0528e-19
27.9836 	0.111576 	0.491354 	1.37386 	3.0528e-19
28.0538 	0.111576 	0.491354 	1.37386 	3.0528e-19
28.1239 	0.111576 	0.491354 	1.37386 	3.0528e-19
28.194 	0.111576 	0.491354 	1.37386 	3.0528e-19
28.2642 	0.111576 	0.491354 	1.37386 	3.0528e-19
28.3343 	0.111576 	0.491354 	1.37386 	3.0528e-19
28.4044 	0.111576 	0.491354 	1.37386 	3.0528e-19
28.4746 	0.111576 	0.491354 	1.37386 	3.0528e-19
28.5447 	0.111576 	0.491354 	1.37386 	3.0528e-19
28.6148 	0.111576 	0.491354 	1.37386 	3.0528e-19
28.685 	0.111576 	0.491354 	1.37386 	3.0528e-19
28.7551 	0.111576 	0.491354 	1.37386 	3.0528e-19
28.8252 	0.111576 	0.491354 	1.37386 	3.0528e-19
28.8954 	0.111576 	0.491354 	1.37386 	3.0528e-19
28.9655 	0.0626596 	0.436094 	1.29285 	8.08475e-21
29.0356 	0.0626596 	0.436094 	1.29285 	8.08475e-21
29.1058 	0.0626596 	0.436094 	1.29285 	8.08475e-21
29.1759 	0.0626596 	0.436094 	1.29285 	8.08475e-21
29.246 	0.0626596 	0.436094 	1.29285 	8.08475e-21
29.3162 	0.0626596 	0.436094 	1.29285 	8.08475e-21
29.3863 	0.0626596 	0.436094 	1.29285 	8.08475e-21
29.4564 	0.0626596 	0.436094 	1.29285 	8.08475e-21
29.5266 	0.0626596 	0.436094 	1.29285 	8.08475e-21
29.5967 	0.0626596 	0.436094 	1.29285 	8.08475e-21
29.6668 	0.0626596 	0.436094 	1.29285 	8.08475e-21
29.737 	0.0626596 	0.436094 	1.29285 	8.08475e-21
29.8071 	0.0626596 	0.436094 	1.29285 	8.08475e-21
29.8773 	0.0626596 	0.436094 	1.29285 	8.08475e-21
29.9474 	0.0626596 	0.436094 	1.29285 	8.08475e-21
30.0175 	0.0626596 	0.436094 	1.29285 	8.08475e-21
30.0877 	0.0626596 	0.436094 	1.29285 	8.08475e-21
30.1578 	0.0626596 	0.436094 	1.29285 	8.08475e-21
30.2279 	0.0626596 	0.436094 	1.29285 	8.08475e-21
30.2981 	0.0626596 	0.436094 	1.29285 	8.08475e-21
30.3682 	0.0626596 	0.436094 	1.29285 	8.08475e-21
30.4383 	0.0626596 	0.436094 	1.29285 	8.08475e-21
30.5085 	0.0626596 	0.436094 	1.29285 	8.08475e-21
30.5786 	0.0626596 	0.436094 	1.29285 	8.08475e-21
30.6487 	0.0626596 	0.436094 	1.29285 	8.08475e-21
30.7189 	0.0626596 	0.436094 	1.29285 	8.08475e-21
30.789 	0.0566976 	0.3674 	1.29925 	-8.03167e-20
30.8591 	0.0566976 	0.3674 	1.29925 	-8.03167e-20
30.9293 	0.0566976 	0.3674 	1.29925 	-8.03167e-20
30.9994 	0.0566976 	0.3674 	1.29925 	-8.03167e-20
31.0695 	0.0566976 	0.3674 	1.29925 	-8.03167e-20
31.1397 	0.0566976 	0.3674 	1.29925 	-8.03167e-20
31.2098 	0.0566976 	0.3674 	1.29925 	-8.03167e-20
31.2799 	0.0566976 	0.3674 	1.29925 	-8.03167e-20
31.3501 	0.0566976 	0.3674 	1.29925 	-8.03167e-20
31.4202 	0.0566976 	0.3674 	1.29925 	-8.03167e-20
31.4903 	0.0566976 	0.3674 	1.29925 	-8.03167e-20
31.5605 	0.0566976 	0.3674 	1.29925 	-8.03167e-20
31.6306 	0.0566976 	0.3674 	1.29925 	-8.03167e-20
31.7007 	0.0566976 	0.3674 	1.29925 	-8.03167e-20
31.7709 	0.0566976 	0.3674 	1.29925 	-8.03167e-20
31.841 	0.0566976 	0.3674 	1.29925 	-8.03167e-20
31.9111 	0.0566976 	0.3674 	1.29925 	-8.03167e-20
31.9813 	0.0566976 	0.3674 	1.29925 	-8.03167e-20
32.0514 	0.0566976 	0.3674 	1.29925 	-8.03167e-20
32.1216 	0.0566976 	0.3674 	1.29925 	-8.03167e-20
32.1917 	0.0566976 	0.3674 	1.29925 	-8.03167e-20
32.2618 	0.0566976 	0.3674 	1.29925 	-8.03167e-20
32.332 	0.0566976 	0.3674 	1.29925 	-8.03167e-20
32.4021 	0.0566976 	0.3674 	1.29925 	-8.03167e-20
32.4722 	0.0566976 	0.3674 	1.29925 	-8.03167e-20
32.5424 	0.0566976 	0.3674 	1.29925 	-8.03167e-20
32.6125 	0.0566976 	0.3674 	1.29925 	-8.03167e-20
32.6826 	0.0566976 	0.3674 	1.29925 	-8.03167e-20
32.7528 	0.0566976 	0.3674 	1.29925 	-8.03167e-20
32.8229 	0.0566976 	0.3674 	1.29925 	-8.03167e-20
32.893 	0.0566976 	0.3674 	1.29925 	-8.03167e-20
32.9632 	0.0566976 	0.3674 	1.29925 	-8.03167e-20
33.0333 	0.0566976 	0.3674 	1.29925 	-8.03167e-20
33.1034 	0.0566976 	0.3674 	1.29925 	-8.03167e-20
33.1736 	0.0566976 	0.3674 	1.29925 	-8.03167e-20
33.2437 	0.0566976 	0.3674 	1.29925 	-8.03167e-20
33.3138 	0.0566976 	0.3674 	1.29925 	-8.03167e-20
33.384 	0.0566976 	0.3674 	1.29925 	-8.03167e-20
33.4541 	0.0566976 	0.3674 	1.29925 	-8.03167e-20
33.5242 	0.0566976 	0.3674 	1.29925 	-8.03167e-20
33.5944 	0.0566976 	0.3674 	1.29925 	-8.03167e-20
33.6645 	0.0566976 	0.3674 	1.29925 	-8.03167e-20
33.7346 	0.0191121 	0.364361 	1.37034 	4.2301e-20
33.8048 	0.0191121 	0.364361 	1.37034 	4.2301e-20
33.8749 	0.0191121 	0.364361 	1.37034 	4.2301e-20
33.945 	0.0191121 	0.364361 	1.37034 	4.2301e-20
34.0152 	0.0191121 	0.364361 	1.37034 	4.2301e-20
34.0853 	0.0191121 	0.364361 	1.37034 	4.2301e-20
34.1554 	0.0170698 	0.271639 	1.32404 	-1.11373e-19
34.2256 	0.0170698 	0.271639 	1.32404 	-1.11373e-19
34.2957 	0.0170698 	0.271639 	1.32404 	-1.11373e-19
34.3659 	0.0170698 	0.271639 	1.32404 	-1.11373e-19
34.436 	0.0170698 	0.271639 	1.32404 	-1.11373e-19
34.5061 	0.0170698 	0.271639 	1.32404 	-1.11373e-19
34.5763 	0.0170698 	0.271639 	1.32404 	-1.11373e-19
34.6464 	0.0170698 	0.271639 	1.32404 	-1.11373e-19
34.7165 	0.216735 	0.261597 	1.61673 	1.19153e-19
34.7867 	0.216735 	0.261597 	1.61673 	1.19153e-19
34.8568 	0.216735 	0.261597 	1.61673 	1.19153e-19
34.9269 	0.216735 	0.261597 	1.61673 	1.19153e-19
34.9971 	0.216735 	0.261597 	1.61673 	1.19153e-19
35.0672 	0.216735 	0.261597 	1.61673 	1.19153e-19
35.1373 	0.216735 	0.261597 	1.61673 	1.19153e-19
35.2075 	0.216735 	0.261597 	1.61673 	1.19153e-19
35.2776 	0.216735 	0.261597 	1.61673 	1.19153e-19
35.3477 	0.216735 	0.261597 	1.61673 	1.19153e-19
35.4179 	0.216735 	0.261597 	1.61673 	1.19153e-19
35.488 	0.216735 	0.261597 	1.61673 	1.19153e-19
35.5581 	0.216735 	0.261597 	1.61673 	1.19153e-19
35.6283 	0.216735 	0.261597 	1.61673 	1.19153e-19
35.6984 	0.216735 	0.261597 	1.61673 	1.19153e-19
35.7685 	0.216735 	0.261597 	1.61673 	1.19153e-19
35.8387 	0.216735 	0.261597 	1.61673 	1.19153e-19
35.9088 	0.216735 	0.261597 	1.61673 	1.19153e-19
35.9789 	0.216735 	0.261597 	1.61673 	1.19153e-19
36.0491 	0.191099 	0.239077 	1.5773 	0
36.1192 	0.191099 	0.239077 	1.5773 	0
36.1893 	0.191099 	0.239077 	1.5773 	0
36.2595 	0.191099 	0.239077 	1.5773 	0
36.3296 	0.191099 	0.239077 	1.5773 	0
36.3997 	0.191099 	0.239077 	1.5773 	0
36.4699 	0.191099 	0.239077 	1.5773 	0
36.54 	0.191099 	0.239077 	1.5773 	0
36.6102 	0.191099 	0.239077 	1.5773 	0
36.6803 	0.191099 	0.239077 	1.5773 	0
36.7504 	0.191099 	0.239077 	1.5773 	0
36.8206 	0.191099 	0.239077 	1.5773 	0
36.8907 	0.0650835 	0.186593 	1.45193 	7.48148e-20
36.9608 	0.0650835 	0.186593 	1.45193 	7.48148e-20
37.031 	0.0650835 	0.186593 	1.45193 	7.48148e-20
37.1011 	0.0650835 	0.186593 	1.45193 	7.48148e-20
37.1712 	0.0650835 	0.186593 	1.45193 	7.48148e-20
37.2414 	0.0650835 	0.186593 	1.45193 	7.48148e-20
37.3115 	0.0650835 	0.186593 	1.45193 	7.48148e-20
37.3816 	0.0650835 	0.186593 	1.45193 	7.48148e-20
37.4518 	0.0650835 	0.186593 	1.45193 	7.48148e-20
37.5219 	0.0650835 	0.186593 	1.45193 	7.48148e-20
37.592 	0.0650835 	0.186593 	1.45193 	7.48148e-20
37.6622 	0.0650835 	0.186593 	1.45193 	7.48148e-20
37.7323 	0.0650835 	0.186593 	1.45193 	7.48148e-20
37.8024 	0.0650835 	0.186593 	1.45193 	7.48148e-20
37.8726 	0.0650835 	0.186593 	1.45193 	7.48148e-20
37.9427 	0.0650835 	0.186593 	1.45193 	7.48148e-20
38.0128 	0.0650835 	0.186593 	1.45193 	7.48148e-20
38.083 	0.0650835 	0.186593 	1.45193 	7.48148e-20
38.1531 	0.0650835 	0.186593 	1.45193 	7.48148e-20
38.2232 	0.0893279 	0.129989 	1.59457 	-8.57934e-20
38.2934 	0.0893279 	0.129989 	1.59457 	-8.57934e-20
38.3635 	0.0893279 	0.129989 	1.59457 	-8.57934e-20
38.4336 	0.0893279 	0.129989 	1.59457 	-8.57934e-20
38.5038 	0.0893279 	0.129989 	1.59457 	-8.57934e-20
38.5739 	0.0893279 	0.129989 	1.59457 	-8.57934e-20
38.644 	0.0893279 	0.129989 	1.59457 	-8.57934e-20
38.7142 	0.0893279 	0.129989 	1.59457 	-8.57934e-20
38.7843 	0.0893279 	0.129989 	1.59457 	-8.57934e-20
38.8545 	0.0893279 	0.129989 	1.59457 	-8.57934e-20
38.9246 	0.0893279 	0.129989 	1.59457 	-8.57934e-20
38.9947 	0.0893279 	0.129989 	1.59457 	-8.57934e-20
39.0649 	0.0893279 	0.129989 	1.59457 	-8.57934e-20
39.135 	0.0893279 	0.129989 	1.59457 	-8.57934e-20
39.2051 	0.0525971 	0.113926 	1.5681 	0
39.2753 	0.0525971 	0.113926 	1.5681 	0
39.3454 	0.0525971 	0.113926 	1.5681 	0
39.4155 	0.0525971 	0.113926 	1.5681 	0
39.4857 	0.0525971 	0.113926 	1.5681 	0
39.5558 	0.0525971 	0.113926 	1.5681 	0
39.6259 	0.0525971 	0.113926 	1.5681 	0
39.6961 	0.0525971 	0.113926 	1.5681 	0
39.7662 	0.0525971 	0.113926 	1.5681 	0
39.8363 	0.0525971 	0.113926 	1.5681 	0
39.9065 	0.0525971 	0.113926 	1.5681 	0
39.9766 	0.0525971 	0.113926 	1.5681 	0
40.0467 	0.0525971 	0.113926 	1.5681 	0
40.1169 	0.0525971 	0.113926 	1.5681 	0
40.187 	0.0525971 	0.113926 	1.5681 	0
40.2571 	0.0525971 	0.113926 	1.5681 	0
40.3273 	0.0525971 	0.113926 	1.5681 	0
40.3974 	0.0525971 	0.113926 	1.5681 	0
40.4675 	0.0525971 	0.113926 	1.5681 	0
40.5377 	0.0525971 	0.113926 	1.5681 	0
40.6078 	0.0525971 	0.113926 	1.5681 	0
40.6779 	0.0380639 	0.11058 	1.51543 	-2.25044e-20
40.7481 	0.0380639 	0.11058 	1.51543 	-2.25044e-20
40.8182 	0.0380639 	0.11058 	1.51543 	-2.25044e-20
40.8883 	0.0380639 	0.11058 	1.51543 	-2.25044e-20
40.9585 	0.0380639 	0.11058 	1.51543 	-2.25044e-20
41.0286 	0.0380639 	0.11058 	1.51543 	-2.25044e-20
41.0988 	0.0380639 	0.11058 	1.51543 	-2.25044e-20
41.1689 	0.0380639 	0.11058 	1.51543 	-2.25044e-20
41.239 	0.0390665 	0.0867178 	1.53097 	4.22064e-20
41.3092 	0.0390665 	0.0867178 	1.53097 	4.22064e-20
41.3793 	0.0390665 	0.0867178 	1.53097 	4.22064e-20
41.4494 	0.0390665 	0.0867178 	1.53097 	4.22064e-20
41.5196 	0.0390665 	0.0867178 	1.53097 	4.22064e-20
41.5897 	0.0390665 	0.0867178 	1.53097 	4.22064e-20
41.6598 	0.0390665 	0.0867178 	1.53097 	4.22064e-20
41.73 	0.0390665 	0.0867178 	1.53097 	4.22064e-20
41.8001 	0.0390665 	0.0867178 	1.53097 	4.22064e-20
41.8702 	0.0390665 	0.0867178 	1.53097 	4.22064e-20
41.9404 	0.0390665 	0.0867178 	1.53097 	4.22064e-20
42.0105 	0.0390665 	0.0867178 	1.53097 	4.22064e-20
42.0806 	0.0390665 	0.0867178 	1.53097 	4.22064e-20
42.1508 	0.0390665 	0.0867178 	1.53097 	4.22064e-20
42.2209 	0.0390665 	0.0867178 	1.53097 	4.22064e-20
42.291 	0.0390665 	0.0867178 	1.53097 	4.22064e-20
42.3612 	0.0390665 	0.0867178 	1.53097 	4.22064e-20
42.4313 	0.0390665 	0.0867178 	1.53097 	4.22064e-20
42.5014 	0.0390665 	0.0867178 	1.53097 	4.22064e-20
42.5716 	0.0390665 	0.0867178 	1.53097 	4.22064e-20
42.6417 	0.0390665 	0.0867178 	1.53097 	4.22064e-20
42.7118 	0.0276843 	0.0849099 	1.51648 	0
42.782 	0.0276843 	0.0849099 	1.51648 	0
42.8521 	0.0276843 	0.0849099 	1.51648 	0
42.9222 	0.0276843 	0.0849099 	1.51648 	0
42.9924 	0.0461979 	0.0446869 	1.57792 	0
43.0625 	0.0461979 	0.0446869 	1.57792 	0
43.1327 	0.0461979 	0.0446869 	1.57792 	0
43.2028 	0.0461979 	0.0446869 	1.57792 	0
43.2729 	0.0461979 	0.0446869 	1.57792 	0
43.3431 	0.0461979 	0.0446869 	1.57792 	0
43.4132 	0.0461979 	0.0446869 	1.57792 	0
43.4833 	0.0461979 	0.0446869 	1.57792 	0
43.5535 	0.0461979 	0.0446869 	1.57792 	0
43.6236 	0.0461979 	0.0446869 	1.57792 	0
43.6937 	0.0461979 	0.0446869 	1.57792 	0
43.7639 	0.0461979 	0.0446869 	1.57792 	0
43.834 	0.0461979 	0.0446869 	1.57792 	0