/*--------------------------------*- C++ -*----------------------------------*\
| =========                 |                                                 |
| \\      /  F ield         | OpenFOAM: The Open Source CFD Toolbox           |
|  \\    /   O peration     | Version:  2306                                  |
|   \\  /    A nd           | Website:  www.openfoam.com                      |
|    \\/     M anipulation  |                                                 |
\*---------------------------------------------------------------------------*/
FoamFile
{
    version     2.0;
    format      ascii;
    arch        "LSB;label=32;scalar=64";
    class       volScalarField;
    location    "40";
    object      p;
}
// * * * * * * * * * * * * * * * * * * * * * * * * * * * * * * * * * * * * * //

dimensions      [0 2 -2 0 0 0 0];

internalField   nonuniform List<scalar> 
8800
(
0.883057
0.835004
0.796624
0.767975
0.74734
0.732569
0.721943
0.714411
0.709534
0.707418
0.708639
0.712805
0.719445
0.728761
0.741501
0.759078
0.783516
0.817124
0.859566
0.916691
0.715596
0.7228
0.731234
0.734643
0.732719
0.727183
0.720452
0.714263
0.709468
0.706563
0.706229
0.708696
0.713172
0.719144
0.726037
0.732643
0.736767
0.736248
0.73018
0.721199
0.69232
0.698495
0.702687
0.706039
0.708527
0.709306
0.708173
0.705994
0.703911
0.702942
0.703849
0.706199
0.708997
0.711189
0.711703
0.710159
0.707301
0.703655
0.699118
0.695332
0.687211
0.689909
0.692623
0.694923
0.696555
0.697861
0.698741
0.698905
0.698589
0.698485
0.699172
0.700275
0.701023
0.700929
0.700109
0.698896
0.697133
0.694623
0.692191
0.690661
0.682052
0.683472
0.685265
0.687308
0.689044
0.690327
0.691321
0.692149
0.692767
0.693288
0.693855
0.694245
0.694223
0.693831
0.693103
0.691874
0.690157
0.688262
0.686932
0.686109
0.677089
0.678001
0.67923
0.680799
0.682434
0.683934
0.685171
0.686198
0.687126
0.687958
0.68855
0.68877
0.688642
0.688154
0.68724
0.68599
0.68461
0.683323
0.682492
0.681949
0.672278
0.672942
0.673893
0.67518
0.676576
0.678023
0.679432
0.680698
0.681825
0.682839
0.683549
0.683812
0.683643
0.68306
0.68218
0.68117
0.680115
0.679163
0.678567
0.678168
0.667597
0.668108
0.668882
0.669997
0.671255
0.672606
0.674021
0.675441
0.676788
0.678009
0.67888
0.679221
0.679077
0.678584
0.677891
0.677095
0.676266
0.675544
0.675098
0.674788
0.662985
0.663392
0.664039
0.665031
0.666217
0.667514
0.668918
0.670415
0.671946
0.673408
0.674486
0.674973
0.674981
0.674677
0.674183
0.673578
0.672933
0.67239
0.672052
0.671802
0.658366
0.658696
0.659256
0.66017
0.661307
0.662586
0.664015
0.665592
0.667287
0.66901
0.670358
0.67109
0.671334
0.671248
0.670952
0.670538
0.670061
0.669664
0.669408
0.669201
0.653661
0.653934
0.654433
0.655301
0.656419
0.657718
0.659208
0.660902
0.662789
0.664798
0.666496
0.667561
0.668094
0.668254
0.668169
0.667941
0.667628
0.667356
0.667166
0.66699
0.648792
0.64902
0.64948
0.650334
0.651473
0.652835
0.654432
0.656301
0.658452
0.660825
0.662952
0.664408
0.665268
0.6657
0.66584
0.665799
0.665643
0.66548
0.665343
0.66519
0.643682
0.643873
0.644314
0.645183
0.646386
0.647857
0.649618
0.651732
0.654229
0.657068
0.659717
0.661635
0.662868
0.663602
0.66399
0.664139
0.664141
0.664079
0.663987
0.663852
0.638248
0.638408
0.638844
0.639757
0.641064
0.642692
0.644675
0.647106
0.650043
0.653474
0.656757
0.659224
0.660899
0.661988
0.662659
0.66303
0.663187
0.66322
0.663168
0.663046
0.632389
0.632523
0.632969
0.633953
0.635405
0.63724
0.639511
0.642337
0.645813
0.649957
0.654027
0.657178
0.6594
0.660909
0.661909
0.662525
0.662856
0.662986
0.662973
0.66286
0.625993
0.626099
0.626567
0.627648
0.629292
0.631404
0.634058
0.637401
0.641562
0.646594
0.651622
0.655594
0.658461
0.660458
0.66182
0.66272
0.663255
0.663492
0.663516
0.66341
0.618908
0.618998
0.619492
0.620699
0.622592
0.625055
0.628191
0.632196
0.637237
0.643385
0.649575
0.654518
0.658137
0.660729
0.662548
0.663768
0.664523
0.664871
0.664932
0.66483
0.610906
0.610987
0.611542
0.612891
0.615083
0.617987
0.621732
0.626544
0.632649
0.640154
0.647766
0.653908
0.658464
0.661771
0.664153
0.665778
0.666799
0.667275
0.667375
0.667273
0.601713
0.601766
0.602394
0.603951
0.606539
0.610016
0.614535
0.620388
0.627843
0.637025
0.646372
0.653945
0.659589
0.663744
0.666805
0.668918
0.670256
0.67088
0.671021
0.670916
0.59098
0.591015
0.591739
0.593575
0.596663
0.600874
0.606392
0.613581
0.622753
0.634024
0.64544
0.654694
0.661648
0.666814
0.670651
0.673355
0.675078
0.67587
0.676048
0.675934
0.578131
0.578155
0.579008
0.58121
0.584956
0.590124
0.59694
0.605829
0.617129
0.630937
0.644875
0.656154
0.664651
0.671023
0.675807
0.67923
0.681402
0.682381
0.682591
0.682461
0.562336
0.562356
0.563416
0.566161
0.57084
0.577349
0.585945
0.597113
0.611174
0.62812
0.645002
0.658568
0.668811
0.67655
0.68242
0.686646
0.689315
0.690486
0.69072
0.690566
0.542409
0.542436
0.543838
0.547427
0.553491
0.561915
0.572966
0.587142
0.604669
0.625399
0.64573
0.661943
0.674164
0.68345
0.690518
0.69566
0.698851
0.700204
0.70045
0.700266
0.516546
0.516607
0.51861
0.523608
0.531869
0.54316
0.557721
0.575943
0.597855
0.623097
0.647349
0.666465
0.680847
0.691809
0.70018
0.706294
0.709998
0.711501
0.711741
0.711523
0.481727
0.481915
0.485156
0.49277
0.504788
0.520511
0.5401
0.563651
0.590949
0.621423
0.650018
0.672257
0.68893
0.701678
0.711444
0.71854
0.722697
0.724291
0.724497
0.724244
0.432216
0.43326
0.439793
0.452781
0.471334
0.493906
0.520433
0.550726
0.584384
0.620699
0.653933
0.679424
0.69845
0.713016
0.724249
0.732281
0.736797
0.738389
0.738529
0.738238
0.359261
0.366673
0.381791
0.404743
0.432996
0.464721
0.499731
0.537815
0.57857
0.6213
0.659611
0.6887
0.710404
0.727095
0.740009
0.749089
0.754028
0.755694
0.75583
0.755583
0.280988
0.297864
0.322339
0.355939
0.394373
0.435411
0.479017
0.525141
0.57348
0.623441
0.667927
0.701707
0.726989
0.74653
0.761756
0.772296
0.777703
0.779379
0.779558
0.779465
0.215312
0.235335
0.267697
0.310243
0.357611
0.407442
0.459384
0.51339
0.569162
0.626148
0.676538
0.714699
0.743295
0.765442
0.782581
0.794022
0.799661
0.801672
0.801901
0.801894
0.161531
0.183454
0.221211
0.270156
0.324529
0.381709
0.441012
0.502246
0.565001
0.628646
0.684591
0.726803
0.758363
0.782709
0.801301
0.8138
0.820402
0.82232
0.822592
0.822629
0.116756
0.139863
0.181303
0.235312
0.295336
0.35856
0.424143
0.491767
0.560871
0.630688
0.691785
0.737697
0.771885
0.798122
0.818027
0.831435
0.838593
0.840746
0.84115
0.841209
0.0784626
0.102246
0.14652
0.204477
0.269256
0.33762
0.408644
0.481919
0.556756
0.63223
0.698073
0.747342
0.783828
0.81157
0.832362
0.846414
0.854034
0.856632
0.857153
0.857233
0.044685
0.0689073
0.115408
0.176675
0.245445
0.318283
0.394131
0.472485
0.552552
0.633258
0.703507
0.755833
0.794296
0.823189
0.844657
0.859156
0.867164
0.87013
0.870777
0.870863
0.0140037
0.0386037
0.0869236
0.151031
0.223252
0.30002
0.380185
0.463169
0.548089
0.633717
0.708127
0.763274
0.803461
0.833333
0.855321
0.87022
0.878489
0.881683
0.882384
0.88245
-0.0144617
0.0104873
0.0603119
0.126875
0.202166
0.282431
0.366484
0.453722
0.543193
0.633519
0.711935
0.769771
0.811543
0.842277
0.864663
0.879817
0.888256
0.89158
0.8923
0.89233
-0.0414207
-0.0160944
0.0352274
0.103794
0.181832
0.265217
0.352798
0.44396
0.537715
0.632569
0.714921
0.775413
0.818745
0.850325
0.873156
0.888479
0.897014
0.900415
0.901154
0.901152
-0.0671973
-0.0414659
0.0110166
0.081536
0.161997
0.248179
0.338963
0.433751
0.531548
0.630789
0.717063
0.780263
0.825237
0.857721
0.881017
0.896552
0.90512
0.908455
0.90921
0.9092
-0.092168
-0.0658881
-0.0124682
0.0598648
0.142486
0.231174
0.324876
0.423007
0.524606
0.628098
0.71833
0.784377
0.831137
0.864644
0.888457
0.904181
0.912761
0.91605
0.916704
0.916645
-0.116432
-0.0897616
-0.0352555
0.0386637
0.12319
0.214131
0.310477
0.411683
0.51684
0.624442
0.718691
0.787782
0.836537
0.871209
0.895613
0.911529
0.920054
0.923224
0.923782
0.923653
-0.140117
-0.112919
-0.0574421
0.0178578
0.104077
0.19703
0.295751
0.399758
0.508223
0.619772
0.718083
0.790463
0.841484
0.877516
0.902576
0.918644
0.92702
0.929985
0.930413
0.930231
-0.163328
-0.135532
-0.0791364
-0.00258143
0.0851351
0.179877
0.280722
0.387258
0.498759
0.61405
0.716432
0.792353
0.84599
0.883644
0.909437
0.925582
0.933688
0.936348
0.936639
0.93642
-0.186086
-0.157623
-0.100345
-0.0226464
0.0664006
0.162706
0.265439
0.374227
0.488474
0.607248
0.71366
0.793354
0.850018
0.889671
0.916334
0.932414
0.94003
0.942277
0.942417
0.942172
-0.208235
-0.179138
-0.121008
-0.0423073
0.0479072
0.145587
0.249964
0.36074
0.477425
0.599391
0.709696
0.793348
0.853462
0.895645
0.923483
0.939348
0.946108
0.947731
0.947697
0.947444
-0.22975
-0.20005
-0.141119
-0.0615133
0.0297146
0.128581
0.23439
0.346875
0.465696
0.590509
0.704495
0.792189
0.85615
0.901518
0.931162
0.946862
0.952216
0.952738
0.952435
0.95223
-0.250702
-0.220322
-0.160655
-0.080233
0.0118864
0.111772
0.218804
0.332738
0.45338
0.580672
0.698017
0.78973
0.857832
0.907056
0.939533
0.955773
0.959346
0.957757
0.956662
0.95667
-0.270919
-0.239943
-0.179556
-0.0984048
-0.005519
0.0952462
0.203304
0.318441
0.440597
0.569986
0.690261
0.785826
0.858212
0.911773
0.948298
0.966854
0.969657
0.965161
0.961533
0.960703
-0.290494
-0.258909
-0.197839
-0.11606
-0.0225371
0.0789559
0.187832
0.303922
0.427275
0.558378
0.681088
0.780212
0.856962
0.915002
0.956472
0.979885
0.98517
0.980079
0.969794
0.959246
-0.309354
-0.277211
-0.215636
-0.133398
-0.0394641
0.0625597
0.171963
0.288685
0.41286
0.545192
0.669827
0.772054
0.853442
0.915752
0.961762
0.991494
1.00051
0.990686
0.971075
0.962262
-0.327322
-0.294854
-0.232771
-0.150214
-0.0560039
0.0463891
0.15592
0.273065
0.397672
0.530707
0.656614
0.760922
0.847055
0.912913
0.959363
0.988898
1.0017
0.979382
0.912254
0.882128
-0.343927
-0.31305
-0.248868
-0.165961
-0.0713904
0.0309615
0.140004
0.257312
0.381962
0.515083
0.641469
0.746533
0.836768
0.906086
0.945102
0.967196
0.963658
0.912234
0.843227
0.801207
-0.394243
-0.330052
-0.263613
-0.181502
-0.0868942
0.0150133
0.124238
0.241209
0.365422
0.497919
0.623885
0.728525
0.81902
0.894947
0.907778
0.911784
0.871419
0.805853
0.73036
0.688522
-0.361472
-0.344677
-0.285561
-0.203256
-0.110001
-0.00832711
0.100022
0.216242
0.339317
0.470066
0.593667
0.696008
0.777382
0.856608
0.851043
0.745056
0.645354
0.575194
0.503788
0.537913
-0.393226
-0.363057
-0.302675
-0.22116
-0.127852
-0.0264444
0.0820543
0.197613
0.319596
0.448469
0.569119
0.667539
0.740505
0.782715
0.738607
0.596621
0.474693
0.386763
0.290456
0.343197
-0.417391
-0.384802
-0.322672
-0.240998
-0.147686
-0.0464076
0.0619675
0.176677
0.297239
0.423661
0.540486
0.633164
0.696607
0.70511
0.603627
0.437083
0.290615
0.17581
0.0486818
0.0856614
-0.441103
-0.40711
-0.343675
-0.261214
-0.167804
-0.0666842
0.041183
0.15491
0.273855
0.397474
0.50964
0.595754
0.643813
0.621346
0.46743
0.276751
0.0941792
-0.0687041
-0.253549
-0.260517
-0.464334
-0.429869
-0.365533
-0.282397
-0.188813
-0.0879018
0.0193319
0.13196
0.249046
0.369524
0.476429
0.555391
0.585072
0.527463
0.337963
0.13066
-0.0787987
-0.256773
-0.505129
-0.774581
-0.487912
-0.45339
-0.388537
-0.304939
-0.211161
-0.110402
-0.00373054
0.107781
0.222921
0.340064
0.441499
0.512049
0.522593
0.414757
0.224803
0.0151149
-0.188
-0.351562
-0.427008
-0.54082
-0.512794
-0.478152
-0.413019
-0.329182
-0.235351
-0.134834
-0.0288164
0.0814153
0.194303
0.307635
0.403202
0.463368
0.449607
0.307328
0.123685
-0.0692703
-0.235651
-0.326255
-0.349005
-0.365697
-0.539253
-0.50447
-0.439146
-0.355223
-0.261517
-0.161405
-0.0562794
0.0523748
0.162599
0.271487
0.360751
0.407577
0.375349
0.207059
0.0319134
-0.135911
-0.26297
-0.301071
-0.313637
-0.314818
-0.567498
-0.532504
-0.466972
-0.383052
-0.289605
-0.190114
-0.0861312
0.0206138
0.127746
0.231589
0.313826
0.34617
0.295617
0.114178
-0.0517662
-0.200314
-0.277057
-0.293811
-0.295004
-0.294846
-0.597584
-0.562296
-0.496512
-0.412659
-0.31962
-0.220941
-0.118367
-0.0138784
0.0897507
0.188016
0.262281
0.283094
0.197636
0.0291497
-0.129167
-0.2495
-0.285113
-0.284453
-0.284474
-0.283939
-0.629215
-0.59371
-0.527657
-0.443946
-0.35146
-0.253816
-0.152942
-0.0510686
0.0486389
0.140879
0.206788
0.211755
0.106149
-0.0505871
-0.191025
-0.266456
-0.275947
-0.277804
-0.277825
-0.277562
-0.661827
-0.626199
-0.560157
-0.476677
-0.384921
-0.288562
-0.189683
-0.0908146
0.00458504
0.0904705
0.147952
0.138069
0.0234244
-0.119838
-0.236106
-0.270922
-0.276337
-0.274664
-0.273552
-0.272965
-0.694952
-0.659211
-0.593537
-0.51044
-0.419636
-0.324831
-0.228281
-0.132809
-0.0421347
0.0374039
0.0847783
0.0658374
-0.0529443
-0.178258
-0.268513
-0.28303
-0.274985
-0.273886
-0.272699
-0.271675
-0.727728
-0.692122
-0.626885
-0.544602
-0.455033
-0.36211
-0.268242
-0.176531
-0.0910636
-0.0177417
0.0196272
-0.00353713
-0.121506
-0.221661
-0.283087
-0.286022
-0.279835
-0.27427
-0.271981
-0.271288
-0.758571
-0.723792
-0.659275
-0.578208
-0.490296
-0.399647
-0.308845
-0.221222
-0.141386
-0.074498
-0.041561
-0.082911
-0.181269
-0.256386
-0.279535
-0.294406
-0.282134
-0.270658
-0.268222
-0.267678
-0.785914
-0.752125
-0.68966
-0.610075
-0.524344
-0.436418
-0.349123
-0.265896
-0.191864
-0.132203
-0.100042
-0.168326
-0.250338
-0.256773
-0.282284
-0.296311
-0.307917
-0.309366
-0.30697
-0.304736
-0.807697
-0.77565
-0.715682
-0.638806
-0.555817
-0.47117
-0.38783
-0.309314
-0.241094
-0.189609
-0.160453
-0.252816
-0.355931
-0.31607
-0.289577
-0.373923
-0.435683
-0.452358
-0.442118
-0.434055
-0.821775
-0.792371
-0.735795
-0.662416
-0.583101
-0.50241
-0.423501
-0.349951
-0.287524
-0.244607
-0.2219
-0.336765
-0.53224
-0.694321
-0.650169
-0.60449
-0.587612
-0.578909
-0.565625
-0.561066
-0.825522
-0.800042
-0.747991
-0.679112
-0.604405
-0.52848
-0.454406
-0.386024
-0.329168
-0.294027
-0.276156
-0.411256
-0.660599
-1.06766
-1.07
-0.729267
-0.569715
-0.549258
-0.553775
-0.554794
-0.817153
-0.796352
-0.750177
-0.687267
-0.618153
-0.547656
-0.478717
-0.415399
-0.363589
-0.333908
-0.317274
-0.414832
-0.431194
-0.443537
-0.472934
-0.509581
-0.561912
-0.555147
-0.552104
-0.550476
-0.794281
-0.778302
-0.740636
-0.685648
-0.623223
-0.558647
-0.494785
-0.435759
-0.387763
-0.360688
-0.35767
-0.333305
-0.136313
0.276211
0.301175
-0.118763
-0.422381
-0.489732
-0.511492
-0.512316
-0.758982
-0.748382
-0.719807
-0.674343
-0.619451
-0.560931
-0.501616
-0.445296
-0.39899
-0.372064
-0.376821
-0.400815
-0.498017
-0.729293
-1.15762
-1.45549
-1.38213
-1.0605
-0.84786
-0.830168
-0.716924
-0.710837
-0.691915
-0.655774
-0.608515
-0.555115
-0.499069
-0.443528
-0.394112
-0.365051
-0.376894
-0.560497
-1.08106
-1.79485
-2.20804
-2.46057
-2.38989
-2.14027
-1.86129
-1.69313
-0.676326
-0.672856
-0.662443
-0.634968
-0.593432
-0.543373
-0.488184
-0.430146
-0.373527
-0.327253
-0.315081
-0.425157
-0.73329
-1.11902
-1.4254
-1.44726
-1.24661
-0.984308
-0.759606
-0.640543
-0.643998
-0.641876
-0.636613
-0.616695
-0.579206
-0.529404
-0.471829
-0.407088
-0.336906
-0.256513
-0.175996
-0.0671845
0.0571385
0.352742
0.724225
1.12826
1.48694
1.71991
1.83415
1.87497
-0.617034
-0.616167
-0.61482
-0.602981
-0.569147
-0.517589
-0.454636
-0.380892
-0.295965
-0.193039
-0.0632476
0.105089
0.428256
0.893891
1.4563
1.95965
2.33882
2.57803
2.6959
2.73034
-0.59944
-0.598968
-0.598852
-0.592729
-0.56313
-0.509097
-0.439709
-0.358346
-0.262281
-0.149947
-0.0168133
0.119548
0.363009
0.839614
1.39348
1.90401
2.28674
2.50823
2.60563
2.63177
-0.586133
-0.585617
-0.585444
-0.583946
-0.559702
-0.503757
-0.428236
-0.341428
-0.242584
-0.130144
-0.0111916
0.117006
0.272642
0.673561
1.14639
1.54931
1.84931
2.01888
2.09321
2.11315
-0.578551
-0.576883
-0.575876
-0.577008
-0.558296
-0.499775
-0.418246
-0.327189
-0.229565
-0.121127
-0.0121931
0.0995945
0.213207
0.475048
0.828525
1.12102
1.33826
1.46002
1.51252
1.52502
-0.582891
-0.582097
-0.584512
-0.586864
-0.563208
-0.493358
-0.404106
-0.310269
-0.214875
-0.113311
-0.0182433
0.0683193
0.146767
0.320013
0.556424
0.756397
0.904503
0.98767
1.02345
1.03107
-0.582041
-0.586575
-0.594624
-0.592544
-0.556195
-0.472844
-0.37825
-0.285947
-0.197713
-0.108913
-0.0324093
0.0312221
0.083889
0.203562
0.365838
0.49555
0.589085
0.640514
0.6618
0.665675
-0.520587
-0.527924
-0.537429
-0.532875
-0.49312
-0.415548
-0.331236
-0.250843
-0.176739
-0.10378
-0.0412646
0.00537525
0.0455761
0.120296
0.227864
0.312999
0.371155
0.401382
0.412998
0.414284
-0.371019
-0.376977
-0.38408
-0.381814
-0.355835
-0.309565
-0.256769
-0.201729
-0.146974
-0.0915296
-0.0446969
-0.0133534
0.0146024
0.0663516
0.133471
0.187657
0.223658
0.242457
0.250071
0.250068
-0.191991
-0.195386
-0.200949
-0.205211
-0.20216
-0.190378
-0.170636
-0.144522
-0.112846
-0.0763174
-0.0450351
-0.0243968
-0.00280344
0.0319134
0.0747148
0.10869
0.130526
0.141798
0.145986
0.145523
-0.0523679
-0.0540946
-0.0591752
-0.069711
-0.0831709
-0.0938441
-0.0974109
-0.092805
-0.0795082
-0.0587503
-0.037915
-0.021806
-0.00838726
0.0156174
0.0428822
0.0636241
0.0764191
0.0825214
0.0841883
0.0832684
0.0242143
0.0231743
0.0183835
0.00628102
-0.0124854
-0.0315882
-0.0459125
-0.0527997
-0.0512714
-0.0416274
-0.0286759
-0.0170731
-0.00728839
0.00879156
0.0262594
0.0383583
0.0456584
0.0489503
0.0496328
0.0485965
0.0541171
0.0533283
0.0493972
0.0389714
0.0220344
0.00327582
-0.0133033
-0.0250141
-0.0299822
-0.0274643
-0.019667
-0.00994368
-0.000903261
0.00912095
0.0185914
0.0253376
0.0294538
0.0313259
0.0315005
0.0304053
0.0586967
0.0581177
0.0552771
0.0476308
0.0347008
0.0193064
0.00440944
-0.00767751
-0.0152215
-0.0167297
-0.0124198
-0.00335996
0.00615083
0.0117692
0.0148899
0.0181514
0.0206492
0.0221132
0.022213
0.0210965
0.052354
0.0519337
0.0500141
0.0448775
0.0358984
0.0245454
0.0126227
0.00186816
-0.00624822
-0.0100768
-0.0083137
-0.00182545
0.00647797
0.00867966
0.00896204
0.0112705
0.0140225
0.0158831
0.0161413
0.0149704
0.0426988
0.0423837
0.0411253
0.0378588
0.0319647
0.0240487
0.0151006
0.006238
-0.00155438
-0.00713932
-0.00908133
-0.00704443
-0.00366934
-0.0043322
-0.00298409
0.00103512
0.00506749
0.00751963
0.00794784
0.00681221
0.0333368
0.0330861
0.0322648
0.0302689
0.0265656
0.0212579
0.0147481
0.00763267
0.000336091
-0.00671474
-0.0129962
-0.0181017
-0.0223957
-0.0244827
-0.0198627
-0.0131718
-0.00767452
-0.00481778
-0.00424811
-0.0052095
0.0257585
0.0255468
0.0249894
0.0237689
0.0214828
0.0179822
0.0133164
0.00768885
0.00106522
-0.00700614
-0.0173555
-0.0300747
-0.0415494
-0.042927
-0.034275
-0.0257011
-0.0201767
-0.0177891
-0.0174208
-0.0181306
0.0203487
0.0201695
0.0197649
0.0189822
0.01756
0.0152557
0.0119419
0.00757649
0.00195154
-0.00625435
-0.0190616
-0.0367843
-0.0528589
-0.0516656
-0.0405853
-0.0317561
-0.027199
-0.0255831
-0.0253305
-0.0257878
0.016832
0.0166886
0.0163931
0.015849
0.0149739
0.0134549
0.0111511
0.00799429
0.00364541
-0.0033453
-0.0148608
-0.0323526
-0.0473195
-0.0435203
-0.0329584
-0.0260108
-0.0231703
-0.0227014
-0.0226961
-0.0230341
0.0145883
0.0144733
0.0142489
0.01382
0.0132777
0.0123398
0.010978
0.00901618
0.00629782
0.0023827
-0.00466306
-0.0155737
-0.023772
-0.0185902
-0.0123243
-0.00949854
-0.00877852
-0.00873699
-0.00884053
-0.00920267
0.0130492
0.0129674
0.0128302
0.0125467
0.0121087
0.011736
0.0110059
0.0103297
0.00979875
0.00922494
0.0090073
0.00844202
0.00885908
0.0134445
0.0142191
0.0131772
0.0126183
0.0124785
0.0120941
0.0115958
0.0116508
0.0115843
0.0115168
0.0113354
0.0111368
0.0108436
0.0109428
0.011107
0.0121636
0.0155823
0.0229273
0.0329791
0.0415959
0.0437257
0.0400614
0.0359623
0.0346387
0.0344162
0.0336868
0.0330876
0.00997581
0.00994304
0.00998335
0.0100016
0.00992671
0.00986278
0.0102214
0.0112429
0.0136277
0.0195681
0.0323491
0.0524033
0.0701278
0.0677669
0.0582421
0.0525593
0.0515348
0.051588
0.0504896
0.0497182
0.00764143
0.00762746
0.00770721
0.00782613
0.00788943
0.0081132
0.00832933
0.00949818
0.0123992
0.0191495
0.0335341
0.0575101
0.077409
0.0738609
0.0620883
0.0567792
0.0572262
0.0576871
0.0562848
0.0553314
0.00450933
0.00445447
0.00452205
0.00471927
0.00478232
0.00479274
0.00511793
0.00601241
0.00809629
0.0136276
0.0240457
0.0447067
0.0605597
0.0546283
0.0464059
0.045365
0.0466617
0.0476188
0.04571
0.0444501
0.00111949
0.00102589
0.000877457
0.000626098
0.000499918
0.00052635
0.00053705
0.000748167
0.00135284
0.00244857
0.00393836
0.0071752
0.013141
0.0200362
0.0164652
0.0143987
0.0115096
0.00819538
0.00926249
0.00935249
-0.0616357
0.129522
0.33455
0.506047
0.643483
0.752488
0.843432
0.919564
0.950427
0.934218
0.27075
0.396496
0.527933
0.641579
0.737529
0.817229
0.881362
0.926229
0.949539
0.962296
0.494814
0.579961
0.669225
0.748777
0.817132
0.874233
0.919421
0.952663
0.977002
0.994813
0.657139
0.717412
0.780265
0.838251
0.888499
0.931055
0.965991
0.99418
1.017
1.03523
0.784124
0.827407
0.875081
0.918925
0.95801
0.992114
1.02132
1.0459
1.06589
1.08381
0.888988
0.922456
0.961385
0.997188
1.03
1.05949
1.08532
1.1072
1.12436
1.14194
0.9822
1.01132
1.04565
1.07808
1.1082
1.13556
1.15955
1.17951
1.1942
1.21164
1.07118
1.10075
1.13489
1.16719
1.19692
1.22364
1.24665
1.26516
1.27787
1.29533
1.16675
1.20042
1.23693
1.27073
1.30084
1.32705
1.34901
1.36614
1.37762
1.39542
1.28177
1.32039
1.35867
1.39292
1.42222
1.44692
1.46723
1.48296
1.4943
1.51265
1.42656
1.46607
1.50166
1.53209
1.55767
1.57974
1.59877
1.6143
1.62696
1.64509
1.60135
1.63341
1.65921
1.68157
1.70163
1.72038
1.73801
1.75457
1.77032
1.78851
1.78898
1.80654
1.82207
1.83867
1.85484
1.86939
1.88242
1.89639
1.91348
1.93316
1.97058
1.98155
1.99371
2.0045
2.01375
2.02331
2.0342
2.04579
2.05574
2.07092
2.18162
2.18363
2.16848
2.15324
2.14686
2.15253
2.17114
2.20155
2.23369
2.26444
2.48751
2.35046
2.27418
2.2321
2.21466
2.21869
2.24605
2.30219
2.40565
2.62093
0.779348
0.775971
0.770041
0.76023
0.747281
0.73485
0.724527
0.716562
0.710879
0.70756
0.707142
0.709835
0.714918
0.722141
0.73156
0.743235
0.756357
0.768342
0.775795
0.780512
0.697369
0.703253
0.710156
0.71539
0.718229
0.71789
0.714972
0.711029
0.707433
0.705102
0.704891
0.707037
0.710683
0.715008
0.718933
0.720918
0.719793
0.715692
0.709792
0.702746
0.689734
0.69208
0.695425
0.698325
0.700533
0.702321
0.703262
0.702981
0.701917
0.700971
0.701074
0.702439
0.704206
0.705446
0.705461
0.704268
0.702443
0.700088
0.696924
0.693957
0.684614
0.685701
0.687562
0.689935
0.691884
0.69326
0.694334
0.695162
0.695588
0.695778
0.696195
0.696908
0.697393
0.697313
0.696752
0.695851
0.694424
0.69235
0.690226
0.688808
0.679551
0.680206
0.68131
0.683021
0.684813
0.686411
0.687652
0.688642
0.689513
0.690267
0.690913
0.691346
0.691418
0.691155
0.690548
0.68948
0.688011
0.686415
0.685076
0.684289
0.674668
0.675123
0.675902
0.677188
0.678668
0.680181
0.681618
0.682863
0.683937
0.684919
0.685728
0.686171
0.686211
0.685862
0.685104
0.684047
0.682864
0.681694
0.680763
0.680238
0.669927
0.670268
0.670873
0.67193
0.673204
0.674559
0.675975
0.677378
0.678678
0.679855
0.680832
0.681384
0.681441
0.68106
0.680364
0.679507
0.678597
0.677689
0.676993
0.676608
0.665291
0.665555
0.666043
0.666942
0.668093
0.669363
0.670724
0.672166
0.673632
0.675036
0.676224
0.676919
0.677059
0.676797
0.676285
0.67563
0.674907
0.67421
0.673688
0.673394
0.660686
0.660896
0.661301
0.66209
0.663162
0.664383
0.665727
0.667202
0.668786
0.670407
0.671848
0.672758
0.673094
0.673036
0.672727
0.672264
0.671722
0.671199
0.67081
0.670579
0.656034
0.656202
0.656549
0.657266
0.658292
0.659489
0.660853
0.662396
0.66411
0.665955
0.667693
0.668908
0.669523
0.669715
0.669621
0.669352
0.66899
0.668619
0.668339
0.668155
0.651256
0.651391
0.651696
0.65237
0.65338
0.654599
0.656023
0.657677
0.659573
0.661684
0.663788
0.665392
0.666341
0.666816
0.66696
0.666891
0.666702
0.666472
0.666282
0.666134
0.646276
0.646384
0.64666
0.647316
0.648345
0.649631
0.651162
0.652985
0.655135
0.657598
0.660156
0.662225
0.663562
0.664349
0.664754
0.664898
0.664879
0.664783
0.664669
0.664551
0.641014
0.641098
0.641357
0.64202
0.643106
0.6445
0.646189
0.648246
0.650734
0.65366
0.656788
0.659404
0.661189
0.662338
0.663033
0.663412
0.663572
0.663603
0.663557
0.663463
0.635381
0.635443
0.635693
0.636383
0.637559
0.639105
0.641007
0.643363
0.646261
0.649748
0.653574
0.656871
0.659211
0.660801
0.661839
0.662488
0.662844
0.663008
0.663027
0.662953
0.629268
0.629308
0.629555
0.630291
0.631595
0.633345
0.635531
0.638275
0.6417
0.64589
0.65057
0.654696
0.657703
0.659814
0.661242
0.662188
0.662784
0.66309
0.663173
0.663119
0.622555
0.622568
0.622815
0.62362
0.62509
0.627104
0.629654
0.632905
0.637007
0.642075
0.647807
0.652942
0.656743
0.659465
0.661355
0.662647
0.663511
0.663975
0.664126
0.664088
0.615035
0.615039
0.615301
0.61619
0.617872
0.620206
0.623224
0.627107
0.632061
0.638245
0.645276
0.651602
0.656347
0.659807
0.66227
0.663998
0.665167
0.665804
0.666026
0.666003
0.606458
0.606428
0.606732
0.607748
0.609687
0.612437
0.61604
0.62071
0.6267
0.63421
0.642821
0.650653
0.656568
0.660918
0.664073
0.666346
0.667888
0.668736
0.669038
0.669029
0.596539
0.596484
0.596829
0.598015
0.60029
0.603579
0.60794
0.613642
0.621
0.630237
0.640788
0.650355
0.65761
0.663001
0.666971
0.669876
0.671864
0.672958
0.673346
0.673349
0.584804
0.584723
0.585139
0.586552
0.589255
0.593235
0.598567
0.605573
0.614618
0.625949
0.638858
0.650556
0.659449
0.666102
0.671053
0.674717
0.677248
0.678633
0.679114
0.67912
0.57056
0.570455
0.570991
0.572721
0.576007
0.580926
0.587571
0.596318
0.607573
0.62155
0.637311
0.651484
0.662248
0.670344
0.676446
0.681003
0.684164
0.685873
0.686445
0.686447
0.55281
0.552684
0.553419
0.555637
0.559786
0.566053
0.574531
0.585632
0.599752
0.617022
0.636182
0.653231
0.666126
0.675871
0.683279
0.688821
0.692679
0.694726
0.69538
0.69537
0.530088
0.529953
0.531028
0.534026
0.539511
0.547797
0.558902
0.573225
0.591064
0.612379
0.635545
0.655865
0.671157
0.682714
0.691555
0.698216
0.702813
0.70519
0.705907
0.705875
0.500055
0.499951
0.501647
0.506029
0.513801
0.525287
0.540296
0.559089
0.58173
0.607957
0.635713
0.659631
0.677501
0.691012
0.701376
0.709226
0.714551
0.717207
0.717956
0.717895
0.45861
0.458683
0.46176
0.469027
0.481034
0.497768
0.518573
0.543391
0.572021
0.603986
0.636849
0.664635
0.685214
0.700758
0.712744
0.721826
0.727806
0.730638
0.731365
0.731266
0.398071
0.399288
0.406828
0.420567
0.440324
0.465389
0.494345
0.526837
0.562562
0.600951
0.639259
0.671025
0.694353
0.711944
0.725525
0.735758
0.742304
0.745155
0.74575
0.745612
0.325541
0.327702
0.342201
0.365947
0.396504
0.43137
0.469228
0.509955
0.553357
0.598932
0.643691
0.680558
0.707656
0.728188
0.743978
0.755762
0.76311
0.766163
0.766854
0.76684
0.250909
0.257447
0.278967
0.31283
0.353671
0.398107
0.444872
0.493894
0.545074
0.597976
0.649413
0.691618
0.722645
0.746288
0.764693
0.778278
0.786319
0.78912
0.789658
0.789744
0.190233
0.198798
0.224933
0.265846
0.314614
0.367153
0.421929
0.478717
0.537319
0.597274
0.655091
0.702294
0.73695
0.763346
0.78377
0.798626
0.807031
0.810266
0.811307
0.811468
0.140672
0.149839
0.179485
0.225534
0.280359
0.339404
0.400909
0.464524
0.529883
0.596397
0.660196
0.712042
0.749968
0.778771
0.80094
0.816925
0.826235
0.83016
0.831412
0.831599
0.0989994
0.108416
0.140449
0.190439
0.250205
0.314645
0.381838
0.451384
0.522775
0.595284
0.6646
0.720707
0.761578
0.792444
0.816027
0.832951
0.843081
0.847496
0.848923
0.849112
0.0627806
0.072296
0.106112
0.159262
0.223122
0.292158
0.364312
0.439097
0.515912
0.59389
0.668302
0.728318
0.771815
0.804374
0.828948
0.846507
0.857291
0.862143
0.863725
0.863948
0.0304193
0.039967
0.0751344
0.130999
0.198292
0.271282
0.347825
0.42732
0.509086
0.592134
0.671317
0.734971
0.7808
0.814773
0.840129
0.858245
0.869456
0.874669
0.876345
0.876583
0.000724286
0.010316
0.0465748
0.104779
0.175024
0.251511
0.331953
0.415722
0.502067
0.58989
0.673616
0.740717
0.78869
0.823898
0.849913
0.868409
0.879877
0.885358
0.887099
0.887333
-0.0270835
-0.0174448
0.0198391
0.0799709
0.152853
0.232455
0.316392
0.40406
0.494665
0.587024
0.67515
0.745607
0.795642
0.832005
0.85863
0.877425
0.889044
0.89465
0.896399
0.896648
-0.0535022
-0.0437881
-0.00559927
0.0562156
0.131468
0.213832
0.300926
0.392161
0.486737
0.583427
0.675861
0.749667
0.801787
0.839336
0.866595
0.885718
0.897482
0.903116
0.904853
0.904985
-0.0789634
-0.0690902
-0.0300809
0.0332564
0.110631
0.195459
0.285401
0.379904
0.478187
0.579007
0.675687
0.752913
0.807229
0.846073
0.87403
0.893483
0.905367
0.910957
0.912634
0.912764
-0.103686
-0.0935837
-0.0538772
0.0109419
0.0901884
0.177208
0.26973
0.367221
0.468942
0.5737
0.674577
0.755349
0.812045
0.85234
0.881093
0.900906
0.912882
0.918411
0.919982
0.920079
-0.127749
-0.117441
-0.0769748
-0.0108284
0.0700541
0.159031
0.25387
0.354076
0.458973
0.56745
0.672475
0.756953
0.816274
0.858229
0.887897
0.908094
0.920098
0.925477
0.926909
0.926943
-0.151292
-0.140693
-0.09949
-0.0321347
0.0501973
0.140914
0.237819
0.340474
0.448278
0.560243
0.66932
0.757663
0.819911
0.863806
0.894536
0.91511
0.927059
0.932206
0.933433
0.933389
-0.174293
-0.163407
-0.121485
-0.0530127
0.0306242
0.122877
0.221616
0.326456
0.436883
0.552066
0.665056
0.757385
0.822901
0.869108
0.901113
0.922049
0.933768
0.938523
0.939512
0.939405
-0.196808
-0.185595
-0.142905
-0.0734347
0.011359
0.104956
0.205309
0.312085
0.424843
0.542942
0.659643
0.756024
0.825138
0.874128
0.907764
0.929073
0.940304
0.944433
0.945114
0.944946
-0.218645
-0.207185
-0.163738
-0.0933587
-0.00754699
0.0872258
0.188969
0.297435
0.412236
0.532932
0.653063
0.753481
0.826479
0.878782
0.914629
0.936512
0.94692
0.949974
0.950192
0.94997
-0.239946
-0.22813
-0.183971
-0.112766
-0.0260588
0.069731
0.17269
0.282589
0.39915
0.522124
0.645331
0.749655
0.82673
0.882865
0.921738
0.944857
0.954286
0.955509
0.954768
0.954456
-0.260552
-0.248408
-0.203576
-0.131607
-0.0440977
0.0525581
0.156557
0.267672
0.3857
0.510589
0.636497
0.744458
0.825686
0.886042
0.928829
0.954514
0.963718
0.962494
0.959471
0.958277
-0.280516
-0.268061
-0.222501
-0.14983
-0.0616266
0.0357767
0.140656
0.252764
0.372
0.498472
0.626644
0.737816
0.823145
0.887865
0.935178
0.965144
0.976516
0.974368
0.967384
0.957632
-0.299759
-0.28706
-0.24083
-0.167598
-0.0788649
0.0190991
0.124639
0.237451
0.357583
0.485246
0.615217
0.729108
0.818551
0.887798
0.939749
0.975412
0.99242
0.992319
0.98208
0.976048
-0.318233
-0.305393
-0.258564
-0.184866