/*--------------------------------*- C++ -*----------------------------------*\
| =========                 |                                                 |
| \\      /  F ield         | OpenFOAM: The Open Source CFD Toolbox           |
|  \\    /   O peration     | Version:  2306                                  |
|   \\  /    A nd           | Website:  www.openfoam.com                      |
|    \\/     M anipulation  |                                                 |
\*---------------------------------------------------------------------------*/
FoamFile
{
    version     2.0;
    format      ascii;
    arch        "LSB;label=32;scalar=64";
    class       volVectorField;
    location    "40";
    object      U;
}
// * * * * * * * * * * * * * * * * * * * * * * * * * * * * * * * * * * * * * //

dimensions      [0 1 -1 0 0 0 0];

internalField   nonuniform List<vector> 
8800
(
(0.984962 -0.0884525 0)
(1.00213 -0.056824 0)
(0.999672 -0.0305572 0)
(1.00001 -0.0158621 0)
(1.00006 -0.008717 0)
(1.00006 -0.00507912 0)
(1.00004 -0.00300098 0)
(1.00001 -0.00170347 0)
(0.999992 -0.000804081 0)
(1.00006 -0.000103973 0)
(0.999988 0.000603126 0)
(0.999999 0.00135724 0)
(1.00001 0.00238884 0)
(1.00002 0.00399592 0)
(1.00003 0.00671089 0)
(0.999995 0.0117366 0)
(0.999835 0.0220505 0)
(0.999169 0.0411686 0)
(1.00747 0.0768956 0)
(0.773651 0.0450709 0)
(0.360994 -0.0151724 0)
(1.04556 -0.0742077 0)
(1.08711 -0.0679005 0)
(1.04777 -0.0523129 0)
(1.02458 -0.038409 0)
(1.01237 -0.0261295 0)
(1.00647 -0.0167928 0)
(1.0036 -0.0102951 0)
(1.00218 -0.00565735 0)
(1.00152 -0.00205533 0)
(1.00139 0.00117165 0)
(1.00174 0.00449277 0)
(1.0027 0.00840308 0)
(1.0047 0.0137527 0)
(1.00879 0.021495 0)
(1.01733 0.0323214 0)
(1.03444 0.0456633 0)
(1.06548 0.0597759 0)
(1.09409 0.0729288 0)
(0.842231 0.0557107 0)
(0.217044 -0.00164728 0)
(1.07584 -0.0503735 0)
(1.09984 -0.0487448 0)
(1.06464 -0.0401999 0)
(1.03994 -0.033039 0)
(1.02374 -0.0257473 0)
(1.01397 -0.0183842 0)
(1.00849 -0.0116714 0)
(1.00564 -0.00587591 0)
(1.00448 -0.000564173 0)
(1.0048 0.00457016 0)
(1.00665 0.00989851 0)
(1.01056 0.0159538 0)
(1.01785 0.0228806 0)
(1.0305 0.0301596 0)
(1.05065 0.037169 0)
(1.08037 0.0445129 0)
(1.10621 0.0517375 0)
(0.942879 0.0413182 0)
(0.21651 0.001666 0)
(0.175848 -0.000646611 0)
(1.01861 -0.0354402 0)
(1.10556 -0.0414661 0)
(1.07809 -0.0363108 0)
(1.0528 -0.030291 0)
(1.03551 -0.0245775 0)
(1.02351 -0.0188749 0)
(1.0156 -0.0128722 0)
(1.01096 -0.00675233 0)
(1.00892 -0.00049371 0)
(1.00946 0.00569008 0)
(1.01258 0.0116469 0)
(1.0186 0.0174668 0)
(1.02833 0.0230591 0)
(1.04268 0.0285099 0)
(1.0634 0.0341865 0)
(1.09381 0.040164 0)
(1.09419 0.0418124 0)
(0.828958 0.0227597 0)
(0.174941 0.000666075 0)
(0.15427 -0.000488693 0)
(0.95716 -0.0255932 0)
(1.10403 -0.0351587 0)
(1.08789 -0.0327331 0)
(1.06133 -0.0281946 0)
(1.04342 -0.0232221 0)
(1.03102 -0.0179937 0)
(1.02235 -0.0125121 0)
(1.01674 -0.00663081 0)
(1.01407 -0.000185883 0)
(1.01474 0.00627741 0)
(1.0186 0.0121573 0)
(1.02547 0.0174654 0)
(1.03568 0.022456 0)
(1.05038 0.027303 0)
(1.07208 0.0318073 0)
(1.10077 0.0357051 0)
(1.06927 0.0338795 0)
(0.741522 0.0143277 0)
(0.15291 0.000510336 0)
(0.139708 -0.000360166 0)
(0.900081 -0.0192561 0)
(1.09631 -0.0302324 0)
(1.09595 -0.0293775 0)
(1.06891 -0.0256465 0)
(1.05019 -0.0215799 0)
(1.03727 -0.0169029 0)
(1.02828 -0.0116957 0)
(1.02231 -0.00602576 0)
(1.01932 0.000289796 0)
(1.01998 0.00663742 0)
(1.02405 0.0122691 0)
(1.03112 0.0172432 0)
(1.04163 0.0217498 0)
(1.05696 0.0257551 0)
(1.07958 0.0292773 0)
(1.10311 0.0319779 0)
(1.0375 0.0279884 0)
(0.675093 0.0101993 0)
(0.137796 0.000385494 0)
(0.129021 -0.000275844 0)
(0.85019 -0.0148867 0)
(1.08382 -0.0261428 0)
(1.10155 -0.0265076 0)
(1.07567 -0.0232325 0)
(1.05643 -0.0196361 0)
(1.04307 -0.0154918 0)
(1.03373 -0.0106686 0)
(1.02752 -0.00522272 0)
(1.02434 0.000883001 0)
(1.0249 0.00698707 0)
(1.02897 0.012332 0)
(1.03618 0.016906 0)
(1.047 0.0208183 0)
(1.06273 0.0241913 0)
(1.0858 0.0272362 0)
(1.1024 0.0290728 0)
(1.00296 0.0234136 0)
(0.623478 0.00780142 0)
(0.126437 0.000306295 0)
(0.120855 -0.000213449 0)
(0.807687 -0.0117181 0)
(1.06837 -0.0225555 0)
(1.10495 -0.0239061 0)
(1.08181 -0.0210828 0)
(1.06213 -0.0177208 0)
(1.04851 -0.0138813 0)
(1.0389 -0.00940918 0)
(1.03243 -0.00426183 0)
(1.02904 0.00159312 0)
(1.02946 0.00741862 0)
(1.03351 0.0124005 0)
(1.04081 0.0165108 0)
(1.05175 0.0199436 0)
(1.06774 0.0229171 0)
(1.09118 0.0256671 0)
(1.09884 0.0266137 0)
(0.968174 0.0197884 0)
(0.582195 0.00622808 0)
(0.117456 0.000250204 0)
(0.114514 -0.000165582 0)
(0.771844 -0.00934314 0)
(1.05137 -0.0193921 0)
(1.10717 -0.0214944 0)
(1.08755 -0.019061 0)
(1.06746 -0.0158666 0)
(1.05359 -0.0122103 0)
(1.0438 -0.00797221 0)
(1.03711 -0.00310088 0)
(1.03349 0.00245458 0)
(1.03374 0.00793815 0)
(1.0377 0.0125162 0)
(1.04496 0.0162075 0)
(1.05594 0.0192663 0)
(1.07218 0.0219216 0)
(1.09534 0.0243518 0)
(1.09257 0.0245186 0)
(0.934495 0.0169486 0)
(0.548274 0.00513649 0)
(0.110123 0.000210164 0)
(0.109556 -0.000127591 0)
(0.741745 -0.00749546 0)
(1.03389 -0.0165762 0)
(1.1084 -0.019221 0)
(1.09295 -0.017129 0)
(1.07257 -0.0140576 0)
(1.05844 -0.0105165 0)
(1.04847 -0.00642729 0)
(1.04158 -0.00176814 0)
(1.0377 0.00349259 0)
(1.03772 0.00861526 0)
(1.04151 0.012804 0)
(1.04866 0.0161355 0)
(1.05966 0.0188614 0)
(1.07613 0.021214 0)
(1.09827 0.023287 0)
(1.08398 0.0227255 0)
(0.902558 0.0147365 0)
(0.519707 0.0043568 0)
(0.10396 0.000181807 0)
(0.105695 -9.61355e-05 0)
(0.716596 -0.00599957 0)
(1.01678 -0.014034 0)
(1.10874 -0.0170016 0)
(1.0982 -0.015215 0)
(1.07756 -0.0121843 0)
(1.06314 -0.00871258 0)
(1.05296 -0.00474227 0)
(1.04586 -0.00025268 0)
(1.04171 0.0047415 0)
(1.04143 0.00951297 0)
(1.04497 0.0133235 0)
(1.05197 0.0162835 0)
(1.06296 0.0186667 0)
(1.07964 0.0207397 0)
(1.09991 0.0224495 0)
(1.07351 0.0212083 0)
(0.872564 0.0130308 0)
(0.495089 0.00379589 0)
(0.0986335 0.000162231 0)
(0.102745 -6.88112e-05 0)
(0.695777 -0.00473534 0)
(1.00068 -0.0116939 0)
(1.10837 -0.0148031 0)
(1.10323 -0.0132491 0)
(1.08248 -0.0102254 0)
(1.06774 -0.00678208 0)
(1.05731 -0.00287492 0)
(1.04993 0.00148926 0)
(1.04545 0.00624656 0)
(1.04479 0.0106754 0)
(1.04804 0.0141159 0)
(1.05485 0.0167198 0)
(1.06584 0.0187698 0)
(1.0827 0.0205527 0)
(1.10062 0.0218632 0)
(1.06152 0.0199738 0)
(0.844446 0.0117352 0)
(0.473395 0.00339738 0)
(0.0938939 0.000149883 0)
(0.100586 -4.35265e-05 0)
(0.678853 -0.00361416 0)
(0.986056 -0.00947944 0)
(1.10745 -0.0125272 0)
(1.10799 -0.0111427 0)
(1.08739 -0.00812357 0)
(1.0723 -0.00465859 0)
(1.06157 -0.000763624 0)
(1.05385 0.0035084 0)
(1.04893 0.00806824 0)
(1.04783 0.0121811 0)
(1.05072 0.0152359 0)
(1.05732 0.0174578 0)
(1.0683 0.0191705 0)
(1.08527 0.0206477 0)
(1.1003 0.0215495 0)
(1.04825 0.0190036 0)
(0.818 0.0107712 0)
(0.453849 0.00312154 0)
(0.0895533 0.000143095 0)
(0.0991625 -1.85757e-05 0)
(0.665557 -0.0025648 0)
(0.973312 -0.00731294 0)
(1.10632 -0.0101102 0)
(1.11258 -0.00880664 0)
(1.09235 -0.00575092 0)
(1.0769 -0.0022178 0)
(1.0658 0.00170211 0)
(1.05764 0.00591583 0)
(1.05219 0.0102919 0)
(1.05055 0.0140679 0)
(1.05301 0.0167161 0)
(1.05936 0.0185142 0)
(1.07029 0.0198392 0)
(1.08731 0.0210018 0)
(1.09894 0.0214843 0)
(1.03389 0.018274 0)
(0.792963 0.0100753 0)
(0.435858 0.00294075 0)
(0.0854637 0.000140602 0)
(0.0984587 8.29377e-06 0)
(0.655759 -0.00152863 0)
(0.962789 -0.00512236 0)
(1.10532 -0.00750141 0)
(1.11715 -0.006198 0)
(1.09744 -0.00308338 0)
(1.08159 0.00055908 0)
(1.07008 0.00456094 0)
(1.06143 0.00877894 0)
(1.05534 0.0130033 0)
(1.05302 0.0164417 0)
(1.05493 0.0186614 0)
(1.06093 0.0200229 0)
(1.07178 0.0209165 0)
(1.0888 0.0217028 0)
(1.09644 0.0216895 0)
(1.01857 0.0178214 0)
(0.769031 0.00962175 0)
(0.418931 0.00284484 0)
(0.0815017 0.000142705 0)
(0.0984924 2.98101e-05 0)
(0.649462 -0.000461306 0)
(0.954817 -0.0028361 0)
(1.10475 -0.0046149 0)
(1.1218 -0.00323335 0)
(1.10271 -3.42826e-05 0)
(1.08643 0.00378441 0)
(1.07441 0.00793732 0)
(1.06513 0.012212 0)
(1.05825 0.0163135 0)
(1.0551 0.0194128 0)
(1.05636 0.0211597 0)
(1.06194 0.0220184 0)
(1.07267 0.0224179 0)
(1.0895 0.0227659 0)
(1.09261 0.0222124 0)
(1.00229 0.0176227 0)
(0.74589 0.00938351 0)
(0.402652 0.00282262 0)
(0.0775571 0.000148184 0)
(0.099341 7.32492e-05 0)
(0.646805 0.000662654 0)
(0.94973 -0.000387462 0)
(1.10499 -0.00137609 0)
(1.1267 0.000227025 0)
(1.10825 0.0035946 0)
(1.09149 0.00765562 0)
(1.07885 0.0119916 0)
(1.06877 0.0163551 0)
(1.0609 0.0203633 0)
(1.05675 0.023106 0)
(1.05721 0.0243229 0)
(1.06231 0.0245865 0)
(1.07287 0.0244354 0)
(1.08916 0.0242859 0)
(1.08736 0.0230596 0)
(0.985033 0.0177373 0)
(0.723164 0.00937178 0)
(0.386606 0.00287785 0)
(0.0735239 0.000157775 0)
(0.101154 0.000104617 0)
(0.648066 0.00185611 0)
(0.947867 0.00227042 0)
(1.10651 0.00226908 0)
(1.13212 0.00420556 0)
(1.11419 0.00786213 0)
(1.09688 0.0122378 0)
(1.08353 0.0168631 0)
(1.07253 0.0214105 0)
(1.06347 0.0253293 0)
(1.05809 0.0276495 0)
(1.05756 0.0282884 0)
(1.06197 0.0279148 0)
(1.07229 0.0271547 0)
(1.08777 0.0263605 0)
(1.08057 0.0243436 0)
(0.966658 0.0181959 0)
(0.700451 0.00958837 0)
(0.370397 0.00300772 0)
(0.0692984 0.000170863 0)
(0.10404 0.000154841 0)
(0.653798 0.00332755 0)
(0.949743 0.00525744 0)
(1.10973 0.00642012 0)
(1.13819 0.0088108 0)
(1.12066 0.0128658 0)
(1.10273 0.0176843 0)
(1.0885 0.0227166 0)
(1.07633 0.027517 0)
(1.0658 0.0314026 0)
(1.05888 0.033303 0)
(1.05717 0.0332698 0)
(1.0608 0.0321582 0)
(1.07074 0.0307179 0)
(1.08505 0.0291599 0)
(1.07197 0.0261722 0)
(0.946923 0.0190844 0)
(0.677265 0.0100719 0)
(0.353597 0.00321761 0)
(0.0647835 0.000186371 0)
(0.108291 0.000223201 0)
(0.664346 0.00504605 0)
(0.955648 0.00869863 0)
(1.11509 0.0112606 0)
(1.14512 0.0143083 0)
(1.12783 0.0189596 0)
(1.10918 0.0243734 0)
(1.09382 0.0299242 0)
(1.08015 0.0350293 0)
(1.06778 0.0388424 0)
(1.05906 0.0401998 0)
(1.05598 0.0393883 0)
(1.05862 0.0374362 0)
(1.06805 0.0352066 0)
(1.08077 0.0328352 0)
(1.0613 0.0286974 0)
(0.925492 0.0205507 0)
(0.652971 0.0108847 0)
(0.335688 0.00352186 0)
(0.0598859 0.000203453 0)
(0.114236 0.000313302 0)
(0.680346 0.0071191 0)
(0.96641 0.0128106 0)
(1.12322 0.0169107 0)
(1.15344 0.0208578 0)
(1.13607 0.0263614 0)
(1.11648 0.0325274 0)
(1.09973 0.0387121 0)
(1.08426 0.0442042 0)
(1.06969 0.0479428 0)
(1.05875 0.0486744 0)
(1.05395 0.0469401 0)
(1.0554 0.0440333 0)
(1.06418 0.0408869 0)
(1.07492 0.0376479 0)
(1.04828 0.0321885 0)
(0.901837 0.0227596 0)
(0.626732 0.0121221 0)
(0.316008 0.00394053 0)
(0.0544979 0.000222563 0)
(0.122311 0.000436431 0)
(0.702509 0.0097513 0)
(0.982545 0.0177689 0)
(1.13469 0.0236221 0)
(1.16362 0.0287167 0)
(1.14561 0.0353949 0)
(1.12471 0.0425579 0)
(1.10614 0.049571 0)
(1.08832 0.0555054 0)
(1.071 0.059065 0)
(1.05749 0.0589725 0)
(1.05074 0.0561339 0)
(1.05088 0.052123 0)
(1.05892 0.0480166 0)
(1.06731 0.0438155 0)
(1.03254 0.036852 0)
(0.875279 0.0258747 0)
(0.597469 0.0138412 0)
(0.293776 0.00447936 0)
(0.048492 0.000244672 0)
(0.133217 0.000616775 0)
(0.731923 0.0133239 0)
(1.00502 0.0240657 0)
(1.15018 0.0319984 0)
(1.17626 0.0385565 0)
(1.15694 0.0468206 0)
(1.13428 0.0552424 0)
(1.1133 0.0631825 0)
(1.09254 0.0694524 0)
(1.07192 0.0725836 0)
(1.05541 0.0713764 0)
(1.04638 0.067179 0)
(1.04501 0.0619481 0)
(1.0522 0.056735 0)
(1.05772 0.0514519 0)
(1.01366 0.0428321 0)
(0.844974 0.0299582 0)
(0.563965 0.0159982 0)
(0.26827 0.00510669 0)
(0.0417659 0.000267768 0)
(0.148144 0.000901508 0)
(0.77041 0.0184673 0)
(1.03535 0.0325033 0)
(1.17066 0.0430165 0)
(1.19223 0.0517282 0)
(1.17046 0.0618256 0)
(1.14521 0.0716456 0)
(1.12094 0.080375 0)
(1.09647 0.0866484 0)
(1.07196 0.0889151 0)
(1.05205 0.0861561 0)
(1.04058 0.0802797 0)
(1.03761 0.0735892 0)
(1.04378 0.0671235 0)
(1.04575 0.0606627 0)
(0.991075 0.0502349 0)
(0.809795 0.0349615 0)
(0.525058 0.0184747 0)
(0.239013 0.00576341 0)
(0.0342911 0.000288424 0)
(0.169217 0.00139593 0)
(0.821079 0.0263827 0)
(1.07637 0.0447749 0)
(1.19728 0.0585706 0)
(1.21217 0.0700982 0)
(1.18633 0.0820147 0)
(1.15725 0.093036 0)
(1.12869 0.102063 0)
(1.09973 0.10773 0)
(1.07078 0.108445 0)
(1.04718 0.103575 0)
(1.03316 0.0956595 0)
(1.02855 0.0872544 0)
(1.0334 0.0794593 0)
(1.03098 0.0716018 0)
(0.963803 0.05898 0)
(0.768486 0.0406719 0)
(0.480001 0.0210902 0)
(0.206045 0.00636418 0)
(0.0261934 0.000299154 0)
(0.199818 0.00250279 0)
(0.889642 0.0398627 0)
(1.13081 0.0646946 0)
(1.23034 0.0820772 0)
(1.23592 0.0964212 0)
(1.20394 0.109577 0)
(1.16964 0.120873 0)
(1.13581 0.12918 0)
(1.1017 0.133234 0)
(1.06792 0.131517 0)
(1.04047 0.123913 0)
(1.02385 0.113607 0)
(1.01763 0.103241 0)
(1.02096 0.0939133 0)
(1.0128 0.0843249 0)
(0.930538 0.0687768 0)
(0.719941 0.0467648 0)
(0.429046 0.0236787 0)
(0.170475 0.0068682 0)
(0.017907 0.000291976 0)
(0.241579 0.00873087 1.01321e-19)
(0.980098 0.0669721 9.03111e-20)
(1.19637 0.0986569 -3.15429e-20)
(1.26705 0.11735 0)
(1.26064 0.134361 -7.93928e-34)
(1.22122 0.146921 1.15716e-20)
(1.18095 0.156796 -2.05989e-20)
(1.14128 0.163076 0)
(1.10157 0.16451 4.17064e-34)
(1.06254 0.159648 -2.49325e-20)
(1.03088 0.148861 0)
(1.01131 0.135997 -2.92964e-20)
(1.00315 0.123734 -8.61621e-20)
(1.00456 0.112948 -4.06122e-20)
(0.989124 0.101577 -1.21702e-20)
(0.887339 0.0824788 -7.21478e-21)
(0.658747 0.0548879 0)
(0.369512 0.0271236 5.04098e-21)
(0.133153 0.00812522 5.93347e-21)
(0.010083 0.000476614 1.05151e-19)
(0.270311 0.0240511 7.77309e-20)
(1.05452 0.109579 1.02135e-21)
(1.24971 0.147323 8.56111e-21)
(1.30039 0.166113 0)
(1.28234 0.182704 -4.08811e-20)
(1.23608 0.193239 -4.61822e-20)
(1.18985 0.201013 -2.09605e-20)
(1.14416 0.205013 -7.38872e-20)
(1.09844 0.203801 0)
(1.05339 0.195772 1.06778e-19)
(1.01646 0.181644 1.05426e-19)
(0.992973 0.165971 3.12595e-20)
(0.981886 0.151552 1.13365e-19)
(0.978707 0.138795 1.58612e-19)
(0.953061 0.124744 0)
(0.82918 0.100741 2.22768e-19)
(0.587135 0.0656166 3.19261e-19)
(0.309206 0.0321402 3.53773e-19)
(0.0998326 0.00976127 -4.0307e-19)
(0.00353687 0.000377752 -7.45167e-21)
(0.271087 0.0398576 0)
(1.10122 0.165059 1.45864e-20)
(1.28572 0.207263 0)
(1.32631 0.225852 -5.5249e-20)
(1.29939 0.239078 0)
(1.24736 0.24601 -9.17853e-20)
(1.19554 0.250319 4.31029e-20)
(1.14407 0.250962 -1.49799e-19)
(1.09252 0.246277 -3.12912e-21)
(1.0416 0.23458 5.55622e-20)
(0.999456 0.217119 2.32241e-19)
(0.972121 0.198973 -6.01734e-22)
(0.958329 0.182977 -8.25249e-20)
(0.951478 0.168982 -1.50111e-19)
(0.916943 0.151798 1.77707e-19)
(0.785427 0.121493 -3.13657e-19)
(0.548371 0.0791724 -4.12864e-20)
(0.287368 0.0397961 0)
(0.0934082 0.0125923 7.7943e-24)
(0.002706 0.000408431 0)
(0.264565 0.0534982 2.04894e-19)
(1.12604 0.223747 -9.89477e-20)
(1.30819 0.272026 -7.36487e-20)
(1.34342 0.290708 2.6626e-20)
(1.31041 0.299966 -4.46797e-20)
(1.25405 0.302729 1.93106e-19)
(1.19755 0.302914 9.03762e-20)
(1.14104 0.29956 0)
(1.08424 0.290968 -2.80817e-19)
(1.02799 0.275545 0)
(0.9811 0.255238 -1.22396e-19)
(0.950132 0.235346 -1.50291e-19)
(0.933441 0.218072 -9.01222e-20)
(0.922422 0.201828 -1.09285e-19)
(0.881891 0.180329 0)
(0.752898 0.1447 0)
(0.531135 0.0971987 -2.70272e-19)
(0.288424 0.0518444 5.32899e-20)
(0.100345 0.0178634 -3.12268e-20)
(0.00486503 0.000910185 -3.59556e-20)
(0.257078 0.0655699 -9.41612e-20)
(1.13664 0.282251 0)
(1.32078 0.337724 1.57234e-19)
(1.35283 0.356871 7.65965e-20)
(1.31553 0.362365 1.02279e-19)
(1.25595 0.360912 0)
(1.19573 0.356854 8.92857e-20)
(1.13506 0.349355 1.66746e-19)
(1.07384 0.336792 1.44476e-19)
(1.01304 0.317797 2.62301e-19)
(0.962047 0.29484 0)
(0.927645 0.273109 -3.24736e-19)
(0.907305 0.253958 -1.95128e-19)
(0.891102 0.234788 -1.15128e-19)
(0.846925 0.209591 7.06374e-19)
(0.727206 0.170614 8.39096e-20)
(0.523904 0.118827 3.93858e-19)
(0.297076 0.0670123 -1.85315e-18)
(0.112685 0.0255311 1.10031e-18)
(0.00880532 0.00209476 -1.30603e-18)
(0.250049 0.0765016 -6.01477e-20)
(1.13822 0.338702 1.7829e-20)
(1.326 0.402434 -1.85071e-20)
(1.35616 0.42244 -8.25987e-20)
(1.31571 0.424431 -8.93223e-20)
(1.25362 0.418864 3.50112e-21)
(1.19042 0.410682 -9.66304e-20)
(1.12639 0.399162 1.73027e-19)
(1.06155 0.382789 -3.10936e-19)
(0.996977 0.360295 0)
(0.942405 0.334397 -1.47489e-19)
(0.904649 0.310127 -3.22228e-21)
(0.880262 0.288324 -2.13421e-19)
(0.859128 0.266318 0)
(0.813874 0.238678 -1.5302e-19)
(0.704675 0.198097 -3.63153e-19)
(0.519138 0.142328 9.69876e-19)
(0.306489 0.0841015 -9.49058e-19)
(0.124872 0.0345959 1.34953e-18)
(0.0127479 0.0036946 -1.38106e-18)
(0.244217 0.0866332 -8.08681e-22)
(1.13414 0.392445 -1.05239e-20)
(1.32588 0.465116 -5.85466e-20)
(1.35461 0.486286 3.52779e-20)
(1.3119 0.485072 -4.53028e-20)
(1.24783 0.475602 0)
(1.18224 0.463524 -9.11378e-20)
(1.11549 0.448235 -1.81401e-19)
(1.04766 0.42826 -1.619e-19)
(0.979844 0.402221 0)
(0.922041 0.372887 -1.53249e-19)
(0.881017 0.345439 -1.88993e-19)
(0.85279 0.320632 2.31331e-19)
(0.827848 0.296206 -1.4024e-19)
(0.7831 0.267029 -6.66942e-19)
(0.683783 0.225279 3.97771e-19)
(0.51326 0.166104 1.188e-19)
(0.313057 0.101466 0)
(0.134333 0.0440079 -1.30366e-18)
(0.0159558 0.00541602 -4.70688e-20)
(0.23964 0.0962834 -2.40095e-21)
(1.12662 0.443301 5.81426e-21)
(1.32173 0.525351 2.86787e-20)
(1.34934 0.547717 1.22506e-19)
(1.30492 0.543629 -1.70767e-19)
(1.23932 0.530576 1.90143e-19)
(1.17184 0.514914 1.95812e-19)
(1.10287 0.49616 -2.89655e-19)
(1.03248 0.472792 9.89025e-20)
(0.961713 0.44311 -6.44398e-19)
(0.900874 0.409967 -1.7278e-19)
(0.85683 0.37902 0)
(0.82537 0.351355 2.50496e-19)
(0.797731 0.325044 2.99432e-19)
(0.754 0.295038 3.58177e-19)
(0.66251 0.252035 -4.31524e-19)
(0.504771 0.18945 -1.27234e-19)
(0.314683 0.118343 1.49274e-19)
(0.13963 0.0528758 0)
(0.0181177 0.00702221 -1.0195e-19)
(0.236203 0.105597 -1.83951e-20)
(1.11723 0.491405 -2.20941e-21)
(1.31485 0.583439 -2.70922e-20)
(1.34124 0.606409 7.65537e-20)
(1.29549 0.599775 -7.901e-20)
(1.22873 0.583464 -8.07663e-21)
(1.15977 0.564602 -2.13117e-19)
(1.08894 0.542724 -1.04556e-19)
(1.01629 0.51615 -2.80596e-19)
(0.942718 0.482784 4.95849e-22)
(0.878978 0.445659 -5.40892e-19)
(0.832227 0.411171 4.53979e-19)
(0.798255 0.38087 -2.74358e-19)
(0.768949 0.352964 3.28994e-19)
(0.726422 0.322035 0)
(0.640548 0.277259 -2.33147e-19)
(0.492983 0.211221 -1.0907e-21)
(0.311322 0.133284 -6.48293e-19)
(0.140012 0.0601275 -9.47954e-20)
(0.0189287 0.00820835 0)
(0.233795 0.114718 0)
(1.10695 0.537042 4.83593e-21)
(1.30577 0.638522 -3.49985e-20)
(1.33099 0.662238 -7.2183e-20)
(1.28419 0.653347 -9.71251e-20)
(1.2166 0.634133 0)
(1.14649 0.612456 -9.82225e-20)
(1.07409 0.587789 -2.31212e-21)
(0.999329 0.558213 6.00314e-19)
(0.923044 0.521209 -8.85039e-20)
(0.85649 0.480102 -3.9001e-19)
(0.807338 0.442142 2.36237e-19)
(0.771452 0.409308 -4.16381e-21)
(0.741102 0.379758 3.4939e-19)
(0.699523 0.347351 2.15214e-19)
(0.617973 0.300128 -5.02888e-19)
(0.478189 0.230051 5.94868e-19)
(0.303125 0.145397 1.75326e-19)
(0.136631 0.0652159 7.1983e-19)
(0.0186372 0.00886837 -1.89836e-18)
(0.232358 0.123801 -1.95627e-20)
(1.09647 0.580367 1.84223e-20)
(1.29537 0.690691 -5.72861e-21)
(1.31912 0.715159 6.05542e-20)
(1.27153 0.704264 0)
(1.2034 0.682516 -8.98853e-20)
(1.13239 0.658406 3.27431e-19)
(1.0586 0.631265 2.28973e-19)
(0.981855 0.598901 0)
(0.902898 0.5584 -1.27015e-18)
(0.833585 0.513422 1.05234e-18)
(0.782251 0.472075 0)
(0.744843 0.436675 3.19153e-19)
(0.713783 0.405285 -4.09258e-21)
(0.672846 0.371001 -6.85838e-19)
(0.594259 0.320748 2.68415e-19)
(0.460276 0.245924 0)
(0.2907 0.154422 9.44391e-19)
(0.129632 0.0679786 0)
(0.0172991 0.00893063 -8.95817e-19)
(0.231717 0.132895 2.74417e-20)
(1.08625 0.621579 3.53468e-20)
(1.284 0.74 -2.71576e-21)
(1.30615 0.765198 0)
(1.25795 0.752533 -8.56029e-20)
(1.18951 0.728611 0)
(1.11778 0.702408 -3.25053e-19)
(1.04275 0.673087 -1.07329e-19)
(0.964102 0.63817 1.06026e-19)
(0.882509 0.594391 -6.27531e-19)
(0.810434 0.545712 1.08715e-19)
(0.757014 0.501024 0)
(0.71831 0.462939 -6.80695e-19)
(0.686702 0.429417 4.13224e-21)
(0.646131 0.392787 0)
(0.56946 0.338895 4.03056e-21)
(0.439417 0.258412 8.63751e-19)
(0.274436 0.159885 -8.15484e-19)
(0.11976 0.0685165 2.38904e-19)
(0.0152862 0.00855653 0)
(0.231563 0.141894 0)
(1.07665 0.660731 5.00498e-20)
(1.27202 0.786595 2.14926e-20)
(1.29247 0.812403 -4.76157e-21)
(1.24382 0.798195 -3.15767e-20)
(1.17522 0.772433 -2.00456e-19)
(1.10294 0.744443 1.20828e-19)
(1.02678 0.713209 -1.25391e-19)
(0.946296 0.675983 4.71136e-19)
(0.862081 0.629212 -1.0008e-18)
(0.787186 0.577044 -7.10187e-21)
(0.731658 0.529027 -2.99001e-19)
(0.69173 0.488071 1.10227e-18)
(0.659635 0.452075 -4.83331e-21)
(0.619169 0.41257 -5.3014e-19)
(0.543448 0.354291 -9.46782e-19)
(0.415939 0.267418 0)
(0.254968 0.161844 0)
(0.107617 0.0667851 2.58492e-19)
(0.0128498 0.00772066 -1.49047e-19)
(0.231998 0.15095 4.70694e-20)
(1.06762 0.697705 -1.22225e-19)
(1.25973 0.830563 -2.36605e-20)
(1.27843 0.856839 0)
(1.22941 0.841306 -3.13935e-21)
(1.16081 0.814005 -1.86708e-19)
(1.08809 0.784501 2.93794e-19)
(1.01089 0.7516 4.95716e-19)
(0.928638 0.712331 6.12028e-19)
(0.841815 0.662892 -8.16688e-19)
(0.764003 0.607491 -8.99718e-19)
(0.706223 0.556154 7.9869e-19)
(0.665005 0.512091 0)
(0.632388 0.473215 -2.40686e-19)
(0.591785 0.430276 -5.73087e-19)
(0.516256 0.366827 -6.79092e-19)
(0.390166 0.27273 -8.04959e-19)
(0.233041 0.160318 2.37317e-19)
(0.093813 0.0628198 -1.38968e-19)
(0.0100559 0.00646133 5.43999e-22)
(0.232609 0.159903 0)
(1.05932 0.733038 0)
(1.24741 0.872005 5.10973e-21)
(1.26428 0.898611 0)
(1.21498 0.881953 7.77511e-20)
(1.14646 0.853372 1.29285e-19)
(1.07341 0.822585 0)
(0.995261 0.788247 5.92057e-20)
(0.911315 0.747206 1.02018e-18)
(0.821905 0.695458 -1.87427e-18)
(0.741044 0.63713 0)
(0.680772 0.582517 -5.12753e-19)
(0.638058 0.535077 -5.85408e-21)
(0.604789 0.492844 -4.72407e-21)
(0.563845 0.445806 6.11479e-19)
(0.487908 0.376328 -7.15802e-22)
(0.362141 0.274257 -1.73099e-18)
(0.209063 0.155285 5.10146e-19)
(0.0793979 0.057134 1.50085e-19)
(0.00724255 0.00496133 0)
(0.233267 0.168721 -2.08574e-19)
(1.0515 0.766744 -9.53266e-20)
(1.23516 0.911008 -1.03797e-19)
(1.25023 0.93784 3.44911e-20)
(1.2007 0.920206 1.05953e-19)
(1.13235 0.890576 0)
(1.05905 0.858713 1.78288e-19)
(0.980032 0.823149 -1.31068e-19)
(0.894482 0.780615 7.7069e-21)
(0.802527 0.72694 1.37551e-19)
(0.71847 0.666039 1.16083e-18)
(0.65539 0.608258 -1.79735e-19)
(0.610823 0.557193 -6.76391e-19)
(0.576638 0.511002 -2.79588e-19)
(0.535165 0.458985 3.32367e-19)
(0.458491 0.382484 -3.55143e-22)
(0.332836 0.271875 4.66251e-19)
(0.184349 0.147204 -1.09642e-18)
(0.065073 0.0501878 1.29054e-18)
(0.0045632 0.00334804 1.85296e-19)
(0.233784 0.177278 8.23782e-20)
(1.04415 0.79891 -5.60011e-20)
(1.22314 0.947682 1.21721e-20)
(1.23642 0.974654 4.25557e-20)
(1.18672 0.956168 -9.08256e-21)
(1.1186 0.925669 -2.26296e-19)
(1.04511 0.892908 5.2692e-20)
(0.965326 0.856308 -5.45906e-19)
(0.878278 0.81255 -1.12108e-18)
(0.783829 0.757338 -1.11365e-18)
(0.696443 0.694282 0)
(0.630172 0.633531 -7.85999e-19)
(0.583262 0.578664 9.72278e-19)
(0.547683 0.527796 0)
(0.505441 0.469572 -7.10606e-19)
(0.428042 0.384769 4.24634e-19)
(0.302923 0.265261 -5.00443e-19)
(0.160128 0.136433 -5.89736e-19)
(0.0517433 0.0425425 -1.03875e-18)
(0.00218954 0.00176267 -7.97727e-19)
(0.234622 0.185692 -9.58377e-20)
(1.03709 0.82951 5.99056e-20)
(1.2114 0.982111 1.32042e-19)
(1.22296 1.00914 7.45857e-20)
(1.17316 0.989925 2.65839e-20)
(1.1053 0.958719 -1.23897e-19)
(1.0317 0.9252 1.74383e-19)
(0.951232 0.887752 -5.60602e-19)
(0.862795 0.843028 -6.62449e-19)
(0.765941 0.786664 1.16284e-18)
(0.675111 0.721907 2.53911e-18)
(0.605257 0.658489 0)
(0.555389 0.599767 0)
(0.517625 0.543479 -3.21149e-19)
(0.474112 0.477347 0)
(0.396324 0.382284 9.13142e-19)
(0.27336 0.253585 1.07632e-18)
(0.13825 0.123072 0)
(0.0406806 0.0347918 0)
(0.000279781 0.000391611 8.56768e-19)
(0.235099 0.193655 1.1244e-19)
(1.03035 0.858529 9.21412e-20)
(1.20003 1.01442 9.7551e-20)
(1.20992 1.04144 -8.70002e-20)
(1.16007 1.02157 1.34464e-20)
(1.09251 0.989786 1.29824e-19)
(1.01887 0.955633 -2.38941e-19)
(0.937819 0.917498 1.32615e-23)
(0.84812 0.872051 -9.95959e-21)
(0.748962 0.814907 -1.06608e-20)
(0.654637 0.748946 1.30493e-18)
(0.580817 0.683259 0)
(0.527298 0.620804 9.78821e-19)
(0.486199 0.558474 6.83469e-19)
(0.440292 0.482401 1.65454e-18)
(0.362423 0.373909 4.90761e-19)
(0.244923 0.234685 -5.79866e-19)
(0.12232 0.105167 -3.39418e-19)
(0.0365131 0.0261382 0)
(0.000205212 -0.000350073 9.1986e-19)
(0.23585 0.201616 -2.59431e-19)
(1.02387 0.886071 0)
(1.18899 1.04467 1.22674e-19)
(1.19733 1.07164 -7.96614e-20)
(1.14752 1.05121 8.67377e-21)
(1.08028 1.01894 -1.42739e-19)
(1.00666 0.984251 4.65193e-19)
(0.925129 0.945575 -4.57485e-20)
(0.834298 0.899625 0)
(0.732977 0.842036 -1.27783e-18)
(0.635174 0.775396 -2.82885e-18)
(0.557056 0.707944 1.1519e-19)
(0.499199 0.642051 1.34384e-18)
(0.453302 0.573354 0)
(0.402909 0.485472 1.11377e-18)
(0.324043 0.359113 0)
(0.215613 0.20441 0)
(0.11571 0.0712712 -3.67472e-19)
(0.0590654 0.00566529 0)
(0.0263435 0.0104094 2.46269e-19)
(0.236217 0.208959 -2.95852e-19)
(1.01762 0.912438 0)
(1.1783 1.07306 2.10157e-19)
(1.18517 1.09997 0)
(1.13548 1.07908 -1.39542e-20)
(1.06855 1.04646 0)
(0.995033 1.01136 2.33685e-20)
(0.913079 0.97232 7.63282e-20)
(0.821227 0.926119 8.22352e-20)
(0.717841 0.868442 -1.39704e-18)
(0.616583 0.801698 8.47887e-20)
(0.533801 0.733135 9.22506e-19)
(0.470813 0.66418 1.30674e-18)
(0.418276 0.589004 1.76035e-19)
(0.360221 0.488319 8.70349e-19)
(0.276727 0.339485 0)
(0.174484 0.161461 1.22349e-18)
(0.0907744 0.0147236 -7.12335e-19)
(0.0420539 0.0458864 8.17354e-19)
(-0.0598065 0.429797 -9.70179e-19)
(0.23654 0.216089 2.48504e-19)
(1.01132 0.937427 3.83065e-19)
(1.16787 1.0999 0)
(1.17329 1.12687 1.01105e-20)
(1.12376 1.10576 5.73163e-20)
(1.05707 1.07303 1.75185e-19)
(0.983677 1.03775 1.61582e-19)
(0.901281 0.998681 0)
(0.808397 0.952629 5.46954e-19)
(0.702904 0.895423 -7.31469e-20)
(0.597973 0.829305 0)
(0.509907 0.760581 0)
(0.44062 0.68893 1.16723e-18)
(0.379354 0.606783 -5.4321e-19)
(0.30933 0.493645 -8.79107e-19)
(0.215803 0.320185 0)
(0.100724 0.152289 6.0932e-19)
(0.00863445 0.439233 -7.00458e-19)
(0.0334489 1.88285 -3.86287e-19)
(0.0648249 2.80428 -5.09349e-19)
(0.236615 0.222434 -1.89776e-19)
(1.00508 0.961195 -4.9788e-19)
(1.1577 1.1252 1.29056e-19)
(1.16168 1.15221 9.48339e-20)
(1.1124 1.13103 0)
(1.04591 1.09835 9.85813e-20)
(0.972793 1.06311 2.21323e-19)
(0.889917 1.02422 -3.69543e-20)
(0.796069 0.97863 8.12687e-20)
(0.688538 0.922363 1.32943e-18)
(0.579937 0.857531 1.42133e-18)
(0.486355 0.789911 1.02755e-18)
(0.40962 0.71606 1.16949e-18)
(0.338393 0.625411 -1.26817e-18)
(0.25643 0.504418 -1.32225e-18)
(0.141812 0.350199 0)
(0.0502984 0.832284 0)
(0.103564 2.54747 3.36501e-19)
(0.106255 3.19691 0)
(0.108656 3.38586 7.50399e-19)
(0.239719 0.228267 0)
(0.999454 0.983988 0)
(1.14753 1.1488 0)
(1.15012 1.17579 3.09854e-20)
(1.10109 1.15465 5.88671e-20)
(1.03484 1.12227 4.4292e-20)
(0.962287 1.08733 1.4215e-19)
(0.878932 1.04881 -3.60537e-20)
(0.784197 1.00397 6.81696e-19)
(0.674757 0.949113 -1.92038e-20)
(0.5626 0.886229 2.80177e-18)
(0.463536 0.82102 -1.17923e-19)
(0.378121 0.74631 1.4138e-19)
(0.297745 0.642352 1.82661e-19)
(0.195638 0.522911 -3.05913e-21)
(0.109705 0.964497 3.47159e-21)
(0.145649 2.70822 -1.75249e-18)
(0.154797 3.29001 -6.56625e-19)
(0.14272 3.42596 3.34144e-19)
(0.128913 3.44832 -3.68313e-19)
(0.159007 0.179831 1.10775e-19)
(0.989365 1.00869 0)
(1.1371 1.17093 -2.68263e-19)
(1.13905 1.19798 -2.66631e-19)
(1.0905 1.1773 1.78727e-19)
(1.02471 1.14539 -3.55611e-20)
(0.952012 1.11047 -1.45135e-19)
(0.868412 1.07256 4.01801e-19)
(0.772952 1.02875 -5.55526e-19)
(0.661862 0.975767 0)
(0.546354 0.915538 1.37182e-18)
(0.442013 0.853672 -8.33499e-19)
(0.346645 0.782687 0)
(0.254262 0.662393 1.63519e-19)
(0.159867 0.803884 3.97649e-19)
(0.16055 2.47514 -4.76177e-19)
(0.220374 3.32311 5.27688e-19)
(0.199223 3.44064 2.87796e-19)
(0.164868 3.4622 3.20579e-19)
(0.142538 3.47239 5.17343e-19)
(0.280149 0.267188 -1.93928e-19)
(0.973668 1.0187 0)
(1.11889 1.1961 3.00361e-19)
(1.12423 1.22985 3.1301e-19)
(1.07384 1.21065 -2.21433e-19)
(1.00765 1.17953 -1.36464e-20)
(0.93414 1.14617 1.39891e-19)
(0.849958 1.10937 3.13906e-20)
(0.753147 1.06749 5.32227e-19)
(0.639327 1.01805 1.14429e-18)
(0.518769 0.963538 7.76415e-20)
(0.405873 0.908491 7.39724e-19)
(0.291522 0.842634 1.30955e-19)
(0.21966 0.972754 -1.65027e-19)
(0.233952 2.32698 -3.74499e-19)
(0.294852 3.32775 3.55433e-19)
(0.278873 3.47198 -4.03122e-19)
(0.242724 3.49352 -2.35428e-19)
(0.205281 3.52062 -1.93659e-19)
(0.153889 3.51359 -1.87035e-20)
(0.269367 0.26478 0)
(0.971697 1.04176 9.20217e-20)
(1.11074 1.2194 -6.39551e-20)
(1.11392 1.25318 -3.9367e-20)
(1.06334 1.23387 -1.64885e-19)
(0.997328 1.20316 2.4718e-20)
(0.923579 1.17005 -7.34981e-20)
(0.839251 1.134 2.82359e-20)
(0.741997 1.09346 -5.55245e-19)
(0.627063 1.04662 -2.80866e-20)
(0.504134 0.996544 -2.48099e-18)
(0.38735 0.946812 1.05136e-19)
(0.280376 0.911381 -1.23259e-19)
(0.258791 1.49097 -1.53762e-19)
(0.332491 3.09482 3.44009e-20)
(0.354713 3.47098 1.92001e-21)
(0.313215 3.52732 5.95892e-19)
(0.27569 3.55256 2.9288e-19)
(0.226683 3.57546 -7.46855e-20)
(0.168439 3.57076 -8.99795e-20)
(0.253573 0.262783 2.36423e-19)
(0.968266 1.06737 6.37344e-19)
(1.10213 1.24477 -1.85241e-19)
(1.10304 1.27789 -1.49517e-19)
(1.05232 1.25846 0)
(0.986592 1.22796 9.97614e-20)
(0.912861 1.19516 -7.63772e-20)
(0.828658 1.15981 2.48631e-20)
(0.731283 1.12069 -6.16524e-20)
(0.615755 1.07666 -1.03697e-18)
(0.49127 1.03138 -1.14517e-18)
(0.372421 0.987883 -8.63957e-19)
(0.282264 1.04197 -9.32609e-19)
(0.326439 2.18702 9.58495e-19)
(0.418134 3.37977 7.89712e-19)
(0.39851 3.53053 0)
(0.351469 3.57385 0)
(0.313048 3.61362 -6.03433e-20)
(0.261514 3.67265 0)
(0.180266 3.64794 -6.52985e-20)
(0.242989 0.264618 -3.61554e-19)
(0.962701 1.09389 -5.50963e-19)
(1.09214 1.27138 0)
(1.09089 1.30341 1.19915e-20)
(1.04011 1.28367 -2.00147e-19)
(0.974771 1.25328 1.9436e-19)
(0.901372 1.22078 -3.11134e-20)
(0.817503 1.18605 1.4917e-20)
(0.72025 1.14827 -3.95388e-19)
(0.604533 1.10702 5.22101e-20)
(0.479299 1.06666 0)