/*--------------------------------*- C++ -*----------------------------------*\
| =========                 |                                                 |
| \\      /  F ield         | OpenFOAM: The Open Source CFD Toolbox           |
|  \\    /   O peration     | Version:  2306                                  |
|   \\  /    A nd           | Website:  www.openfoam.com                      |
|    \\/     M anipulation  |                                                 |
\*---------------------------------------------------------------------------*/
FoamFile
{
    version     2.0;
    format      ascii;
    arch        "LSB;label=32;scalar=64";
    class       volScalarField;
    location    "58";
    object      p;
}
// * * * * * * * * * * * * * * * * * * * * * * * * * * * * * * * * * * * * * //

dimensions      [0 2 -2 0 0 0 0];

internalField   nonuniform List<scalar> 
8800
(
0.836947
0.788896
0.750519
0.721877
0.701252
0.686498
0.675895
0.668392
0.663556
0.661498
0.662789
0.667012
0.673696
0.683045
0.695809
0.713404
0.737853
0.771469
0.813917
0.871044
0.669476
0.676683
0.685121
0.688537
0.686621
0.681097
0.674383
0.66822
0.663464
0.660612
0.660343
0.662877
0.667408
0.673421
0.680342
0.68697
0.691108
0.690598
0.684539
0.675565
0.646181
0.652358
0.656556
0.659916
0.662416
0.663212
0.662102
0.659956
0.657921
0.657018
0.658
0.660416
0.663266
0.665496
0.666039
0.664517
0.661676
0.658043
0.653511
0.649726
0.64104
0.64374
0.64646
0.64877
0.650415
0.65174
0.652647
0.65285
0.652588
0.652559
0.653328
0.654504
0.65531
0.655262
0.654478
0.653291
0.651548
0.649053
0.646631
0.645101
0.635838
0.63726
0.639059
0.641113
0.642864
0.644168
0.645193
0.646066
0.646746
0.647351
0.648015
0.648489
0.648537
0.6482
0.647515
0.64632
0.64463
0.642756
0.641436
0.640613
0.630819
0.631732
0.632968
0.634548
0.636199
0.637722
0.638993
0.64007
0.641071
0.642003
0.642708
0.643032
0.642988
0.642568
0.641709
0.640502
0.639159
0.637897
0.637079
0.636534
0.625936
0.626601
0.627558
0.628856
0.63027
0.631742
0.633188
0.634512
0.635722
0.636853
0.6377
0.638088
0.638025
0.637529
0.63672
0.635767
0.634759
0.63384
0.633257
0.632857
0.621164
0.621677
0.622456
0.623582
0.624857
0.626234
0.62769
0.629172
0.630612
0.63197
0.633006
0.633504
0.633496
0.633116
0.632515
0.631795
0.631029
0.630348
0.629916
0.629603
0.616439
0.616847
0.617499
0.618502
0.619704
0.62103
0.62248
0.624047
0.625685
0.627309
0.628586
0.629268
0.629447
0.629286
0.628911
0.628402
0.627836
0.627347
0.627026
0.626772
0.611678
0.612011
0.612575
0.613497
0.614651
0.615962
0.617444
0.619105
0.62093
0.622841
0.624431
0.625402
0.625854
0.625946
0.625798
0.625509
0.625135
0.624804
0.624567
0.624354
0.606795
0.60707
0.607573
0.608449
0.609584
0.610919
0.612473
0.614272
0.616321
0.618562
0.620548
0.621895
0.622676
0.623051
0.623152
0.623083
0.6229
0.622708
0.622539
0.622354
0.6017
0.601932
0.602396
0.603256
0.604412
0.605814
0.607483
0.609472
0.611811
0.614461
0.616933
0.61873
0.619895
0.620597
0.620973
0.621133
0.621139
0.621075
0.620961
0.620797
0.596306
0.596503
0.596947
0.59782
0.599039
0.600551
0.60239
0.604637
0.607346
0.610512
0.613573
0.615905
0.617517
0.61859
0.619275
0.619677
0.61989
0.619944
0.619876
0.619726
0.590511
0.59068
0.591122
0.592037
0.59336
0.595034
0.597109
0.599695
0.602874
0.606681
0.610455
0.613424
0.615562
0.617062
0.618098
0.61879
0.619205
0.619374
0.619346
0.619205
0.584199
0.584344
0.584799
0.585787
0.587259
0.589156
0.591543
0.594562
0.598336
0.60293
0.607569
0.6113
0.614059
0.61606
0.617495
0.618502
0.619148
0.619437
0.619446
0.619309
0.577235
0.577355
0.577837
0.578928
0.580603
0.582791
0.585579
0.589146
0.593659
0.599217
0.604903
0.609546
0.613043
0.615634
0.617539
0.618909
0.619812
0.620224
0.620266
0.62013
0.569439
0.569537
0.570062
0.571294
0.573228
0.575786
0.579086
0.583346
0.588775
0.595509
0.602458
0.608191
0.61256
0.615846
0.618313
0.620106
0.621296
0.621837
0.621911
0.621772
0.560586
0.560688
0.561266
0.562655
0.564919
0.567957
0.571911
0.57704
0.583607
0.591782
0.600248
0.607275
0.612672
0.616775
0.619907
0.622195
0.623707
0.624386
0.62449
0.624345
0.55037
0.550453
0.551122
0.552735
0.555431
0.559087
0.563868
0.570093
0.578076
0.588012
0.598297
0.606848
0.613453
0.618516
0.622411
0.62528
0.62716
0.627985
0.628116
0.627961
0.53842
0.538488
0.539257
0.541184
0.544438
0.548886
0.554723
0.562336
0.572083
0.584168
0.596622
0.606962
0.614973
0.621158
0.625939
0.629485
0.631766
0.632739
0.632893
0.632724
0.524194
0.524251
0.525163
0.527504
0.531493
0.536985
0.544201
0.553593
0.565548
0.580245
0.59527
0.607691
0.617314
0.624786
0.630596
0.634902
0.637615
0.638732
0.6389
0.638714
0.50693
0.506975
0.5081
0.511024
0.516019
0.522922
0.531975
0.543688
0.558432
0.5763
0.594329
0.609123
0.620569
0.629494
0.63645
0.641601
0.64476
0.646006
0.646176
0.64597
0.485479
0.485524
0.486992
0.490793
0.497239
0.50613
0.517704
0.532484
0.550745
0.572422
0.59391
0.611356
0.624824
0.635355
0.643546
0.649614
0.653196
0.654535
0.65469
0.654462
0.45811
0.458174
0.460231
0.465445
0.474132
0.485947
0.501075
0.51993
0.542585
0.568768
0.594155
0.614501
0.630142
0.642391
0.651921
0.658893
0.662828
0.664199
0.664318
0.664068
0.4218
0.421966
0.425228
0.433048
0.44552
0.461805
0.481999
0.506209
0.534242
0.565614
0.595284
0.618692
0.636595
0.650621
0.661527
0.669306
0.67345
0.674763
0.674822
0.674554
0.370774
0.371759
0.37825
0.391428
0.410482
0.433675
0.460856
0.49183
0.526205
0.563347
0.597532
0.624066
0.644233
0.66
0.672206
0.680601
0.684738
0.685888
0.68587
0.685589
0.296335
0.303607
0.318559
0.341659
0.370534
0.402969
0.438673
0.477419
0.518817
0.562224
0.601283
0.631206
0.653846
0.671535
0.685048
0.693905
0.697915
0.698881
0.698815
0.698569
0.216585
0.233311
0.257521
0.291312
0.330435
0.372247
0.416549
0.463278
0.512132
0.562525
0.607386
0.641558
0.667298
0.687322
0.702414
0.711592
0.715209
0.715916
0.715873
0.715722
0.149476
0.169341
0.201309
0.244226
0.292433
0.343095
0.395759
0.450336
0.5065
0.56367
0.614074
0.65222
0.680841
0.702922
0.719078
0.728184
0.731465
0.732078
0.732078
0.731977
0.0944806
0.116201
0.153632
0.203003
0.258358
0.316477
0.376549
0.438342
0.501397
0.565049
0.620736
0.662615
0.693858
0.717708
0.734868
0.744171
0.747468
0.74812
0.748156
0.748085
0.0488075
0.0717555
0.112957
0.167446
0.228528
0.292802
0.35923
0.427445
0.496822
0.566546
0.627244
0.672665
0.706395
0.731985
0.750167
0.760086
0.76363
0.764231
0.764288
0.764251
0.0100303
0.0336855
0.0777535
0.136289
0.202205
0.271721
0.343661
0.417569
0.492695
0.568073
0.633516
0.68233
0.718478
0.745796
0.7651
0.775677
0.779501
0.78016
0.780238
0.780229
-0.023868
0.000251367
0.046601
0.108472
0.178473
0.25255
0.329381
0.408428
0.488841
0.56951
0.639452
0.691502
0.729958
0.758948
0.779268
0.790504
0.794678
0.795464
0.795576
0.795583
-0.0543744
-0.029851
0.0183601
0.0830848
0.156605
0.234685
0.315913
0.399656
0.484975
0.570632
0.644853
0.699993
0.740619
0.771111
0.792439
0.804251
0.808757
0.809721
0.809835
0.809842
-0.0824557
-0.0575673
-0.00776278
0.0594176
0.136039
0.217672
0.302853
0.390902
0.480814
0.571223
0.649575
0.707671
0.750341
0.782196
0.804389
0.816715
0.821505
0.822606
0.822717
0.822713
-0.108901
-0.0836051
-0.0322959
0.0369475
0.116354
0.201152
0.289907
0.381922
0.47615
0.571123
0.653514
0.714497
0.759121
0.79226
0.815133
0.827834
0.832813
0.834
0.834106
0.834084
-0.13409
-0.10837
-0.0558528
0.0153688
0.097247
0.18488
0.276877
0.372546
0.470834
0.570219
0.656608
0.720482
0.767008
0.801333
0.82478
0.837709
0.842766
0.843996
0.844077
0.844036
-0.158441
-0.132156
-0.078642
-0.00555551
0.0785093
0.168686
0.263628
0.362658
0.464759
0.568418
0.658818
0.725649
0.774111
0.80955
0.833476
0.846478
0.851559
0.85278
0.852845
0.85278
-0.182083
-0.155404
-0.100726
-0.0260049
0.0600121
0.152474
0.250076
0.352193
0.457865
0.565663
0.660113
0.730033
0.780537
0.817099
0.841401
0.854387
0.859388
0.860559
0.860605
0.860523
-0.205163
-0.177954
-0.122242
-0.0460684
0.0416997
0.136202
0.236195
0.341121
0.450118
0.561899
0.66045
0.733666
0.7864
0.824154
0.84876
0.861592
0.86642
0.867497
0.867492
0.8674
-0.227788
-0.199995
-0.143284
-0.0657785
0.0235444
0.119866
0.221994
0.329458
0.441514
0.557093
0.65978
0.736546
0.791799
0.830871
0.855692
0.868212
0.872723
0.873637
0.873567
0.873426
-0.249989
-0.221529
-0.163882
-0.0851379
0.00557245
0.103489
0.207514
0.31724
0.432076
0.551218
0.658044
0.738632
0.796788
0.837427
0.862403
0.874366
0.87837
0.879052
0.878927
0.878776
-0.271607
-0.242519
-0.18397
-0.104125
-0.0121877
0.0871322
0.192809
0.304538
0.421859
0.544295
0.655175
0.739845
0.801361
0.843992
0.869192
0.880321
0.883494
0.883809
0.883621
0.883473
-0.292621
-0.262936
-0.203539
-0.122698
-0.0296832
0.0708522
0.177969
0.291425
0.410937
0.536347
0.651122
0.740064
0.805435
0.850664
0.876464
0.886594
0.888416
0.888002
0.8877
0.887602
-0.313099
-0.282741
-0.222566
-0.140823
-0.0468541
0.0547295
0.163078
0.278002
0.399398
0.527434
0.645833
0.739141
0.808827
0.857355
0.88458
0.894069
0.894043
0.892037
0.89128
0.891445
-0.332868
-0.301922
-0.240992
-0.158443
-0.0636433
0.0388463
0.14823
0.264378
0.387355
0.517649
0.63929
0.736909
0.811261
0.8637
0.893515
0.903741
0.902313
0.897853
0.89508
0.894577
-0.35202
-0.320474
-0.258832
-0.175587
-0.0800843
0.0231619
0.133371
0.250497
0.374742
0.506921
0.631351
0.733096
0.812436
0.869165
0.90261
0.915861
0.91562
0.909212
0.900359
0.891478
-0.370482
-0.33838
-0.276213
-0.192453
-0.0964631
0.0073482
0.118091
0.235881
0.361026
0.494623
0.621381
0.726926
0.811815
0.87304
0.910153
0.928208
0.929989
0.918516
0.898364
0.892312
-0.388078
-0.355648
-0.292954
-0.208852
-0.112465
-0.00827222
0.102607
0.220854
0.346511
0.481009
0.609447
0.717864
0.808599
0.874175
0.911938
0.930014
0.934543
0.909751
0.843956
0.81512
-0.404337
-0.373536
-0.308673
-0.224285
-0.127273
-0.0231862
0.0872302
0.205668
0.331444
0.466222
0.595531
0.705537
0.801509
0.87182
0.903343
0.915828
0.904439
0.850067
0.78172
0.740346
-0.454207
-0.390291
-0.322943
-0.239676
-0.142215
-0.038674
0.071985
0.190099
0.315505
0.449834
0.579067
0.689391
0.786623
0.863334
0.874497
0.870571
0.821125
0.751348
0.675036
0.63295
-0.42121
-0.404338
-0.344385
-0.260189
-0.164742
-0.0613322
0.0484155
0.165841
0.290219
0.423029
0.550355
0.65893
0.747496
0.830239
0.817349
0.703818
0.600684
0.528108
0.455639
0.487152
-0.452571
-0.422369
-0.361159
-0.277865
-0.18229
-0.0789997
0.0309488
0.147721
0.27103
0.402043
0.526585
0.631224
0.710124
0.754911
0.706567
0.558173
0.43306
0.343315
0.246668
0.29679
-0.476376
-0.443768
-0.380824
-0.297409
-0.201764
-0.0985381
0.0113072
0.127246
0.249147
0.377741
0.498493
0.596953
0.666627
0.675517
0.569588
0.400207
0.251826
0.13581
0.00900415
0.0443165
-0.49971
-0.465717
-0.401455
-0.31717
-0.221454
-0.118378
-0.00904728
0.10592
0.226207
0.351984
0.468003
0.558589
0.612731
0.590235
0.432298
0.24015
0.0571347
-0.105098
-0.287921
-0.297276
-0.522559
-0.488094
-0.422916
-0.337885
-0.242007
-0.139149
-0.0304652
0.0833995
0.201811
0.324374
0.434935
0.517778
0.552167
0.493294
0.301657
0.0937522
-0.114955
-0.291713
-0.536299
-0.796522
-0.545751
-0.511234
-0.44552
-0.359992
-0.263914
-0.161211
-0.053104
0.0596267
0.176053
0.29515
0.399916
0.474395
0.487381
0.377603
0.18722
-0.022803
-0.224943
-0.387802
-0.464552
-0.571227
-0.570254
-0.535607
-0.469596
-0.383808
-0.287669
-0.185214
-0.0777756
0.0336493
0.147766
0.262875
0.361489
0.424826
0.412889
0.268808
0.084593
-0.108908
-0.275176
-0.365955
-0.389016
-0.405213
-0.596334
-0.561526
-0.49531
-0.409418
-0.313403
-0.211368
-0.104838
0.00497949
0.116362
0.22682
0.318826
0.367867
0.337687
0.167291
-0.00883
-0.177624
-0.304839
-0.343135
-0.355058
-0.356291
-0.624204
-0.589157
-0.522723
-0.43682
-0.341067
-0.239677
-0.134308
-0.0264309
0.0817765
0.186974
0.271475
0.305633
0.254582
0.0739011
-0.0932921
-0.242923
-0.318976
-0.336267
-0.337116
-0.336875
-0.653926
-0.618563
-0.551853
-0.466014
-0.370678
-0.270129
-0.166189
-0.0605953
0.0440212
0.143415
0.219418
0.241421
0.155044
-0.0112955
-0.170277
-0.291786
-0.32898
-0.326746
-0.326155
-0.325526
-0.685206
-0.649569
-0.582601
-0.496913
-0.402145
-0.302667
-0.200448
-0.0974847
0.00314115
0.0962466
0.163536
0.168864
0.0644816
-0.0904784
-0.231095
-0.305383
-0.31611
-0.318789
-0.319319
-0.319039
-0.717504
-0.68172
-0.614722
-0.529285
-0.435281
-0.337131
-0.236928
-0.136966
-0.0406653
0.0458174
0.104366
0.0947544
-0.0175579
-0.157528
-0.273143
-0.311575
-0.315195
-0.314967
-0.314594
-0.314334
-0.750339
-0.714424
-0.647771
-0.56273
-0.46974
-0.373196
-0.275338
-0.178749
-0.0871046
-0.00713535
0.0406418
0.0229485
-0.0930864
-0.210929
-0.3011
-0.311842
-0.310208
-0.310798
-0.310964
-0.310755
-0.782834
-0.746968
-0.680833
-0.596658
-0.504975
-0.410382
-0.315216
-0.222337
-0.135722
-0.0619224
-0.0246256
-0.0447464
-0.16089
-0.249377
-0.301356
-0.313465
-0.311427
-0.31045
-0.309941
-0.3097
-0.813391
-0.778254
-0.712925
-0.630136
-0.540212
-0.447982
-0.355897
-0.267003
-0.185724
-0.117967
-0.0846644
-0.12023
-0.220942
-0.288241
-0.290626
-0.306834
-0.311559
-0.311032
-0.310667
-0.310385
-0.840395
-0.806381
-0.742942
-0.661967
-0.574392
-0.485058
-0.396505
-0.31184
-0.235898
-0.174372
-0.141921
-0.191827
-0.281951
-0.32765
-0.335317
-0.329886
-0.321681
-0.316144
-0.31482
-0.314304
-0.86173
-0.829394
-0.768872
-0.690725
-0.606247
-0.52044
-0.43594
-0.355783
-0.284939
-0.229682
-0.200647
-0.250338
-0.340995
-0.412142
-0.414953
-0.379809
-0.349313
-0.336043
-0.331665
-0.329727
-0.875135
-0.845491
-0.78866
-0.714539
-0.634271
-0.552818
-0.472966
-0.397616
-0.331615
-0.281696
-0.255532
-0.29252
-0.377669
-0.487683
-0.448151
-0.413206
-0.398072
-0.386079
-0.375975
-0.372867
-0.877948
-0.852323
-0.800444
-0.73159
-0.656759
-0.580804
-0.506274
-0.436095
-0.374647
-0.328321
-0.296915
-0.307183
-0.334177
-0.476133
-0.430722
-0.389477
-0.377793
-0.369865
-0.365641
-0.364999
-0.868064
-0.847351
-0.802065
-0.740273
-0.672275
-0.602951
-0.534606
-0.469954
-0.412754
-0.36877
-0.323891
-0.283488
-0.183253
-0.164262
-0.207159
-0.254448
-0.285945
-0.301309
-0.309152
-0.310845
-0.843144
-0.82758
-0.791679
-0.739404
-0.679877
-0.618286
-0.556856
-0.498095
-0.445408
-0.403868
-0.347554
-0.258377
-0.0328548
0.311366
0.044932
-0.173172
-0.278362
-0.316713
-0.331227
-0.335844
-0.805915
-0.795858
-0.77007
-0.729145
-0.679565
-0.626592
-0.572523
-0.519671
-0.472291
-0.433829
-0.392603
-0.365448
-0.369289
-0.422026
-0.526163
-0.53696
-0.522086
-0.516876
-0.519921
-0.524339
-0.763199
-0.757489
-0.742122
-0.712318
-0.673225
-0.628619
-0.581629
-0.534554
-0.491319
-0.460666
-0.447898
-0.602638
-0.980856
-1.35237
-1.29519
-1.01558
-0.859444
-0.784273
-0.758472
-0.752877
-0.724853
-0.721465
-0.71409
-0.694348
-0.663729
-0.626198
-0.584928
-0.541827
-0.500463
-0.470174
-0.455064
-0.577953
-0.729527
-0.87076
-0.90255
-0.88151
-0.865359
-0.790561
-0.730167
-0.720869
-0.697681
-0.695631
-0.691966
-0.679656
-0.655299
-0.622195
-0.584103
-0.54161
-0.498151
-0.455218
-0.434615
-0.409517
-0.443625
-0.511515
-0.607241
-0.678341
-0.718673
-0.660933
-0.569198
-0.52043
-0.677392
-0.676655
-0.675539
-0.669368
-0.650421
-0.619774
-0.581198
-0.537493
-0.487862
-0.438062
-0.407495
-0.387949
-0.280101
-0.102418
0.0647725
0.177296
0.229808
0.26476
0.29534
0.31613
-0.665768
-0.665426
-0.664817
-0.662107
-0.648533
-0.619072
-0.578299
-0.529977
-0.475626
-0.416283
-0.356371
-0.299971
-0.0891288
0.224342
0.532706
0.783977
0.888456
0.923874
0.925215
0.920339
-0.658705
-0.658401
-0.657696
-0.657115
-0.649148
-0.620581
-0.575955
-0.521876
-0.459847
-0.383583
-0.30222
-0.203787
0.0192884
0.336074
0.63006
0.855482
0.982187
1.05198
1.08675
1.09852
-0.655602
-0.655744
-0.656091
-0.657349
-0.652393
-0.624202
-0.575116
-0.51528
-0.442536
-0.356579
-0.259791
-0.153808
0.0907936
0.37393
0.633968
0.846214
0.989948
1.09368
1.1621
1.18967
-0.650699
-0.651744
-0.654176
-0.657259
-0.653407
-0.625723
-0.576558
-0.512179
-0.431475
-0.335443
-0.230265
-0.140761
0.0747294
0.366805
0.657974
0.916108
1.10947
1.236
1.30544
1.32839
-0.646368
-0.645932
-0.641511
-0.63304
-0.628616
-0.618192
-0.582751
-0.51657
-0.428419
-0.325952
-0.218682
-0.119452
0.0509251
0.328858
0.61856
0.87076
1.07675
1.20581
1.2656
1.28216
-0.675022
-0.670056
-0.651588
-0.624118
-0.615226
-0.628951
-0.605356
-0.529999
-0.430368
-0.320068
-0.213063
-0.112305
0.0158523
0.26626
0.511105
0.724518
0.894155
0.997669
1.04329
1.0546
-0.755893
-0.754439
-0.757294
-0.766069
-0.761744
-0.747731
-0.666186
-0.552583
-0.433374
-0.315983
-0.210563
-0.112793
-0.0116665
0.157427
0.364183
0.534177
0.667506
0.744561
0.777233
0.783627
-0.881404
-0.898316
-0.937491
-0.966697
-0.958438
-0.895629
-0.738162
-0.573263
-0.432238
-0.309961
-0.209518
-0.123462
-0.0471733
0.0762039
0.230882
0.35683
0.456112
0.511258
0.532956
0.536122
-0.925318
-0.947954
-0.984674
-1.01028
-0.998654
-0.916993
-0.736073
-0.557795
-0.413541
-0.296722
-0.207965
-0.136992
-0.0834554
0.00252337
0.117276
0.209681
0.279637
0.315999
0.330044
0.330396
-0.768659
-0.790093
-0.8254
-0.854214
-0.846124
-0.760755
-0.6161
-0.479799
-0.364035
-0.269162
-0.197997
-0.145269
-0.105987
-0.0523905
0.0236869
0.0889453
0.135577
0.159897
0.167794
0.167932
-0.448891
-0.46326
-0.488766
-0.514542
-0.520468
-0.48589
-0.422671
-0.353394
-0.288978
-0.228843
-0.178937
-0.142842
-0.115385
-0.078442
-0.0335732
0.00401455
0.0302511
0.0423433
0.0460865
0.0453361
-0.135327
-0.142052
-0.15801
-0.183546
-0.21133
-0.228033
-0.233479
-0.225919
-0.208421
-0.182862
-0.157449
-0.137337
-0.121861
-0.100574
-0.0741844
-0.0536718
-0.0424525
-0.0390491
-0.0382877
-0.0390201
0.0539661
0.0506829
0.0395338
0.0149335
-0.0234221
-0.0672209
-0.103946
-0.129156
-0.140973
-0.141448
-0.136216
-0.12954
-0.122576
-0.113902
-0.102555
-0.0933801
-0.0892582
-0.0884868
-0.0887296
-0.0893658
0.12385
0.121888
0.113371
0.09232
0.056724
0.0127594
-0.0302415
-0.0661821
-0.0920616
-0.107962
-0.117782
-0.125353
-0.127695
-0.122424
-0.115169
-0.112052
-0.112391
-0.113823
-0.114659
-0.115284
0.131444
0.12996
0.123709
0.108115
0.0811498
0.0462024
0.00837623
-0.0272964
-0.0576532
-0.0823997
-0.103686
-0.124449
-0.13848
-0.132662
-0.124651
-0.121661
-0.12149
-0.122755
-0.123401
-0.12393
0.11589
0.114859
0.110593
0.0999003
0.0809947
0.0552828
0.0253045
-0.00525899
-0.0342602
-0.0616093
-0.0889558
-0.119071
-0.137721
-0.128513
-0.119327
-0.116493
-0.117337
-0.118994
-0.119746
-0.120161
0.0952418
0.0945871
0.091819
0.0847841
0.0720018
0.0539059
0.031588
0.00733565
-0.0172583
-0.0419314
-0.0677971
-0.0960436
-0.110113
-0.101552
-0.0961579
-0.0970704
-0.10072
-0.103613
-0.104648
-0.104915
0.0758953
0.0755269
0.0738229
0.0693606
0.0609873
0.0486977
0.0329317
0.0150294
-0.00379349
-0.0224184
-0.0409266
-0.0581228
-0.0644301
-0.0595913
-0.0619584
-0.0674809
-0.0731962
-0.0765834
-0.077662
-0.0779031
0.0595243
0.0593159
0.0583312
0.0556174
0.0503326
0.0422939
0.0316819
0.019444
0.00683509
-0.00466043
-0.0117055
-0.0143503
-0.0100501
-0.0119513
-0.0209163
-0.0305476
-0.0379669
-0.0416029
-0.0427646
-0.0430963
0.0460468
0.0459605
0.0454385
0.0439022
0.0407525
0.0358105
0.0291854
0.0216855
0.0146616
0.0107645
0.0144554
0.0256633
0.038093
0.0307376
0.0161283
0.0044816
-0.00257115
-0.00555356
-0.00671888
-0.00720083
0.0347141
0.0347141
0.0344935
0.0337428
0.0320704
0.0293108
0.0255969
0.0216539
0.0189779
0.0208516
0.0323149
0.0517884
0.0677264
0.0581436
0.0425291
0.0316262
0.0268408
0.024512
0.023436
0.0228161
0.0249327
0.024972
0.0249317
0.0246806
0.0239541
0.0226674
0.0209236
0.0193737
0.0195138
0.0247676
0.0397645
0.0618315
0.0772888
0.0680869
0.0545435
0.0470084
0.0438746
0.0430974
0.0419021
0.0410576
0.0162571
0.0163035
0.0163346
0.0163569
0.0162114
0.0157977
0.0152088
0.014979
0.0163724
0.0222906
0.0365909
0.0561159
0.0676578
0.058721
0.0497998
0.0457791
0.0452068
0.04527
0.0443097
0.0435012
0.00844297
0.00847279
0.00853195
0.00868058
0.00878458
0.00878713
0.00874376
0.00897702
0.0102508
0.0143662
0.0240763
0.0373101
0.0428562
0.035749
0.0312314
0.0316071
0.0326849
0.0336202
0.032706
0.0318384
0.00146777
0.00148926
0.00148624
0.00155181
0.00169727
0.00177956
0.00177004
0.0017246
0.0019195
0.00252915
0.00412524
0.00718542
0.00937032
0.0107669
0.00959321
0.00954594
0.00920748
0.00669971
0.00589221
0.00603411
-0.101468
0.0858918
0.285921
0.453746
0.587489
0.692693
0.780059
0.853564
0.883799
0.867649
0.222414
0.345345
0.473909
0.584815
0.678092
0.755315
0.817477
0.861079
0.883731
0.896629
0.441036
0.52429
0.611679
0.689342
0.755926
0.811543
0.855612
0.888086
0.911973
0.929886
0.600174
0.659357
0.72053
0.777286
0.826442
0.868097
0.902347
0.930044
0.952576
0.970861
0.724854
0.767236
0.814118
0.857119
0.895525
0.929077
0.957846
0.982109
1.00191
1.01987
0.828339
0.861284
0.899626
0.934926
0.967303
0.996442
1.02199
1.04366
1.0607
1.0783
0.920673
0.949485
0.983432
1.01555
1.04539
1.07253
1.09633
1.11616
1.13076
1.14821
1.00912
1.03849
1.0724
1.10449
1.13406
1.16063
1.18353
1.20195
1.21459
1.23205
1.10435
1.13789
1.17427
1.20795
1.23795
1.26407
1.28595
1.30302
1.31445
1.33225
1.21918
1.25771
1.29591
1.33008
1.35931
1.38395
1.40422
1.4199
1.43122
1.44956
1.36384
1.4033
1.43883
1.46921
1.49476
1.51679
1.53578
1.55129
1.56393
1.58205
1.53854
1.57058
1.59635
1.61867
1.6387
1.65743
1.67505
1.69159
1.70733
1.72552
1.72612
1.74367
1.75919
1.77577
1.79191
1.80645
1.81947
1.83344
1.85052
1.87019
1.9077
1.91866
1.9308
1.94159
1.95084
1.96039
1.97127
1.98285
1.9928
2.00797
2.1187
2.12072
2.10556
2.09033
2.08394
2.0896
2.10821
2.13862
2.17075
2.2015
2.42462
2.28757
2.21127
2.16916
2.15172
2.15576
2.18311
2.23925
2.3427
2.55799
0.733237
0.729862
0.723936
0.71413
0.701189
0.688768
0.678461
0.670522
0.664877
0.661609
0.661257
0.664015
0.66915
0.676414
0.685861
0.697556
0.710692
0.722686
0.730143
0.734865
0.651245
0.657131
0.664036
0.669276
0.672123
0.671797
0.668896
0.664979
0.661423
0.659147
0.659003
0.66122
0.664923
0.66929
0.673246
0.675253
0.674144
0.670057
0.664165
0.657121
0.64358
0.645927
0.649277
0.652185
0.654402
0.656204
0.657167
0.656916
0.655893
0.655008
0.655189
0.656628
0.658457
0.659745
0.659798
0.658632
0.656827
0.654488
0.651334
0.648372
0.638424
0.63951
0.641376
0.643757
0.645718
0.64711
0.648209
0.649072
0.649548
0.649805
0.650309
0.651107
0.651663
0.651639
0.651124
0.650256
0.648855
0.6468
0.644691
0.643277
0.633311
0.633966
0.635074
0.636794
0.638599
0.640215
0.641483
0.642513
0.643442
0.644274
0.645021
0.645556
0.645712
0.645518
0.644964
0.64394
0.642505
0.640935
0.639613
0.63883
0.628364
0.628819
0.629601
0.630896
0.632389
0.633922
0.635389
0.636678
0.637818
0.638891
0.63982
0.640386
0.64053
0.640266
0.639577
0.638576
0.637438
0.636302
0.635393
0.634873
0.623542
0.623883
0.624491
0.625556
0.626844
0.628221
0.629669
0.63112
0.632493
0.633777
0.634896
0.635598
0.635784
0.635513
0.634907
0.634123
0.633271
0.632408
0.631739
0.631358
0.618804
0.619069
0.619559
0.620465
0.62163
0.622923
0.624319
0.625814
0.62736
0.628886
0.630243
0.631121
0.631428
0.631305
0.630909
0.630349
0.629702
0.629065
0.628576
0.628285
0.614072
0.614283
0.614691
0.615486
0.61657
0.617815
0.619199
0.620736
0.622413
0.624178
0.62582
0.626955
0.627494
0.627612
0.627447
0.627106
0.626664
0.626216
0.625866
0.625638
0.609261
0.60943
0.60978
0.610502
0.61154
0.612763
0.614173
0.615792
0.617622
0.619639
0.621621
0.623107
0.623966
0.624369
0.624453
0.624338
0.624106
0.623829
0.623594
0.623412
0.604283
0.60442
0.604728
0.605405
0.606426
0.607673
0.609149
0.610892
0.61293
0.615252
0.617648
0.619574
0.620817
0.621548
0.621914
0.62204
0.622015
0.621903
0.621765
0.621619
0.59905
0.599161
0.599442
0.600099
0.601138
0.602453
0.604039
0.60596
0.608271
0.610983
0.61389
0.616344
0.618038
0.619149
0.619835
0.620222
0.620408
0.620464
0.620411
0.620292
0.593469
0.593557
0.593821
0.594484
0.595577
0.597001
0.598751
0.600919
0.603583
0.606788
0.610324
0.613412
0.615639
0.617189
0.618232
0.618926
0.61935
0.619559
0.619581
0.619484
0.587431
0.587498
0.587756
0.588447
0.589631
0.591213
0.593192
0.595684
0.5988
0.602623
0.606928
0.610776
0.613636
0.6157
0.617155
0.618188
0.618873
0.619251
0.619345
0.619264
0.58081
0.580857
0.581117
0.581858
0.583174
0.58497
0.58725
0.590159
0.593846
0.598434
0.603673
0.608438
0.612052
0.614725
0.616661
0.618073
0.61906
0.619619
0.619783
0.619716
0.573452
0.573482
0.573747
0.574561
0.576054
0.578129
0.580794
0.584233
0.588635
0.594164
0.600541
0.606408
0.610917
0.614306
0.616814
0.618678
0.620006
0.620759
0.620993
0.620938
0.565166
0.565183
0.565451
0.566362
0.568088
0.570507
0.573669
0.57778
0.583075
0.589761
0.597518
0.604705
0.610277
0.61451
0.617692
0.620098
0.621814
0.622779
0.623084
0.623036
0.555646
0.555634
0.555963
0.557013
0.559019
0.561894
0.565691
0.570651
0.577063
0.585181
0.594611
0.603365
0.61019
0.615415
0.619389
0.622428
0.624588
0.62579
0.626167
0.626124
0.544605
0.544568
0.544941
0.546186
0.548563
0.552024
0.556629
0.562664
0.570478
0.58036
0.59181
0.602425
0.610717
0.617105
0.622007
0.625774
0.62845
0.629905
0.630353
0.630311
0.531564
0.531501
0.531952
0.533449
0.536311
0.540538
0.546188
0.553604
0.563188
0.575246
0.589127
0.601931
0.611927
0.61966
0.625645
0.63025
0.633502
0.635223
0.635736
0.63569
0.515882
0.515791
0.516367
0.518213
0.521724
0.526972
0.53401
0.54323
0.555071
0.56982
0.586604
0.601959
0.613906
0.623164
0.630387
0.635941
0.639823
0.641813
0.64238
0.642324
0.496621
0.496504
0.49728
0.499639
0.504065
0.510734
0.519669
0.531296
0.54605
0.564127
0.584346
0.602614
0.616751
0.627715
0.636297
0.642909
0.647455
0.649693
0.650292
0.650218
0.472375
0.472244
0.473353
0.476505
0.482309
0.491059
0.502683
0.517586
0.5361
0.558249
0.582468
0.604001
0.620543
0.633372
0.643415
0.651173
0.656365
0.6588
0.659397
0.659297
0.440847
0.440741
0.442456
0.446975
0.455073
0.467058
0.48263
0.502033
0.525362
0.552401
0.581179
0.606279
0.625378
0.640179
0.651775
0.660685
0.666426
0.66896
0.66951
0.669378
0.397899
0.39796
0.401001
0.408372
0.420734
0.438005
0.459418
0.484885
0.514211
0.546961
0.58077
0.609634
0.631357
0.648163
0.661312
0.671302
0.677394
0.679866
0.680319
0.680152
0.335814
0.337007
0.344422
0.358226
0.378379
0.404053
0.433685
0.466863
0.503272
0.542382
0.58151
0.614208
0.638539
0.657274
0.671856
0.68268
0.688858
0.691037
0.691325
0.691136
0.261907
0.263954
0.278241
0.301969
0.332933
0.36852
0.407103
0.448491
0.49249
0.538621
0.583934
0.621394
0.649127
0.670367
0.686747
0.698451
0.70461
0.70659
0.706838
0.706743
0.185856
0.192214
0.213458
0.247331
0.288695
0.333931
0.381448
0.431122
0.482826
0.536108
0.587779
0.630152
0.661383
0.685241
0.703551
0.715981
0.721749
0.723288
0.723465
0.72343
0.12376
0.132245
0.158005
0.198921
0.248437
0.301902
0.357494
0.414933
0.473991
0.534156
0.591934
0.638953
0.673426
0.699601
0.719314
0.732184
0.737893
0.739286
0.739518
0.739546
0.0731364
0.0822334
0.111526
0.157659
0.213302
0.273381
0.335799
0.400103
0.465897
0.532532
0.596111
0.647536
0.685037
0.713349
0.734531
0.747975
0.753659
0.755329
0.755648
0.755722
0.0307632
0.0401321
0.0718611
0.121994
0.182667
0.248242
0.316442
0.386739
0.45858
0.531176
0.600209
0.655826
0.696229
0.726629
0.749199
0.763465
0.769623
0.771566
0.771913
0.771998
-0.00575218
0.00372608
0.0372852
0.0906247
0.155466
0.225737
0.298973
0.37457
0.451877
0.52998
0.60415
0.66376
0.706952
0.73938
0.763344
0.778522
0.785254
0.787352
0.787746
0.787827
-0.0380779
-0.028558
0.00640858
0.0624619
0.130795
0.205113
0.282813
0.363191
0.445514
0.528745
0.607766
0.671176
0.717021
0.751341
0.776619
0.792652
0.799946
0.802235
0.802647
0.802703
-0.0674829
-0.0579114
-0.0217893
0.0366143
0.107933
0.185801
0.267475
0.352195
0.439147
0.527203
0.610852
0.6779
0.726268
0.762331
0.788804
0.805559
0.813399
0.815861
0.816293
0.816337
-0.0948331
-0.0852079
-0.0480495
0.0123542
0.0863404
0.167359
0.252583
0.341254
0.432508
0.525137
0.613256
0.683838
0.734611
0.772325
0.799828
0.817175
0.825403
0.82801
0.828457
0.828479
-0.120696
-0.110991
-0.0728599
-0.0107848
0.0656258
0.149452
0.237873
0.330151
0.425406
0.522387
0.614863
0.688944
0.742072
0.781342
0.809769
0.827572
0.835993
0.838697
0.839152
0.83915
-0.145549
-0.13568
-0.096699
-0.0330431
0.0455288
0.131849
0.223159
0.318731
0.417709
0.518837
0.615596
0.693202
0.74871
0.789482
0.818745
0.836853
0.845341
0.848053
0.848505
0.848469
-0.169647
-0.159552
-0.119839
-0.0546192
0.0258592
0.114406
0.208322
0.3069
0.409329
0.51441
0.615401
0.696607
0.754588
0.796888
0.82688
0.845188
0.853659
0.856329
0.856747
0.856685
-0.193095
-0.182795
-0.142283
-0.0756707
0.00650211
0.0970515
0.193303
0.294608
0.400223
0.509046
0.61422
0.699159
0.759781
0.80371
0.834416
0.852812
0.861149
0.863713
0.864076
0.863993
-0.216051
-0.205459
-0.164171
-0.0962756
-0.012585
0.0797483
0.178084
0.281848
0.390381
0.502723
0.612002
0.700838
0.764356
0.810091
0.841508
0.859851
0.867945
0.870322
0.870597
0.87048
-0.238484
-0.22761
-0.185579
-0.116472
-0.0314091
0.0625058
0.162694
0.26865
0.379822
0.495428
0.608704
0.701592
0.768339
0.816159
0.848335
0.866457
0.874097
0.876188
0.876349
0.876208
-0.260451
-0.249259
-0.206442
-0.136247
-0.0499533
0.0453535
0.147172
0.25507
0.368598
0.487183
0.604287
0.701353
0.7717
0.822019
0.855127
0.872852
0.879747
0.881375
0.881397
0.881237
-0.281772
-0.270341
-0.226748
-0.155561
-0.0681731
0.0283598
0.131581
0.241178
0.356778
0.478041
0.598728
0.700032
0.774356
0.827711
0.862149
0.879438
0.885197
0.886016
0.885799
0.885634
-0.302583
-0.290806
-0.246485
-0.174395
-0.0860383
0.0115625
0.116013
0.227054
0.344448
0.46808
0.592033
0.697525
0.776158
0.833147
0.869601
0.886805
0.891114
0.890451
0.889636
0.889479
-0.322726
-0.31063
-0.265626
-0.192702
-0.103471
-0.00495438
0.100549
0.212816
0.331717
0.457367
0.584237
0.693728
0.776908
0.83808
0.877415
0.895575
0.898814
0.895873
0.893436
0.892571
-0.342253
-0.329856
-0.284116
-0.210431
-0.120436
-0.0211222
0.0852732
0.198546
0.318694
0.446034
0.57541
0.688536
0.776378
0.842105
0.885047
0.905796
0.909826
0.905478
0.899109
0.890274
-0.361086
-0.348449
-0.302034
-0.227739
-0.137145
-0.0372139
0.0698545
0.183845
0.304938
0.433586
0.565029
0.68139
0.774098
0.844868
0.891808
0.91672
0.924413
0.920291
0.909933
0.905991
-0.379173
-0.366397
-0.319374
-0.244588
-0.153591
-0.053207
0.0543148
0.168697