/*--------------------------------*- C++ -*----------------------------------*\
| =========                 |                                                 |
| \\      /  F ield         | OpenFOAM: The Open Source CFD Toolbox           |
|  \\    /   O peration     | Version:  2306                                  |
|   \\  /    A nd           | Website:  www.openfoam.com                      |
|    \\/     M anipulation  |                                                 |
\*---------------------------------------------------------------------------*/
FoamFile
{
    version     2.0;
    format      ascii;
    arch        "LSB;label=32;scalar=64";
    class       surfaceScalarField;
    location    "58";
    object      phi;
}
// * * * * * * * * * * * * * * * * * * * * * * * * * * * * * * * * * * * * * //

dimensions      [0 3 -1 0 0 0 0];

oriented        oriented;

internalField   nonuniform List<scalar> 
17370
(
-0.0910987
0.093545
0.286565
-0.0749543
0.0569543
0.364776
-0.0409376
0.0299541
0.427152
-0.0212
0.0156007
0.504851
-0.0113517
0.00865273
0.602101
-0.00652049
0.00506758
0.72051
-0.00384827
0.00297654
0.863778
-0.00220864
0.00163319
1.03603
-0.00110349
0.000683528
1.24292
-0.000273245
-0.000120362
1.49158
0.000506149
-0.000919279
1.4916
0.00132268
-0.00182577
1.24319
0.00237378
-0.00311168
1.03638
0.00395996
-0.00516075
0.864107
0.00660317
-0.00872774
0.721182
0.0114198
-0.0156599
0.603455
0.0212502
-0.0299938
0.508183
0.0409673
-0.0569751
0.432176
0.0749706
-0.0935545
0.365359
0.0911119
0.197899
-0.127347
0.0881449
0.0392023
-0.364737
0.35379
-0.0726284
0.0835753
-0.446566
0.454369
-0.0817092
0.0739057
-0.520972
0.529525
-0.0657967
0.0572432
-0.612851
0.621017
-0.0494918
0.0413254
-0.727002
0.733791
-0.0343977
0.0276088
-0.867515
0.872453
-0.0222656
0.0173277
-1.03855
1.04191
-0.0136065
0.0102522
-1.24471
1.24713
-0.00769551
0.00528218
-1.49284
1.49486
-0.00331347
0.00129512
-1.49269
1.49451
0.000526178
-0.00234852
-1.2441
1.24602
0.00432535
-0.00624068
-1.0376
1.04008
0.00858353
-0.011069
-0.866159
0.869808
0.0143414
-0.0179905
-0.724479
0.72977
0.0228593
-0.0281503
-0.608887
0.615772
0.0348905
-0.041776
-0.514989
0.522696
0.0498957
-0.0576025
-0.439772
0.447828
0.0661012
-0.0741576
-0.375155
0.377
0.081897
-0.083742
-0.256915
0.223418
0.0727446
-0.039247
-0.0686544
0.058925
0.00972938
-0.0520733
0.0587687
-0.374544
0.367849
-0.0578818
0.0540542
-0.453831
0.457658
-0.0486953
0.0443553
-0.527746
0.532086
-0.0401316
0.0363488
-0.621107
0.62489
-0.0321244
0.0280511
-0.734881
0.738955
-0.0235752
0.0195787
-0.874052
0.878049
-0.0154373
0.0119169
-1.0434
1.04692
-0.00834501
0.00527705
-1.24867
1.25173
-0.00203843
-0.000965333
-1.49695
1.49995
0.00394754
-0.00712492
-1.49743
1.50061
0.0101032
-0.0135538
-1.2501
1.25355
0.0169519
-0.0209531
-1.04572
1.04972
0.0248253
-0.0291772
-0.877315
0.881667
0.0331508
-0.0372784
-0.739309
0.743437
0.0409804
-0.0451226
-0.626339
0.630481
0.0493933
-0.0546849
-0.534933
0.540225
0.0584385
-0.0592322
-0.457917
0.458711
0.0524193
-0.0320415
-0.336391
0.316013
0.00978745
-0.0684997
0.0587122
-0.0531667
0.049118
0.00404869
-0.0331622
0.0436527
-0.358379
0.347889
-0.0473675
0.0467787
-0.459516
0.460105
-0.0438
0.0405285
-0.536031
0.539302
-0.0368161
0.0334791
-0.628453
0.63179
-0.0299117
0.0267576
-0.742268
0.745423
-0.0234026
0.0202292
-0.881588
0.884762
-0.0166247
0.013239
-1.05041
1.0538
-0.00949608
0.00605088
-1.25504
1.25848
-0.00221852
-0.00143543
-1.50334
1.50699
0.00505808
-0.008799
-1.50414
1.50788
0.0121191
-0.0156914
-1.25716
1.26073
0.0189031
-0.0223075
-1.05349
1.05689
0.0253029
-0.0284796
-0.885278
0.888454
0.0314899
-0.034917
-0.746928
0.750355
0.0381366
-0.0417278
-0.634494
0.638085
0.0448943
-0.0477545
-0.544451
0.547311
0.0482193
-0.0443303
-0.456876
0.452987
0.0336311
-0.016266
-0.296639
0.279274
0.00411911
-0.0528909
0.0487717
-0.0459972
0.043473
0.00252419
-0.0229199
0.033283
-0.337252
0.326889
-0.0390608
0.040043
-0.459819
0.458837
-0.0388227
0.0365205
-0.541978
0.54428
-0.033877
0.0313122
-0.634791
0.637356
-0.0283027
0.0254405
-0.748492
0.751354
-0.0222015
0.0192005
-0.887767
0.890768
-0.0158765
0.0127604
-1.05697
1.06008
-0.00920655
0.005793
-1.2619
1.26532
-0.00185821
-0.00196691
-1.51075
1.51458
0.00575172
-0.00956324
-1.51169
1.5155
0.012811
-0.0161413
-1.2642
1.26753
0.0190301
-0.0220928
-1.06006
1.06312
0.024859
-0.0278587
-0.891598
0.894598
0.030524
-0.0333399
-0.753542
0.756358
0.0357438
-0.0382246
-0.641085
0.643566
0.0403872
-0.0414235
-0.549125
0.550161
0.0402491
-0.0341907
-0.447785
0.441726
0.0235209
-0.0102953
-0.264086
0.25086
0.00261077
-0.0455726
0.0429618
-0.041376
0.0395908
0.00178522
-0.016853
0.0261251
-0.317026
0.307754
-0.0327307
0.0348626
-0.457257
0.455125
-0.034436
0.0327502
-0.546286
0.547972
-0.0305452
0.0284366
-0.639661
0.641769
-0.0260088
0.0236246
-0.753974
0.756359
-0.0207904
0.0180278
-0.893631
0.896394
-0.0148298
0.0117895
-1.06312
1.06616
-0.00832323
0.00500786
-1.26864
1.27195
-0.00116647
-0.00258684
-1.51836
1.52211
0.00628785
-0.00997495
-1.51925
1.52294
0.0130817
-0.0162657
-1.27078
1.27397
0.0190176
-0.0218819
-1.06614
1.069
0.0243409
-0.0268635
-0.897396
0.899919
0.0289923
-0.0311708
-0.758807
0.760985
0.0330741
-0.0350699
-0.645757
0.647752
0.0365522
-0.0367285
-0.550714
0.55089
0.0343017
-0.0272861
-0.4351
0.428085
0.0176021
-0.00743894
-0.239311
0.229148
0.00189094
-0.0407692
0.0388783
-0.038053
0.0367107
0.00134238
-0.0128785
0.0208565
-0.299133
0.291155
-0.0276213
0.0305472
-0.452565
0.449639
-0.0307558
0.0296352
-0.549407
0.550527
-0.0276403
0.02572
-0.643818
0.645738
-0.0235157
0.0213794
-0.758596
0.760732
-0.0188727
0.0163991
-0.898953
0.901427
-0.0134675
0.010601
-1.06907
1.07193
-0.00726016
0.00403707
-1.27519
1.27841
-0.000301806
-0.00332713
-1.52578
1.52941
0.00689101
-0.0104328
-1.52654
1.53008
0.0133954
-0.0163839
-1.27708
1.28007
0.0188888
-0.0214006
-1.07172
1.07424
0.0234936
-0.0256094
-0.902226
0.904342
0.0274234
-0.0293106
-0.763004
0.764891
0.0309712
-0.0327149
-0.6496
0.651344
0.0335379
-0.0329797
-0.550701
0.550143
0.0296326
-0.022307
-0.420857
0.413531
0.0138005
-0.00575764
-0.220146
0.212103
0.00147106
-0.037224
0.0357529
-0.0355378
0.0345032
0.00103464
-0.0100692
0.0168202
-0.283815
0.277064
-0.023328
0.0267125
-0.446464
0.443079
-0.0274995
0.0268074
-0.551428
0.55212
-0.0250472
0.0232663
-0.647632
0.649413
-0.0212037
0.0191958
-0.762803
0.764811
-0.016833
0.0145142
-0.903754
0.906073
-0.0117854
0.00910697
-1.07464
1.07732
-0.00595278
0.00287351
-1.28152
1.2846
0.000721953
-0.00421716
-1.53294
1.53644
0.00763219
-0.0109888
-1.53352
1.53688
0.0137456
-0.0164641
-1.28294
1.28565
0.0186975
-0.0209093
-1.07662
1.07883
0.0227573
-0.0246349
-0.906353
0.90823
0.0262424
-0.0279105
-0.766667
0.768335
0.0293692
-0.0307831
-0.652939
0.654353
0.0311057
-0.0298218
-0.549235
0.547952
0.0258578
-0.0186129
-0.40622
0.398975
0.0111983
-0.00464122
-0.204874
0.198317
0.00119112
-0.0344386
0.0332475
-0.0335943
0.0327877
0.000806649
-0.00798696
0.0136659
-0.270878
0.265199
-0.0196944
0.0232818
-0.439584
0.435996
-0.0245509
0.0241079
-0.552722
0.553165
-0.0226194
0.0209495
-0.65119
0.65286
-0.0189845
0.0170665
-0.76677
0.768688
-0.0148033
0.0125784
-0.908278
0.910503
-0.00995805
0.00739646
-1.07986
1.08242
-0.00439428
0.00146193
-1.28755
1.29048
0.00196517
-0.00529363
-1.53982
1.54315
0.00852518
-0.0116599
-1.54011
1.54325
0.0141972
-0.0166686
-1.28825
1.29073
0.0186859
-0.0206714
-1.08097
1.08296
0.022317
-0.0239833
-0.910026
0.911693
0.0254089
-0.0268879
-0.769908
0.771387
0.0281562
-0.0291968
-0.655556
0.656597
0.02915
-0.0272037
-0.54634
0.544394
0.0228427
-0.0158693
-0.391863
0.384889
0.00936674
-0.00386743
-0.19234
0.18684
0.000996855
-0.0321668
0.0311699
-0.0320785
0.0314481
0.000630399
-0.00638257
0.0111459
-0.260006
0.255243
-0.0165891
0.0201826
-0.432406
0.428812
-0.0217808
0.0215671
-0.553531
0.553745
-0.0203152
0.0187076
-0.654548
0.656156
-0.0168014
0.0149357
-0.770574
0.772439
-0.0127351
0.0105733
-0.91262
0.914782
-0.00802832
0.00554384
-1.08486
1.08735
-0.00264125
-0.000171271
-1.2933
1.29611
0.00344834
-0.00660488
-1.54635
1.54951
0.0096405
-0.0125555
-1.54625
1.54917
0.0148951
-0.0171534
-1.2931
1.29536
0.0189755
-0.0207457
-1.08489
1.08666
0.0221984
-0.0236682
-0.913287
0.914756
0.0249309
-0.0262397
-0.772781
0.77409
0.0273653
-0.0279935
-0.657416
0.658044
0.02758
-0.0250786
-0.542185
0.539683
0.0204784
-0.0138446
-0.378097
0.371464
0.00806571
-0.00332529
-0.18176
0.17702
0.000861444
-0.0302521
0.0293906
-0.0308972
0.0304093
0.000487904
-0.00509306
0.00906758
-0.2509
0.246926
-0.013881
0.0173323
-0.425299
0.421847
-0.0191205
0.019102
-0.553905
0.553924
-0.0180501
0.0164803
-0.657812
0.659382
-0.0146001
0.0127532
-0.774285
0.776132
-0.0105759
0.00844269
-0.916841
0.918974
-0.00594058
0.00350808
-1.08972
1.09215
-0.000676273
-0.00205623
-1.29882
1.30156
0.00520264
-0.00820369
-1.55255
1.55555
0.0110587
-0.0137705
-1.55195
1.55467
0.0159224
-0.0179726
-1.29752
1.29957
0.0196033
-0.021164
-1.08839
1.08995
0.0224327
-0.0237207
-0.916165
0.917453
0.0248356
-0.0259901
-0.775317
0.776472
0.026931
-0.027187
-0.658473
0.658729
0.0263798
-0.0234097
-0.536963
0.533993
0.0186707
-0.0123713
-0.365018
0.358719
0.00714763
-0.0029494
-0.172585
0.168387
0.00076905
-0.0285862
0.0278171
-0.0299889
0.0296213
0.000367639
-0.00401455
0.00729685
-0.243322
0.240039
-0.0114691
0.0146687
-0.418538
0.415338
-0.0165216
0.0166631
-0.553914
0.553773
-0.0156979
0.0142051
-0.660989
0.662482
-0.012324
0.0104642
-0.77797
0.779829
-0.00827303
0.0061346
-0.921009
0.923148
-0.0036398
0.00122507
-1.09448
1.09689
0.0015609
-0.00423156
-1.30419
1.30686
0.00728112
-0.0101537
-1.55844
1.56131
0.012849
-0.0153692
-1.55725
1.55977
0.0173364
-0.0191793
-1.30153
1.30337
0.0206208
-0.0219756
-1.0915
1.09285
0.0230643
-0.0241756
-0.918688
0.9198
0.0251449
-0.0261304
-0.777538
0.778523
0.0268173
-0.0267798
-0.658856
0.658819
0.0255623
-0.0221815
-0.530836
0.527455
0.0173519
-0.0113363
-0.352589
0.346574
0.00652077
-0.00269931
-0.164408
0.160587
0.000709561
-0.0270885
0.026379
-0.029314
0.0290534
0.000260585
-0.00307073
0.00572898
-0.237092
0.234433
-0.00926072
0.0121263
-0.412326
0.409461
-0.0139307
0.0141603
-0.553646
0.553416
-0.0132432
0.0117977
-0.664034
0.665479
-0.00989372
0.00799322
-0.781685
0.783586
-0.00575509
0.00357934
-0.925191
0.927367
-0.00105427
-0.00137122
-1.0992
1.10162
0.00415273
-0.00679266
-1.30944
1.31208
0.0097708
-0.0125358
-1.56408
1.56684
0.0150866
-0.0174252
-1.56217
1.56451
0.0192138
-0.020854
-1.30512
1.30676
0.0221074
-0.0232524
-1.09421
1.09535
0.0241555
-0.0250873
-0.920866
0.921798
0.0259119
-0.026726
-0.779416
0.78023
0.027129
-0.0268305
-0.658645
0.658347
0.0251687
-0.0213978
-0.5239
0.520129
0.0164813
-0.0106681
-0.340696
0.334883
0.00612882
-0.00255011
-0.156918
0.153339
0.000676724
-0.0256974
0.0250206
-0.0288498
0.0286908
0.00015905
-0.00219782
0.00427093
-0.232089
0.230016
-0.00715791
0.00962007
-0.406823
0.404361
-0.0112691
0.0115093
-0.553252
0.553011
-0.0106083
0.00917381
-0.667017
0.668451
-0.00722171
0.0052522
-0.785486
0.787456
-0.0029321
0.000686156
-0.929448
0.931694
0.00190658
-0.00437861
-1.10396
1.10643
0.00719053
-0.0098285
-1.31463
1.31727
0.0127627
-0.0154389
-1.56951
1.57218
0.0178562
-0.0200175
-1.56672
1.56889
0.0216282
-0.0230636
-1.3083
1.30973
0.0241241
-0.0250477
-1.09651
1.09744
0.0257499
-0.0264847
-0.922682
0.923417
0.027156
-0.0278263
-0.780939
0.78161
0.0279231
-0.0272586
-0.657822
0.657158
0.0251668
-0.0210139
-0.516209
0.512056
0.0159918
-0.0102949
-0.329175
0.323478
0.00592061
-0.00247878
-0.149862
0.14642
0.000664155
-0.0243628
0.0236987
-0.0285883
0.0285318
5.65141e-05
-0.00134704
0.00284994
-0.228247
0.226744
-0.00507857
0.00707402
-0.40216
0.400165
-0.00846456
0.00863379
-0.55289
0.552721
-0.00770361
0.00624531
-0.670013
0.671471
-0.00420737
0.00213751
-0.789427
0.791497
0.000300536
-0.00265565
-0.933845
0.9362
0.00535525
-0.00791082
-1.10881
1.11137
0.0107881
-0.0134543
-1.31983
1.32249
0.0163718
-0.0189772
-1.57476
1.57737
0.02127
-0.0232553
-1.57092
1.5729
0.0246845
-0.025907
-1.31106
1.31228
0.0267637
-0.0274521
-1.0984
1.09909
0.0279415
-0.0284648
-0.924114
0.924637
0.0289726
-0.0294413
-0.782102
0.782571
0.0292541
-0.0281678
-0.656248
0.655161
0.0256116
-0.0210507
-0.507768
0.503208
0.0158731
-0.010191
-0.317846
0.312164
0.00587611
-0.00247698
-0.143036
0.139637
0.000670087
-0.0230456
0.0223755
-0.0285321
0.028585
-5.2875e-05
-0.000471832
0.00139924
-0.225547
0.22462
-0.00294253
0.00440736
-0.398465
0.397
-0.00543758
0.00545165
-0.552732
0.552718
-0.00443586
0.00289947
-0.673106
0.674642
-0.000744164
-0.00146605
-0.793571
0.795781
0.00407033
-0.00657033
-0.93846
0.94096
0.0094202
-0.0120967
-1.11384
1.11651
0.0150799
-0.0178064
-1.32508
1.32781
0.0207353
-0.0232857
-1.57988
1.58243
0.0254596
-0.0272652
-1.57475
1.57656
0.0285027
-0.0294976
-1.31337
1.31437
0.0301373
-0.0305817
-1.09984
1.10028
0.0308465
-0.0311409
-0.925126
0.92542
0.0314597
-0.0316602
-0.782746
0.782947
0.0311991
-0.0295927
-0.653821
0.652215
0.0265292
-0.0215152
-0.498524
0.49351
0.0161127
-0.0103365
-0.306504
0.300728
0.00598025
-0.00253768
-0.136257
0.132814
0.000692489
-0.0217097
0.0210172
-0.0286932
0.028861
-0.000167871
0.000447698
-0.00012776
-0.224012
0.223692
-0.000681257
0.00153459
-0.395863
0.39501
-0.00209728
0.00187347
-0.552952
0.553176
-0.000713596
-0.000968076
-0.67641
0.678092
0.00329736
-0.00569337
-0.798
0.800396
0.00851121
-0.0112037
-0.943369
0.946061
0.0142545
-0.0170962
-1.11911
1.12196
0.0202289
-0.0230495
-1.33047
1.33329
0.0260181
-0.0285281
-1.58488
1.58739
0.0305848
-0.0322004
-1.57822
1.57983
0.0332331
-0.0339767
-1.31521
1.31596
0.0343797
-0.0345626
-1.10077
1.10095
0.0345872
-0.0346327
-0.925674
0.92572
0.0347515
-0.0346143
-0.782764
0.782627
0.0338003
-0.0315949
-0.6504
0.648194
0.0279649
-0.0224261
-0.48837
0.482831
0.0167083
-0.0107196
-0.294925
0.288936
0.00622241
-0.00265534
-0.129353
0.125786
0.000729623
-0.0203229
0.0195933
-0.029109
0.0294184
-0.000309417
0.00144692
-0.00177192
-0.223726
0.224051
0.00180364
-0.00166813
-0.39448
0.394344
0.00170328
-0.00227545
-0.553765
0.554338
0.00366106
-0.00553553
-0.680062
0.681937
0.00809387
-0.0107259
-0.802796
0.805428
0.0138141
-0.0167513
-0.948666
0.951603
0.0200585
-0.0231124
-1.12473
1.12778
0.0264392
-0.0293866
-1.33604
1.33899
0.032418
-0.0348944
-1.5898
1.59228
0.0368256
-0.0382256
-1.58128
1.58268
0.03903
-0.039497
-1.31652
1.31699
0.0396423
-0.0395387
-1.10115
1.10104
0.0392979
-0.0390723
-0.925698
0.925473
0.0389824
-0.038394
-0.782022
0.781433
0.0371328
-0.0342547
-0.645833
0.642955
0.0299729
-0.0238062
-0.47715
0.470983
0.0176625
-0.0113337
-0.28287
0.276541
0.00659565
-0.00282604
-0.122166
0.118396
0.000780226
-0.0188566
0.0180764
-0.0297996
0.0302845
-0.000484923
0.00272433
-0.00379457
-0.224764
0.225834
0.00469056
-0.00534853
-0.394544
0.395202
0.00610342
-0.00713307
-0.555402
0.556432
0.00883053
-0.0109704
-0.684163
0.686303
0.0138367
-0.0167729
-0.808066
0.811002
0.0202034
-0.0234485
-0.954458
0.957703
0.0270767
-0.0303953
-1.13077
1.13409
0.0339631
-0.0370663
-1.34187
1.34498
0.040174
-0.0426105
-1.59464
1.59708
0.0443925
-0.045546
-1.58389
1.58504
0.0460683
-0.04624
-1.31723
1.3174
0.0461012
-0.0456779
-1.1009
1.10048
0.0451433
-0.0446231
-0.925129
0.924608
0.0442226
-0.0431841
-0.78037
0.779332
0.0413536
-0.0376762
-0.639944
0.636267
0.0326218
-0.0256892
-0.464647
0.457714
0.0189856
-0.0121764
-0.270079
0.26327
0.00709448
-0.00304565
-0.114541
0.110492
0.000842593
-0.017285
0.0164424
-0.030841
0.0315439
-0.000702894
0.00420959
-0.00616501
-0.227325
0.22928
0.00812451
-0.00968218
-0.396265
0.397823
0.0112582
-0.012867
-0.558119
0.559728
0.0150161
-0.017516
-0.688875
0.691375
0.0207921
-0.0241137
-0.813951
0.817272
0.0279722
-0.031599
-0.960876
0.964503
0.0356209
-0.039259
-1.13736
1.141
0.0431113
-0.0463916
-1.34801
1.35129
0.0495763
-0.0519516
-1.59939
1.60176
0.0535463
-0.0544033
-1.58599
1.58684
0.0545942
-0.0544214
-1.31728
1.31711
0.0539562
-0.0531737
-1.09994
1.09916
0.0523118
-0.051453
-0.9239
0.923042
0.0506496
-0.0491073
-0.777811
0.776269
0.0465688
-0.041942
-0.632482
0.627855
0.0359629
-0.0280923
-0.450574
0.442703
0.0206741
-0.0132345
-0.25627
0.24883
0.0077058
-0.0033061
-0.106326
0.101926
0.000913775
-0.0155855
0.0146718
-0.0323136
0.0333038
-0.000990254
0.0060881
-0.00909655
-0.231665
0.234673
0.0123111
-0.0149254
-0.399908
0.402523
0.0174686
-0.0197848
-0.562195
0.564511
0.0225265
-0.025511
-0.694397
0.697381
0.029325
-0.0331353
-0.820619
0.824429
0.0375248
-0.0416159
-0.96807
0.972161
0.0461056
-0.0501118
-1.14458
1.14859
0.0542768
-0.057734
-1.35449
1.35795
0.0609652
-0.0632244
-1.60397
1.60623
0.0645623
-0.0650429
-1.58745
1.58793
0.0648492
-0.0642514
-1.31653
1.31593
0.063413
-0.0622182
-1.09819
1.09699
0.06099
-0.0597907
-0.921915
0.920716
0.0584545
-0.0563065
-0.774227
0.772079
0.052919
-0.047142
-0.623127
0.61735
0.0400389
-0.0310169
-0.434579
0.425557
0.0227078
-0.0144807
-0.241141
0.232914
0.00840622
-0.00359404
-0.0973849
0.0925727
0.000989161
-0.0137432
0.012754
-0.034347
0.0357326
-0.00138558
0.00853709
-0.0128964
-0.238101
0.24246
0.0175964
-0.0214428
-0.405845
0.409692
0.0251173
-0.0282916
-0.567962
0.571136
0.0318048
-0.0354323
-0.700999
0.704627
0.0399463
-0.0443735
-0.828272
0.832699
0.0494073
-0.0540446
-0.976202
0.98084
0.059066
-0.0634687
-1.15254
1.15694
0.0679407
-0.0715343
-1.36129
1.36488
0.074731
-0.0767712
-1.60827
1.61031
0.077739
-0.0777273
-1.58809
1.58807
0.0770656
-0.0759235
-1.3148
1.31366
0.0746543
-0.073008
-1.0955
1.09385
0.0713853
-0.069761
-0.919143
0.917518
0.0678491
-0.0649548
-0.769394
0.766499
0.0605113
-0.053323
-0.611464
0.604276
0.0448488
-0.0344236
-0.416239
0.405813
0.0250307
-0.0158602
-0.224387
0.215217
0.00915443
-0.00388763
-0.0876038
0.082337
0.0010615
-0.0117528
0.0106913
-0.037136
0.039083
-0.00194705
0.0119528
-0.0180241
-0.247163
0.253235
0.0245206
-0.0298112
-0.414568
0.419859
0.0348265
-0.039048
-0.575812
0.580033
0.0435428
-0.0480119
-0.709017
0.713486
0.0534236
-0.05861
-0.837159
0.842345
0.0644047
-0.0696553
-0.985436
0.990687
0.075233
-0.0800063
-1.16126
1.16603
0.0847049
-0.0883207
-1.36829
1.3719
0.0913193
-0.0929644
-1.61202
1.61367
0.0933857
-0.0927161
-1.58765
1.58698
0.091453
-0.0896577
-1.31191
1.31012
0.0878593
-0.0857351
-1.09175
1.08963
0.0837052
-0.0814891
-0.915385
0.913169
0.0790321
-0.0751437
-0.762946
0.759057
0.069387
-0.0604679
-0.596956
0.588037
0.0503267
-0.0382112
-0.395057
0.382941
0.027534
-0.0172807
-0.205714
0.195461
0.00988584
-0.00415502
-0.0769162
0.0711854
0.0011209
-0.00962509
0.00850419
-0.0410019
0.0438227
-0.0028208
0.0169176
-0.0252431
-0.259576
0.267901
0.0339685
-0.0409971
-0.426748
0.433776
0.0476474
-0.0531474
-0.586225
0.591725
0.0588974
-0.0644588
-0.718864
0.724426
0.0709881
-0.0770563
-0.847547
0.853616
0.0836661
-0.0895083
-0.995874
1.00172
0.0955473
-0.100548
-1.17063
1.17563
0.105262
-0.10867
-1.3752
1.37861
0.11119
-0.112173
-1.61485
1.61583
0.1118
-0.110251
-1.58579
1.58424
0.108221
-0.105655
-1.30766
1.3051
0.103223
-0.100534
-1.08684
1.08415
0.0980524
-0.0951555
-0.910259
0.907362
0.0920614
-0.0869056
-0.75437
0.749214
0.0795043
-0.0684557
-0.578923
0.567875
0.056302
-0.0421877
-0.370488
0.356374
0.0300365
-0.018601
-0.184887
0.173452
0.0105073
-0.00435302
-0.0653328
0.0591785
0.00115464
-0.00739128
0.00623664
-0.0465205
0.0508145
-0.00429398
0.0246001
-0.0359912
-0.276503
0.287894
0.0476062
-0.0569478
-0.443407
0.452748
0.0656121
-0.0726036
-0.599809
0.6068
0.0798956
-0.0869413
-0.730932
0.737977
0.0946367
-0.101503
-0.859634
0.8665
0.108755
-0.114965
-1.00739
1.0136
0.121145
-0.126032
-1.18029
1.18518
0.130348
-0.133154
-1.3815
1.3843
0.134758
-0.13469
-1.61614
1.61607
0.133191
-0.13049
-1.58202
1.57932
0.127506
-0.124013
-1.30178
1.29828
0.120861
-0.11754
-1.08062
1.0773
0.114536
-0.110888
-0.903574
0.899926
0.106868
-0.100054
-0.743074
0.73626
0.0905933
-0.0769547
-0.556512
0.542873
0.0624288
-0.0460353
-0.341975
0.325581
0.0322689
-0.0196284
-0.161797
0.149157
0.0108976
-0.00442747
-0.0529836
0.0465135
0.00114656
-0.00510785
0.00396128
-0.0547544
0.0621188
-0.00736438
0.0380546
-0.053919
-0.300089
0.315953
0.0695952
-0.0821462
-0.466208
0.478759
0.0929934
-0.101349
-0.617007
0.625362
0.110153
-0.118451
-0.745592
0.75389
0.12703
-0.134271
-0.873121
0.880363
0.141584
-0.147562
-1.01937
1.02535
0.153213
-0.157353
-1.1894
1.19354
0.160608
-0.1622
-1.38627
1.38786
0.162301
-0.160706
-1.61505
1.61346
0.157699
-0.153543
-1.57578
1.57162
0.149371
-0.144758
-1.29393
1.28932
0.140774
-0.136775
-1.07287
1.06887
0.133114
-0.128634
-0.895153
0.890673
0.123274
-0.114246
-0.728145
0.719118
0.102139
-0.0853326
-0.528651
0.511844
0.0681212
-0.0493232
-0.309035
0.290237
0.0339388
-0.0202092
-0.136576
0.122847
0.0109778
-0.00434956
-0.0401721
0.0335438
0.00108362
-0.00286156
0.00177793
-0.0689797
0.0730641
-0.0040843
0.0290979
-0.0428866
-0.334316
0.348104
0.0568092
-0.0683519
-0.496585
0.508128
0.0786312
-0.0881919
-0.637391
0.646951
0.0988026
-0.108516
-0.76172
0.771433
0.119274
-0.128812
-0.886702
0.89624
0.138927
-0.147871
-1.03038
1.03932
0.15713
-0.164961
-1.19658
1.20441
0.172584
-0.178462
-1.38826
1.39414
0.183374
-0.186127
-1.61062
1.61337
0.186688
-0.18562
-1.56641
1.56534
0.183493
-0.180481
-1.28375
1.28074
0.177804
-0.174651
-1.06339
1.06024
0.171808
-0.167393
-0.884416
0.880001
0.160029
-0.146756
-0.708305
0.695031
0.128729
-0.104699
-0.494191
0.470162
0.0813023
-0.0568086
-0.271372
0.246878
0.0378568
-0.0217968
-0.109749
0.0936894
0.0114742
-0.00441134
-0.0274292
0.0203663
0.00107591
-0.000758519
-0.000317389
-0.0803526
0.0783774
0.00197518
0.00742334
-0.0165187
-0.364631
0.373726
0.0271114
-0.0352905
-0.524322
0.532501
0.0435092
-0.051527
-0.659034
0.667052
0.0612905
-0.0703632
-0.780758
0.789831
0.0799965
-0.0887552
-0.905204
0.913962
0.098006
-0.105838
-1.04796
1.05579
0.114115
-0.120732
-1.21201
1.21863
0.127084
-0.131649
-1.39966
1.40422
0.134813
-0.135979
-1.61522
1.61639
0.13495
-0.132259
-1.56345
1.56075
0.128509
-0.123763
-1.27701
1.27226
0.119389
-0.114585
-1.05504
1.05023
0.110058
-0.104234
-0.870716
0.864892
0.0964661
-0.0847616
-0.677864
0.666159
0.0711042
-0.0547353
-0.444647
0.428278
0.0403258
-0.0268727
-0.222749
0.209296
0.0173498
-0.00979187
-0.0786293
0.0710714
0.00513732
-0.00200703
-0.0136981
0.0105678
0.000427216
0.00143192
-0.00185914
-0.081765
0.0788408
0.0029242
-0.0017172
-0.00353232
-0.385123
0.390373
0.010733
-0.0166414
-0.544803
0.550711
0.022711
-0.0297384
-0.677262
0.68429
0.0381866
-0.0460611
-0.798007
0.805881
0.0546381
-0.0622712
-0.921962
0.929595
0.0700773
-0.0770349
-1.06343
1.07039
0.0841574
-0.0899087
-1.22478
1.23053
0.09493
-0.0982482
-1.40805
1.41137
0.100336
-0.10028
-1.61675
1.61669
0.0980387
-0.094136
-1.55733
1.55343
0.0894155
-0.0838302
-1.26715
1.26156
0.0782717
-0.0723208
-1.04381
1.03785
0.0667037
-0.0600612
-0.855227
0.848585
0.0530013
-0.0434285
-0.651187
0.641615
0.0336532
-0.0232952
-0.4102
0.399841
0.0156704
-0.00970348
-0.195276
0.189309
0.00608777
-0.003563
-0.0634447
0.0609199
0.00199471
-0.000820752
-0.00740925
0.00623529
0.000164252
0.00248346
-0.00264771
-0.0804977
0.0777319
0.00276584
-0.00534259
0.0028307
-0.398785
0.401297
0.00180005
-0.00627093
-0.559907
0.564378
0.0114123
-0.0173102
-0.692297
0.698195
0.0245226
-0.0312556
-0.813108
0.819841
0.0385717
-0.0451056
-0.936686
0.94322
0.0521593
-0.0580289
-1.0769
1.08277
0.0642014
-0.0686996
-1.23583
1.24033
0.0728601
-0.075423
-1.4144
1.41697
0.0765342
-0.0754055
-1.6161
1.61497
0.0725316
-0.0680315
-1.54888
1.54438
0.0627839
-0.0562648
-1.25557
1.24905
0.0501415
-0.043453
-1.03068
1.02399
0.0370058
-0.0301615
-0.838861
0.832016
0.023666
-0.0163011
-0.628939
0.621574
0.00981971
-0.00449834
-0.388385
0.383063
0.00171366
-0.000333085
-0.181958
0.180577
-7.17196e-05
-3.33879e-05
-0.0573974
0.0575025
0.000100905
-5.22499e-05
-0.00476554
0.00471689
-1.59774e-05
0.00309346
-0.00307748
-0.0789788
0.0765323
0.00244649
-0.00646476
0.00556338
-0.407871
0.408772
-0.00218465
-0.00100544
-0.572033
0.575223
0.00520147
-0.0105704
-0.704895
0.710264
0.0166289
-0.0225307
-0.825869
0.831771
0.0288564
-0.0345173
-0.949288
0.954949
0.0405436
-0.0457362
-1.08848
1.09368
0.0509098
-0.0549723
-1.24466
1.24872
0.0584121
-0.0603663
-1.41911
1.42107
0.0608653
-0.0592252
-1.6136
1.61196
0.055919
-0.0508348
-1.53913
1.53404
0.0452833
-0.0385961
-1.24237
1.23569
0.0321811
-0.0249921
-1.01642
1.00923
0.0184046
-0.0114262
-0.82275
0.815771
0.00555624
0.000269753
-0.611521
0.605695
-0.00436419
0.00658264
-0.375507
0.373288
-0.00670324
0.00566239
-0.177073
0.178114
-0.00426538
0.00267218
-0.0568216
0.0584148
-0.00147395
0.000597088
-0.00453579
0.00541264
-0.000177647
0.00330883
-0.00313118
-0.0775688
0.0754722
0.00209662
-0.00635295
0.00596212
-0.414077
0.414468
-0.00396008
0.00140483
-0.58133
0.583885
0.00264698
-0.00723716
-0.715563
0.720154
0.012441
-0.0175606
-0.836878
0.841998
0.023181
-0.0282316
-0.960249
0.9653
0.0337258
-0.0382463
-1.09858
1.1031
0.0428556
-0.0464508
-1.25247
1.25607
0.0493767
-0.0509165
-1.42272
1.42426
0.0510051
-0.0494282
-1.61018
1.6086
0.0458665
-0.0407716
-1.52848
1.52339
0.0351103
-0.0283288
-1.22876
1.22198
0.0220693
-0.0146842
-1.00156
0.994173
0.0079894
-0.00118009
-0.807108
0.800298
-0.00403557
0.0086671
-0.597321
0.59269
-0.0115925
0.0125395
-0.368188
0.367241
-0.0112686
0.00908864
-0.177065
0.179245
-0.00693054
0.00448848
-0.0593313
0.0617733
-0.00257047
0.00105439
-0.00618047
0.00769654
-0.000298173
0.0030951
-0.00279693
-0.0764897
0.0748523
0.00163745
-0.00548787
0.00543476
-0.418668
0.418721
-0.00383427
0.00192266
-0.58941
0.591322
0.00185274
-0.00600185
-0.724776
0.728925
0.0109336
-0.0153346
-0.84671
0.851111
0.0202628
-0.0247286
-0.970305
0.974771
0.029924
-0.0340094
-1.10764
1.11172
0.0380709
-0.0414346
-1.25946
1.26282
0.0444587
-0.0457859
-1.42579
1.42711
0.0458473
-0.0441266
-1.6066
1.60488
0.0408748
-0.0356181
-1.51807
1.51282
0.0302512
-0.0238094
-1.21505
1.20861
0.0176051
-0.0106449
-0.986681
0.979721
0.0041312
0.00251787
-0.792105
0.785456
-0.00734466
0.0114024
-0.585156
0.581098
-0.0138752
0.0143685
-0.363416
0.362923
-0.0130537
0.0106501
-0.17937
0.181774
-0.00821615
0.0054424
-0.0635371
0.0663109
-0.00320022
0.00134447
-0.0089797
0.0108354
-0.000393782
0.00258758
-0.0021938
-0.075912
0.0746253
0.00128661
-0.00442617
0.00450314
-0.422294
0.422217
-0.00310384
0.00128289
-0.596427
0.598248
0.00234832
-0.00604388
-0.733034
0.736729
0.0102634
-0.0144996
-0.855444
0.85968
0.0190391
-0.0236273
-0.979027
0.983615
0.0280776
-0.0319627
-1.11589
1.11978
0.0361306
-0.0392283
-1.26605
1.26915
0.0417467
-0.0434537
-1.42833
1.43004
0.0436525
-0.0421744
-1.6032
1.60172
0.0390535
-0.0343554
-1.50778
1.50308
0.0293117
-0.0232128
-1.20192
1.19582
0.0174128
-0.0107971
-0.972578
0.965962
0.0046479
0.00156004
-0.777916
0.771708
-0.00648001
0.0102296
-0.574111
0.570362
-0.0123876
0.0132371
-0.359793
0.358944
-0.0124061
0.010275
-0.181949
0.18408
-0.00806173
0.00545314
-0.0681558
0.0707644
-0.00329469
0.00144591
-0.0122717
0.0141204
-0.000420233
0.00190235
-0.00148212
-0.0758583
0.0747893
0.001069
-0.00316464
0.00301477
-0.425538
0.425688
-0.00188157
0.000132256
-0.602873
0.604622
0.00338717
-0.00696248
-0.740697
0.744272
0.0109999
-0.0148204
-0.863684
0.867505
0.0194619
-0.023249
-0.98761
0.991397
0.027654
-0.0313464
-1.1238
1.1275
0.0353845
-0.0386618
-1.27221
1.27549
0.041449
-0.0429239
-1.43149
1.43297
0.0434488
-0.0423652
-1.60017
1.59909
0.039889
-0.0355182
-1.49831
1.49394
0.0309324
-0.0252697
-1.1899
1.18423
0.0199087
-0.0136943
-0.959143
0.952929
0.00808239
-0.00211432
-0.764693
0.758725
-0.00270535
0.00656792
-0.563792
0.559929
-0.00878668
0.00979924
-0.355901
0.354889
-0.00966184
0.00828285
-0.183903
0.185282
-0.00666478
0.00460715
-0.0722763
0.074334
-0.00284112
0.00128994
-0.0153995
0.0169507
-0.000380429
0.00117395
-0.000793522
-0.0760872
0.0753478
0.000739471
-0.00202309
0.00143705
-0.428866
0.429452
-0.000482447
-0.00159815
-0.608438
0.610519
0.00466955
-0.00807574
-0.747846
0.751252
0.011934
-0.0158755
-0.87117
0.875111
0.0198908
-0.0238302
-0.995376
0.999315
0.0281895
-0.0316677
-1.1316
1.13508
0.0357893
-0.0390157
-1.27856
1.28178
0.0418572
-0.0438596
-1.43484
1.43685
0.044877
-0.0440911
-1.59805
1.59727
0.0418808
-0.0382496
-1.48979
1.48616
0.0342382
-0.0290067
-1.17853
1.1733
0.0239999
-0.018495
-0.946712
0.941207
0.0129665
-0.00751779
-0.752117
0.746669
0.00278474
0.00151176
-0.55403
0.549733
-0.00387722
0.0053221
-0.35134
0.349895
-0.00574195
0.00531266
-0.184687
0.185116
-0.00440856
0.0031553
-0.0751799
0.0764331
-0.00202066
0.000948821
-0.0178399
0.0189118
-0.000282833
0.000538475
-0.000255642
-0.076738
0.0761656
0.000572447
-0.0010555
0.000571796
-0.432421
0.432904
0.00105393
-0.00299928
-0.614243
0.616188
0.00621313
-0.0094843
-0.754454
0.757725
0.013186
-0.016719
-0.878703
0.882237
0.0208515
-0.0244724
-1.00325
1.00687
0.0287786
-0.0326909
-1.139
1.14291
0.0364532
-0.0400098
-1.28504
1.2886
0.0432763
-0.0453789
-1.43874
1.44085
0.0467847
-0.0467974
-1.59671
1.59672
0.0450533
-0.0420789
-1.48244
1.47946
0.0383384
-0.0336772
-1.1682
1.16354
0.0292258
-0.0240593
-0.935374
0.930208
0.0190616
-0.0138137
-0.740397
0.735149
0.00917403
-0.00460775
-0.543965
0.539399
0.00158525
0.000446723
-0.345968
0.343936
-0.00163036
0.00204397
-0.183855
0.183442
-0.00193632
0.00150676
-0.0764757
0.0769053
-0.00103267
0.000521984
-0.0192952
0.0198059
-0.000158993
8.42052e-05
7.47882e-05
-0.0776673
0.0772846
0.000382642
-5.66614e-05
-0.000713996
-0.436073
0.436844
0.00225357
-0.00450895
-0.619655
0.62191
0.00763185
-0.010734
-0.760828
0.76393
0.0145214
-0.0179028
-0.885734
0.889116
0.0218754
-0.0256179
-1.01095
1.0147
0.0298296
-0.0337095
-1.14667
1.15055
0.0376975
-0.0412871
-1.29207
1.29566
0.0447494
-0.0476107
-1.44323
1.44609
0.0494757
-0.0498007
-1.59667
1.597
0.0487645
-0.0461565
-1.47641
1.47381
0.043046
-0.0390449
-1.15893
1.15493
0.0347908
-0.0299931
-0.924842
0.920044
0.0252811
-0.0200499
-0.729234
0.724003
0.0154811
-0.0106015
-0.533848
0.528968