/*--------------------------------*- C++ -*----------------------------------*\
| =========                 |                                                 |
| \\      /  F ield         | OpenFOAM: The Open Source CFD Toolbox           |
|  \\    /   O peration     | Version:  2306                                  |
|   \\  /    A nd           | Website:  www.openfoam.com                      |
|    \\/     M anipulation  |                                                 |
\*---------------------------------------------------------------------------*/
FoamFile
{
    version     2.0;
    format      ascii;
    arch        "LSB;label=32;scalar=64";
    class       volVectorField;
    location    "58";
    object      U;
}
// * * * * * * * * * * * * * * * * * * * * * * * * * * * * * * * * * * * * * //

dimensions      [0 1 -1 0 0 0 0];

internalField   nonuniform List<vector> 
8800
(
(0.984957 -0.0884524 0)
(1.00213 -0.0568261 0)
(0.999648 -0.0305596 0)
(0.999992 -0.0158678 0)
(1.00007 -0.00872821 0)
(1.00008 -0.00509257 0)
(1.00005 -0.00300294 0)
(1.00002 -0.00169149 0)
(0.999999 -0.000786911 0)
(1.00006 -8.45955e-05 0)
(0.999987 0.000628016 0)
(0.999995 0.00138649 0)
(1.00002 0.00241352 0)
(1.00004 0.00400906 0)
(1.00004 0.00671624 0)
(1 0.0117403 0)
(0.999831 0.0220509 0)
(0.999165 0.0411663 0)
(1.00748 0.0768944 0)
(0.773654 0.0450712 0)
(0.361005 -0.0151713 0)
(1.04556 -0.074201 0)
(1.0871 -0.0678899 0)
(1.04774 -0.0523027 0)
(1.02458 -0.0384014 0)
(1.01239 -0.0261246 0)
(1.0065 -0.0167754 0)
(1.00362 -0.0102532 0)
(1.00219 -0.00560012 0)
(1.00152 -0.00198653 0)
(1.00139 0.00124732 0)
(1.00173 0.00457388 0)
(1.0027 0.00848276 0)
(1.00471 0.0138191 0)
(1.00881 0.0215397 0)
(1.01734 0.0323549 0)
(1.03444 0.0456924 0)
(1.06547 0.0597979 0)
(1.09408 0.0729204 0)
(0.842201 0.0557156 0)
(0.217082 -0.00164659 0)
(1.07586 -0.0503575 0)
(1.09983 -0.0487199 0)
(1.06464 -0.0401728 0)
(1.03997 -0.0330132 0)
(1.02379 -0.0257159 0)
(1.01401 -0.0183229 0)
(1.00852 -0.0115813 0)
(1.00566 -0.00576452 0)
(1.00448 -0.000435428 0)
(1.0048 0.00471005 0)
(1.00663 0.0100399 0)
(1.01056 0.0160833 0)
(1.01786 0.0229852 0)
(1.0305 0.0302363 0)
(1.05063 0.0372326 0)
(1.08034 0.0445689 0)
(1.10617 0.0517811 0)
(0.942798 0.041338 0)
(0.216449 0.0016682 0)
(0.175908 -0.000645481 0)
(1.01868 -0.0354136 0)
(1.10558 -0.0414249 0)
(1.07811 -0.0362636 0)
(1.05286 -0.0302416 0)
(1.0356 -0.0245171 0)
(1.02357 -0.0187795 0)
(1.01565 -0.0127421 0)
(1.01099 -0.00658817 0)
(1.00893 -0.000302772 0)
(1.00946 0.00589654 0)
(1.01255 0.0118578 0)
(1.01859 0.0176663 0)
(1.02832 0.0232259 0)
(1.04264 0.0286377 0)
(1.06336 0.0342916 0)
(1.09376 0.0402557 0)
(1.0941 0.0418821 0)
(0.828758 0.0227905 0)
(0.174834 0.000668372 0)
(0.15436 -0.000487379 0)
(0.957314 -0.0255594 0)
(1.10409 -0.0350995 0)
(1.08795 -0.0326607 0)
(1.06143 -0.0281148 0)
(1.04355 -0.0231217 0)
(1.03113 -0.0178504 0)
(1.02243 -0.0123303 0)
(1.01679 -0.00640874 0)
(1.01409 7.41009e-05 0)
(1.01473 0.00656056 0)
(1.01856 0.0124465 0)
(1.02543 0.017739 0)
(1.03565 0.0226894 0)
(1.05031 0.0274885 0)
(1.07199 0.0319629 0)
(1.10066 0.0358411 0)
(1.06907 0.033982 0)
(0.741143 0.0143706 0)
(0.152743 0.00051286 0)
(0.139832 -0.000358642 0)
(0.900347 -0.0192162 0)
(1.09645 -0.0301572 0)
(1.09606 -0.0292811 0)
(1.06908 -0.0255354 0)
(1.05038 -0.0214397 0)
(1.03743 -0.0167109 0)
(1.0284 -0.0114534 0)
(1.0224 -0.00573004 0)
(1.01936 0.000631901 0)
(1.01997 0.00700731 0)
(1.02399 0.0126508 0)
(1.03106 0.017612 0)
(1.04157 0.0220728 0)
(1.05684 0.0260209 0)
(1.07943 0.0295034 0)
(1.10292 0.0321748 0)
(1.03712 0.0281312 0)
(0.674467 0.0102566 0)
(0.137551 0.000388524 0)
(0.12918 -0.000274167 0)
(0.850587 -0.0148444 0)
(1.08406 -0.0260567 0)
(1.10173 -0.02639 0)
(1.07591 -0.0230901 0)
(1.0567 -0.0194497 0)
(1.04331 -0.0152411 0)
(1.03391 -0.0103568 0)
(1.02765 -0.00484669 0)
(1.0244 0.00132361 0)
(1.02489 0.00747262 0)
(1.0289 0.0128349 0)
(1.03609 0.0173879 0)
(1.0469 0.0212432 0)
(1.06256 0.0245624 0)
(1.08558 0.0275595 0)
(1.10208 0.0293493 0)
(1.00232 0.0236102 0)
(0.622517 0.00787748 0)
(0.12609 0.000310197 0)
(0.121053 -0.000211562 0)
(0.808224 -0.0116762 0)
(1.06874 -0.0224638 0)
(1.10525 -0.0237702 0)
(1.08216 -0.0209078 0)
(1.0625 -0.0174872 0)
(1.04884 -0.0135716 0)
(1.03918 -0.0090198 0)
(1.03265 -0.00378418 0)
(1.02917 0.00215426 0)
(1.02949 0.00803591 0)
(1.03344 0.013047 0)
(1.04069 0.017139 0)
(1.0516 0.0205073 0)
(1.06749 0.0234285 0)
(1.09088 0.0261206 0)
(1.09837 0.0270106 0)
(0.967125 0.0200564 0)
(0.580787 0.0063285 0)
(0.11698 0.000255188 0)
(0.114749 -0.000163496 0)
(0.772515 -0.00930554 0)
(1.05189 -0.019302 0)
(1.1076 -0.0213481 0)
(1.08802 -0.018866 0)
(1.06796 -0.0156019 0)
(1.05404 -0.0118534 0)
(1.0442 -0.00750971 0)
(1.03743 -0.00251931 0)
(1.03369 0.00315679 0)
(1.03379 0.00872834 0)
(1.03762 0.0133593 0)
(1.04481 0.0170439 0)
(1.05573 0.0200336 0)
(1.07184 0.0226289 0)
(1.09491 0.0249793 0)
(1.09184 0.0250658 0)
(0.932883 0.0173076 0)
(0.546277 0.0052672 0)
(0.109482 0.000216347 0)
(0.109827 -0.000125301 0)
(0.742528 -0.00746748 0)
(1.03458 -0.0164994 0)
(1.10898 -0.0190697 0)
(1.09358 -0.0169022 0)
(1.07323 -0.0137384 0)
(1.05903 -0.0100883 0)
(1.049 -0.00587163 0)
(1.04202 -0.0010578 0)
(1.038 0.00436439 0)
(1.03782 0.00961003 0)
(1.04143 0.0138778 0)
(1.04849 0.017201 0)
(1.0594 0.0198462 0)
(1.07572 0.0221536 0)
(1.09767 0.0241385 0)
(1.08289 0.0234634 0)
(0.900171 0.0152127 0)
(0.516933 0.00452537 0)
(0.103108 0.000189304 0)
(0.105997 -9.37325e-05 0)
(0.717443 -0.0059872 0)
(1.01762 -0.0139847 0)
(1.10953 -0.0168695 0)
(1.09903 -0.0149869 0)
(1.07841 -0.0118424 0)
(1.06391 -0.008232 0)
(1.05366 -0.00408648 0)
(1.04643 0.000609204 0)
(1.0421 0.00581483 0)
(1.04157 0.0107539 0)
(1.04488 0.0146806 0)
(1.05176 0.0176608 0)
(1.06264 0.0199687 0)
(1.07915 0.0220132 0)
(1.09909 0.0236135 0)
(1.07189 0.0221976 0)
(0.869117 0.0136565 0)
(0.491302 0.00401194 0)
(0.0975152 0.000171451 0)
(0.10307 -6.64741e-05 0)
(0.696616 -0.00474759 0)
(1.00165 -0.0116912 0)
(1.10937 -0.0147104 0)
(1.10431 -0.0130335 0)
(1.08358 -0.00986235 0)
(1.06876 -0.00623519 0)
(1.05824 -0.00210153 0)
(1.05072 0.00252282 0)
(1.04601 0.00756049 0)
(1.04505 0.0122247 0)
(1.04799 0.0158219 0)
(1.05465 0.0184629 0)
(1.06548 0.0204377 0)
(1.08213 0.0222218 0)
(1.09953 0.0234062 0)
(1.05915 0.0212709 0)
(0.839573 0.012547 0)
(0.468296 0.00367032 0)
(0.0924441 0.000160814 0)
(0.100925 -4.14442e-05 0)
(0.679573 -0.00366065 0)
(0.9871 -0.00954837 0)
(1.10873 -0.012506 0)
(1.10939 -0.0109548 0)
(1.08881 -0.00773512 0)
(1.07365 -0.00403509 0)
(1.06281 0.000148042 0)
(1.05493 0.00475209 0)
(1.04974 0.00966952 0)
(1.04826 0.0140844 0)
(1.05077 0.0173607 0)
(1.05717 0.019664 0)
(1.06792 0.0212976 0)
(1.08463 0.0228107 0)
(1.09897 0.0235884 0)
(1.04482 0.0207134 0)
(0.811225 0.0118175 0)
(0.447067 0.00346402 0)
(0.0876928 0.000156119 0)
(0.0994979 -1.67963e-05 0)
(0.66601 -0.00265709 0)
(0.974342 -0.0074817 0)
(1.10792 -0.0101978 0)
(1.11441 -0.00869278 0)
(1.09419 -0.00539086 0)
(1.07864 -0.00155688 0)
(1.06743 0.00273444 0)
(1.0591 0.0073803 0)
(1.05333 0.0122238 0)
(1.05122 0.0164097 0)
(1.05322 0.0193651 0)
(1.0593 0.0213221 0)
(1.06995 0.0225946 0)
(1.08668 0.0238428 0)
(1.0972 0.0241682 0)
(1.02899 0.0204888 0)
(0.783673 0.0114051 0)
(0.426934 0.00336446 0)
(0.0831012 0.000155837 0)
(0.0987728 9.55851e-06 0)
(0.655773 -0.00168246 0)
(0.963686 -0.0054186 0)
(1.10725 -0.00771998 0)
(1.11949 -0.00617084 0)
(1.09978 -0.00273869 0)
(1.08382 0.00129399 0)
(1.07217 0.00575743 0)
(1.06328 0.0105077 0)
(1.0568 0.0153209 0)
(1.05394 0.0192935 0)
(1.05531 0.0219227 0)
(1.06101 0.0235127 0)
(1.07153 0.0243997 0)
(1.08819 0.0253517 0)
(1.09415 0.0251787 0)
(1.01166 0.0206405 0)
(0.75647 0.0112855 0)
(0.407328 0.00335936 0)
(0.0785371 0.000159779 0)
(0.0987705 3.43247e-05 0)
(0.648832 -0.000689554 0)
(0.955434 -0.00328646 0)
(1.10707 -0.00500088 0)
(1.12479 -0.00330258 0)
(1.1057 0.000321597 0)
(1.08928 0.00462217 0)
(1.07709 0.00932999 0)
(1.06753 0.0142521 0)
(1.06019 0.0190789 0)
(1.05641 0.0228467 0)
(1.05704 0.0251344 0)
(1.06228 0.0263326 0)
(1.07265 0.0268143 0)
(1.08896 0.0274021 0)
(1.08961 0.0266523 0)
(0.992677 0.0211895 0)
(0.729111 0.0114392 0)
(0.387731 0.00343932 0)
(0.0738797 0.000167394 0)
(0.0995243 7.161e-05 0)
(0.645264 0.000329124 0)
(0.949902 -0.00100911 0)
(1.10773 -0.00195603 0)
(1.13051 8.37721e-06 0)
(1.11205 0.00389849 0)
(1.09511 0.00855205 0)
(1.08228 0.0135892 0)
(1.0719 0.0187538 0)
(1.06351 0.0236401 0)
(1.05863 0.0272082 0)
(1.05838 0.0291251 0)
(1.06306 0.0299013 0)
(1.07324 0.0299502 0)
(1.08884 0.0301172 0)
(1.08342 0.0286421 0)
(0.971823 0.0221656 0)
(0.70105 0.0118557 0)
(0.367661 0.00359731 0)
(0.069021 0.000178173 0)
(0.101241 0.000105593 0)
(0.645448 0.00149091 0)
(0.947431 0.00149294 0)
(1.10966 0.00152296 0)
(1.13685 0.0038623 0)
(1.11895 0.00814918 0)
(1.10143 0.0132533 0)
(1.08782 0.0187082 0)
(1.07643 0.0241876 0)
(1.06678 0.0291715 0)
(1.06057 0.0325368 0)
(1.05927 0.0340301 0)
(1.06329 0.0343457 0)
(1.07322 0.0339231 0)
(1.08762 0.0336017 0)
(1.07529 0.0312439 0)
(0.948755 0.0235979 0)
(0.671703 0.0125326 0)
(0.346664 0.00382842 0)
(0.063864 0.00019173 0)
(0.103985 0.000154867 0)
(0.64976 0.0029161 0)
(0.948522 0.00437059 0)
(1.11336 0.00553405 0)
(1.14403 0.00842993 0)
(1.12658 0.013256 0)
(1.10836 0.0189228 0)
(1.0938 0.0249007 0)
(1.08117 0.0307722 0)
(1.06997 0.0358764 0)
(1.06218 0.0389989 0)
(1.05966 0.0399999 0)
(1.06289 0.039813 0)
(1.07253 0.0388544 0)
(1.08511 0.0379851 0)
(1.0649 0.0345492 0)
(0.923014 0.0255376 0)
(0.640437 0.0134704 0)
(0.324299 0.00412817 0)
(0.0583225 0.000207415 0)
(0.108029 0.000220078 0)
(0.658748 0.00459142 0)
(0.953638 0.00777801 0)
(1.1193 0.0102725 0)
(1.15233 0.013915 0)
(1.13512 0.019448 0)
(1.11607 0.0258155 0)
(1.10033 0.0324367 0)
(1.08616 0.0387722 0)
(1.07308 0.0439999 0)
(1.06342 0.0468096 0)
(1.05949 0.0472406 0)
(1.06178 0.0464739 0)
(1.07107 0.0449004 0)
(1.08131 0.0434248 0)
(1.0518 0.0386663 0)
(0.894003 0.0280093 0)
(0.606561 0.0146588 0)
(0.300135 0.00448638 0)
(0.0523239 0.000224193 0)
(0.113709 0.000308479 0)
(0.673143 0.00668093 0)
(0.963439 0.0119164 0)
(1.12808 0.0159786 0)
(1.1621 0.020584 0)
(1.14483 0.0270523 0)
(1.12473 0.0342859 0)
(1.1075 0.0416709 0)
(1.09143 0.0485191 0)
(1.07608 0.0538251 0)
(1.06422 0.0562016 0)
(1.05862 0.0559401 0)
(1.05986 0.0545017 0)
(1.0687 0.052267 0)
(1.07604 0.0500402 0)
(1.03547 0.0436821 0)
(0.861004 0.0310324 0)
(0.569359 0.0160745 0)
(0.273795 0.00488644 0)
(0.0458236 0.000240544 0)
(0.121539 0.000434938 0)
(0.693876 0.00941422 0)
(0.978791 0.0170867 0)
(1.14035 0.0229891 0)
(1.17381 0.0288309 0)
(1.15601 0.0365238 0)
(1.13452 0.044804 0)
(1.11537 0.0530596 0)
(1.09692 0.0604155 0)
(1.07882 0.0656746 0)
(1.06441 0.0674277 0)
(1.0569 0.0662909 0)
(1.05701 0.0640648 0)
(1.06537 0.0610632 0)
(1.06896 0.0579626 0)
(1.01518 0.0496702 0)
(0.823166 0.0345927 0)
(0.52811 0.0176657 0)
(0.244983 0.00530039 0)
(0.0388175 0.000254204 0)
(0.132232 0.000615942 0)
(0.722249 0.0131711 0)
(1.00086 0.0237668 0)
(1.1569 0.0318586 0)
(1.18807 0.0392574 0)
(1.169 0.0485292 0)
(1.1456 0.058042 0)
(1.12394 0.067218 0)
(1.1025 0.0749597 0)
(1.08114 0.0799083 0)
(1.06382 0.0807396 0)
(1.05421 0.0785046 0)
(1.0531 0.0753054 0)
(1.06083 0.0713997 0)
(1.0595 0.0672249 0)
(0.990044 0.056652 0)
(0.779544 0.0386148 0)
(0.482169 0.0193396 0)
(0.213568 0.00568603 0)
(0.0313609 0.000262358 0)
(0.147059 0.000907475 0)
(0.760268 0.0185705 0)
(1.03128 0.0327422 0)
(1.17867 0.0435257 0)
(1.20561 0.052937 0)
(1.18412 0.0641181 0)
(1.15802 0.0749633 0)
(1.13305 0.0849249 0)
(1.10792 0.092718 0)
(1.08276 0.0968985 0)
(1.06221 0.0963792 0)
(1.05038 0.0927534 0)
(1.04798 0.0884043 0)
(1.05465 0.0835401 0)
(1.04694 0.0780049 0)
(0.958933 0.0645434 0)
(0.729169 0.0429422 0)
(0.431111 0.0209479 0)
(0.179688 0.00598498 0)
(0.0235914 0.000261669 0)
(0.168197 0.00140845 0)
(0.81116 0.0267527 0)
(1.0726 0.045545 0)
(1.20677 0.0598144 0)
(1.2271 0.0719938 0)
(1.20145 0.0848997 0)
(1.17151 0.0968776 0)
(1.14227 0.107115 0)
(1.11272 0.114285 0)
(1.08327 0.116984 0)
(1.05927 0.114521 0)
(1.04518 0.109133 0)
(1.04151 0.103442 0)
(1.04676 0.0975965 0)
(1.03045 0.0901405 0)
(0.920454 0.0730917 0)
(0.671254 0.0472843 0)
(0.375031 0.0222822 0)
(0.143947 0.00612326 0)
(0.0157587 0.00024779 0)
(0.199001 0.00251793 0)
(0.880624 0.0403796 0)
(1.1285 0.0660058 0)
(1.24165 0.0843223 0)
(1.25224 0.099124 0)
(1.22038 0.113199 0)
(1.18525 0.125368 0)
(1.15077 0.134767 0)
(1.11616 0.140207 0)
(1.0821 0.140422 0)
(1.05461 0.135255 0)
(1.03836 0.127655 0)
(1.03353 0.120389 0)
(1.03687 0.113405 0)
(1.00876 0.103487 0)
(0.872984 0.0818026 0)
(0.605624 0.0511878 0)
(0.315247 0.0231506 0)
(0.107867 0.00605889 0)
(0.00833665 0.000215599 0)
(0.241014 0.00871719 8.35606e-20)
(0.972709 0.0674736 7.47614e-20)
(1.19669 0.100406 -2.62811e-20)
(1.28015 0.120743 0)
(1.27824 0.137921 -6.82523e-34)
(1.23877 0.151348 1.00048e-20)
(1.19769 0.161955 -1.81307e-20)
(1.15746 0.169109 0)
(1.11746 0.171743 3.74409e-34)
(1.0785 0.168669 -2.2605e-20)
(1.04727 0.160307 0)
(1.02865 0.15028 -2.68801e-20)
(1.02269 0.141488 -7.92793e-20)
(1.02365 0.13396 -3.74228e-20)
(0.97851 0.120737 -1.12462e-20)
(0.811134 0.0924774 -6.68015e-21)
(0.526836 0.0552591 0)
(0.249931 0.0239439 4.65904e-21)
(0.0716399 0.00614145 5.47924e-21)
(0.00138848 0.000207074 9.72423e-20)
(0.270335 0.0239648 5.97734e-20)
(1.04882 0.109993 1.0449e-21)
(1.25296 0.149417 6.92273e-21)
(1.3145 0.169862 0)
(1.30098 0.186979 -3.44183e-20)
(1.25446 0.198204 -3.92999e-20)
(1.20746 0.206478 -1.8259e-20)
(1.16137 0.211112 -6.53794e-20)
(1.11567 0.210917 0)
(1.07129 0.204624 9.64813e-20)
(1.03571 0.193151 9.58114e-20)
(1.01428 0.180693 2.84934e-20)
(1.00621 0.169926 1.03969e-19)
(0.999982 0.159866 1.46163e-19)
(0.931787 0.141675 0)
(0.728794 0.104781 2.05313e-19)
(0.435009 0.0598292 2.93953e-19)
(0.182073 0.0244179 3.25514e-19)
(0.0361832 0.00517987 -3.70426e-19)
(-0.00543759 -0.000425401 -6.86586e-21)
(0.271598 0.0399187 0)
(1.09697 0.165224 1.02419e-20)
(1.29078 0.209647 0)
(1.34114 0.229616 -4.35091e-20)
(1.31873 0.243734 0)
(1.26627 0.251082 -7.67847e-20)
(1.21371 0.255639 3.72187e-20)
(1.16204 0.256687 -1.3123e-19)
(1.11091 0.252832 -3.14535e-21)
(1.06136 0.242727 4.98869e-20)
(1.02158 0.227779 2.11018e-19)
(0.997359 0.212701 -5.03265e-22)
(0.986863 0.199907 -7.56234e-20)
(0.973716 0.187237 -1.37885e-19)
(0.889666 0.163538 1.6284e-19)
(0.671111 0.117409 -2.87875e-19)
(0.383534 0.0646115 -3.79618e-20)
(0.149562 0.0250416 0)
(0.02045 0.00384591 -1.81062e-23)
(-0.00857711 -0.00122028 0)
(0.26531 0.0536405 1.20531e-19)
(1.12295 0.223696 -6.13983e-20)
(1.31401 0.274417 -5.00444e-20)
(1.35871 0.294593 2.02514e-20)
(1.33013 0.304833 -3.43473e-20)
(1.27321 0.307674 1.60732e-19)
(1.21606 0.30784 7.75978e-20)
(1.15955 0.30467 0)
(1.10354 0.296629 -2.49226e-19)
(1.04919 0.282298 0)
(1.00543 0.263604 -1.10767e-19)
(0.978479 0.245741 -1.37044e-19)
(0.965561 0.230748 -8.24731e-20)
(0.947031 0.215166 -1.00264e-19)
(0.854595 0.186104 0)
(0.634132 0.132107 0)
(0.358152 0.07239 -2.46518e-19)
(0.136783 0.0274105 4.86891e-20)
(0.0141435 0.00292077 -2.84145e-20)
(-0.0103567 -0.00206442 -3.27325e-20)
(0.2578 0.065722 -3.93307e-20)
(1.13433 0.282039 0)
(1.32669 0.340106 9.751e-20)
(1.36815 0.360973 5.59251e-20)
(1.33525 0.36741 8.02912e-20)
(1.27507 0.365755 0)
(1.21431 0.361436 7.5486e-20)
(1.1538 0.353877 1.45074e-19)
(1.09355 0.341451 1.27442e-19)
(1.03489 0.3227 2.35635e-19)
(0.987434 0.30011 0)
(0.957822 0.279345 -2.95925e-19)
(0.942512 0.262069 -1.78437e-19)
(0.919993 0.243794 -1.0549e-19)
(0.824894 0.209824 6.45198e-19)
(0.610545 0.148946 7.64454e-20)
(0.348031 0.0830674 3.57311e-19)
(0.136858 0.0318912 -1.69343e-18)
(0.0149618 0.00308396 9.99094e-19)
(-0.0107031 -0.00267735 -1.18616e-18)
(0.250627 0.076648 -7.69079e-21)
(1.13645 0.338433 6.89525e-21)
(1.33174 0.404835 -9.32154e-21)
(1.37109 0.42687 -5.2769e-20)
(1.33504 0.429739 -6.55282e-20)
(1.27242 0.423778 3.5866e-21)
(1.2088 0.415138 -8.19012e-20)
(1.145 0.40328 1.49832e-19)
(1.08114 0.386512 -2.74522e-19)
(1.01865 0.363344 0)
(0.967781 0.336807 -1.33941e-19)
(0.935596 0.313074 -3.22927e-21)
(0.917979 0.293531 -1.9555e-19)
(0.892534 0.272598 0)
(0.798377 0.234275 -1.4013e-19)
(0.594092 0.167808 -3.31363e-19)
(0.346316 0.0960749 8.78234e-19)
(0.143133 0.0384719 -8.66351e-19)
(0.0207 0.00489984 1.22826e-18)
(-0.00958658 -0.00288486 -1.25696e-18)
(0.244613 0.0867522 -8.10626e-22)
(1.13283 0.392211 1.19561e-21)
(1.3313 0.467608 -1.92445e-20)
(1.36893 0.491084 1.92605e-20)
(1.33055 0.49078 -3.26637e-20)
(1.26609 0.480797 0)
(1.20018 0.46809 -7.53479e-20)
(1.13362 0.452146 -1.56737e-19)
(1.06662 0.431208 -1.42511e-19)
(1.00069 0.403737 0)
(0.946671 0.373311 -1.3898e-19)
(0.912061 0.346682 -1.72674e-19)
(0.892269 0.324959 2.12446e-19)
(0.864581 0.301509 -1.29078e-19)
(0.773184 0.259267 -6.14516e-19)
(0.580166 0.188155 3.6343e-19)
(0.347555 0.110389 1.07733e-19)
(0.151882 0.0467297 0)
(0.028798 0.00818828 -1.19086e-18)
(-0.00760926 -0.00268205 -4.30505e-20)
(0.239857 0.0963591 5.09047e-21)
(1.12576 0.44318 -6.67665e-21)
(1.32686 0.527957 7.68171e-21)
(1.36293 0.552896 7.18038e-20)
(1.32275 0.549861 -1.1684e-19)
(1.25687 0.536223 1.47536e-19)
(1.18909 0.519756 1.6249e-19)
(1.12019 0.499994 -2.50443e-19)
(1.05042 0.475122 8.86634e-20)
(0.98138 0.443529 -5.80275e-19)
(0.924476 0.409372 -1.57579e-19)
(0.8876 0.379944 0)
(0.865785 0.356069 2.30756e-19)
(0.836361 0.330206 2.76861e-19)
(0.747848 0.284426 3.31472e-19)
(0.566141 0.209072 -3.96074e-19)
(0.347655 0.125579 -1.17044e-19)
(0.160012 0.0563636 1.37308e-19)
(0.0372574 0.0125423 0)
(-0.00524763 -0.00211827 -9.36678e-20)
(0.236258 0.105617 -9.78927e-20)
(1.11686 0.491438 5.09878e-20)
(1.3197 0.585808 -4.92948e-21)
(1.35411 0.611987 4.07514e-20)
(1.31243 0.606585 -5.03065e-20)
(1.24546 0.589657 -8.11366e-21)
(1.17614 0.569784 -1.77992e-19)
(1.10523 0.546517 -9.07266e-20)
(1.033 0.517974 -2.47929e-19)
(0.9611 0.48249 6.1547e-22)
(0.901509 0.444747 -4.93286e-19)
(0.862541 0.412566 4.17839e-19)
(0.838892 0.386514 -2.5403e-19)
(0.808033 0.358357 3.05782e-19)
(0.721767 0.309198 0)
(0.550681 0.229913 -2.15644e-19)
(0.344952 0.140973 1.26198e-22)
(0.165679 0.0664108 -6.00345e-19)
(0.0444533 0.0173928 -8.77079e-20)
(-0.00293459 -0.00134183 0)
(0.233698 0.114669 0)
(1.10706 0.537219 6.12878e-20)
(1.31063 0.641212 1.21174e-20)
(1.34326 0.668222 -3.41732e-20)
(1.30027 0.660744 -6.68973e-20)
(1.23245 0.640872 0)
(1.16187 0.617943 -7.94613e-20)
(1.08921 0.591499 -2.12374e-21)
(1.01473 0.559589 5.31501e-19)
(0.940166 0.520461 -7.95726e-20)
(0.878028 0.479234 -3.56376e-19)
(0.837108 0.444282 2.17051e-19)
(0.811811 0.416093 -4.42529e-21)
(0.779604 0.38553 3.2521e-19)
(0.695167 0.332819 2.0074e-19)
(0.533427 0.249363 -4.66675e-19)
(0.338894 0.155583 5.50998e-19)
(0.167645 0.0758492 1.62938e-19)
(0.0491844 0.0219389 6.68488e-19)
(-0.00108511 -0.000560379 -1.75826e-18)
(0.232108 0.123671 -3.74197e-20)
(1.097 0.580707 4.83166e-20)
(1.3004 0.69367 -3.05784e-20)
(1.33096 0.721567 2.04307e-20)
(1.28682 0.712229 0)
(1.21834 0.689736 -6.46115e-20)
(1.14671 0.6641 2.68501e-19)
(1.07249 0.63481 1.98305e-19)
(0.995954 0.599846 0)
(0.918849 0.557334 -1.14794e-18)
(0.854234 0.512718 9.64495e-19)
(0.811458 0.475013 0)
(0.784692 0.444699 2.97129e-19)
(0.751138 0.411509 -4.43862e-21)
(0.667901 0.354893 -6.42075e-19)
(0.513954 0.266903 2.50677e-19)
(0.329624 0.16848 0)
(0.165727 0.0837925 8.77823e-19)
(0.0509862 0.0255032 0)
(8.55977e-05 3.50386e-05 -8.32638e-19)
(0.231319 0.132673 4.6346e-20)
(1.08716 0.622063 6.70376e-20)
(1.28932 0.743299 -2.91626e-20)
(1.31769 0.772016 0)
(1.27255 0.761013 -5.20574e-20)
(1.20354 0.73621 0)
(1.13102 0.708181 -2.62462e-19)
(1.05542 0.676372 -9.10106e-20)
(0.97696 0.638682 9.32896e-20)
(0.897387 0.593055 -5.67763e-19)
(0.830294 0.545183 9.94252e-20)
(0.785715 0.504779 0)
(0.757547 0.472184 -6.34363e-19)
(0.722593 0.436016 4.37464e-21)
(0.640061 0.374958 0)
(0.492481 0.28206 2.85845e-21)
(0.31713 0.178958 8.05848e-19)
(0.160519 0.0895467 -7.58576e-19)
(0.0501665 0.0276708 2.22612e-19)
(0.000599085 0.000341082 0)
(0.231019 0.141567 0)
(1.07786 0.661337 8.3634e-20)
(1.27767 0.790258 4.93964e-20)
(1.30387 0.819646 -4.9309e-21)
(1.25781 0.807127 -1.35721e-20)
(1.18839 0.780292 -1.44883e-19)
(1.11512 0.750165 9.90124e-20)
(1.03827 0.716149 -1.083e-19)
(0.957995 0.676054 4.17386e-19)
(0.875982 0.627612 -9.07203e-19)
(0.806362 0.576668 -7.75583e-21)
(0.759952 0.533582 -2.7712e-19)
(0.73036 0.498391 1.02944e-18)
(0.693917 0.45874 -5.15087e-21)
(0.611593 0.392689 -4.98203e-19)
(0.469121 0.294446 -8.86677e-19)
(0.301936 0.186739 0)
(0.152303 0.0929974 0)
(0.0473224 0.0283983 2.39813e-19)
(0.000552341 0.00033686 -1.39005e-19)
(0.231327 0.15051 6.82803e-20)
(1.06905 0.698423 -1.93492e-19)
(1.26577 0.834616 -5.31698e-20)
(1.2898 0.864533 0)
(1.24289 0.85063 -3.03206e-21)
(1.17315 0.822008 -1.27988e-19)
(1.09925 0.79006 2.35994e-19)
(1.02127 0.754133 4.23283e-19)
(0.939274 0.711957 5.41303e-19)
(0.85483 0.66102 -7.4014e-19)
(0.782587 0.607239 -8.28221e-19)
(0.734203 0.5614 7.40859e-19)
(0.703071 0.523209 0)
(0.665019 0.479548 -2.26448e-19)
(0.58243 0.407852 -5.38642e-19)
(0.444068 0.303929 -6.36826e-19)
(0.284409 0.191549 -7.51221e-19)
(0.141544 0.0939462 2.21247e-19)
(0.0427746 0.0278279 -1.29317e-19)
(0.000157078 0.000138129 5.47679e-22)
(0.231799 0.15935 0)
(1.0609 0.73385 0)
(1.25385 0.876473 4.96078e-21)
(1.27568 0.906785 0)
(1.22802 0.891611 1.8155e-20)
(1.15804 0.861418 8.28507e-20)
(1.08361 0.827893 0)
(1.0046 0.790335 4.96738e-20)
(0.920979 0.746393 9.01406e-19)
(0.834106 0.69331 -1.701e-18)
(0.759095 0.636954 0)
(0.708498 0.588243 -4.76606e-19)
(0.675629 0.546648 -6.08172e-21)
(0.635816 0.49838 -4.78914e-21)
(0.552646 0.420275 5.75638e-19)
(0.417876 0.310349 -3.59973e-22)
(0.264927 0.193293 -1.61748e-18)
(0.128847 0.0924647 4.75755e-19)
(0.036999 0.0259894 1.39968e-19)
(-0.00046576 -0.000260892 0)
(0.232338 0.168057 -2.79835e-19)
(1.05317 0.767622 -1.35425e-19)
(1.24197 0.915911 -1.69553e-19)
(1.26169 0.946522 1.4011e-19)
(1.21337 0.930145 1.50247e-21)
(1.14322 0.898585 0)
(1.06836 0.86371 1.40136e-19)
(0.988431 0.824779 -1.11049e-19)
(0.903257 0.779378 7.73699e-21)
(0.81397 0.724521 1.2543e-19)
(0.73601 0.665869 1.07077e-18)
(0.682873 0.614204 -1.67002e-19)
(0.647973 0.56886 -6.33512e-19)
(0.606124 0.515158 -2.63548e-19)
(0.522245 0.42965 3.12541e-19)
(0.391051 0.313465 1.46418e-23)
(0.24416 0.191864 4.3534e-19)
(0.115079 0.0886903 -1.02281e-18)
(0.0308024 0.0232017 1.20349e-18)
(-0.00117142 -0.000774989 1.72854e-19)
(0.232757 0.176504 1.07563e-19)
(1.04585 0.799834 -7.71721e-20)
(1.23028 0.953027 1.22168e-20)
(1.24795 0.98384 9.81298e-20)
(1.19905 0.966344 1.30655e-20)
(1.12882 0.933583 -1.40035e-19)
(1.05361 0.897559 3.91445e-20)
(0.972863 0.857487 -4.61344e-19)
(0.886235 0.810915 -9.89557e-19)
(0.794554 0.754663 -1.01122e-18)
(0.713463 0.694039 0)
(0.657382 0.639462 -7.33392e-19)
(0.620016 0.590086 9.12683e-19)
(0.575653 0.529772 0)
(0.49115 0.435626 -6.68841e-19)
(0.363993 0.312883 3.97823e-19)
(0.223288 0.187059 -4.67598e-19)
(0.101549 0.0829958 -5.49836e-19)
(0.0248905 0.0198872 -9.68484e-19)
(-0.00185021 -0.00130963 -7.43844e-19)
(0.233512 0.184814 -1.22334e-19)
(1.03879 0.830471 8.24777e-20)
(1.21884 0.987891 1.87097e-19)
(1.23455 1.01882 1.48392e-19)
(1.18518 1.0003 -1.98757e-20)
(1.11492 0.966498 -6.97844e-20)
(1.03945 0.929494 1.3156e-19)
(0.957986 0.888502 -4.71562e-19)
(0.869996 0.841029 -5.84887e-19)
(0.775974 0.783753 1.05623e-18)
(0.691574 0.72152 2.34719e-18)
(0.632115 0.66425 0)
(0.591672 0.610587 0)
(0.544032 0.542198 -3.03005e-19)
(0.459037 0.437902 0)
(0.336809 0.307795 8.54517e-19)
(0.203526 0.178112 1.00452e-18)
(0.090211 0.0754049 0)
(0.0204884 0.0164698 0)
(-0.0023778 -0.00177372 7.98455e-19)
(0.233921 0.192685 1.40535e-19)
(1.03202 0.859522 1.15817e-19)
(1.2077 1.02063 1.36422e-19)
(1.22157 1.05158 -1.49024e-19)
(1.17182 1.03212 -3.55563e-20)
(1.10159 0.997407 6.31869e-20)
(1.02595 0.959575 -1.78941e-19)
(0.943863 0.917853 -6.56022e-22)
(0.85462 0.869727 -1.00165e-20)
(0.758321 0.811786 -9.71295e-21)
(0.670485 0.748368 1.20744e-18)
(0.607197 0.688786 0)
(0.562896 0.630608 9.22675e-19)
(0.5109 0.552606 6.45835e-19)
(0.425218 0.436479 1.55773e-18)
(0.308905 0.297003 4.59749e-19)
(0.186087 0.162615 -5.40154e-19)
(0.0850383 0.0633057 -3.16228e-19)
(0.0230014 0.0118597 0)
(-0.000969248 -0.00151393 8.57162e-19)
(0.234621 0.200566 -3.18358e-19)
(1.0255 0.887077 0)
(1.19685 1.05128 1.63618e-19)
(1.20903 1.08222 -1.28613e-19)
(1.15902 1.06191 6.0095e-20)
(1.08886 1.0264 -5.22079e-20)
(1.01314 0.98786 3.39143e-19)
(0.93053 0.945575 -3.89853e-20)
(0.840148 0.89702 0)
(0.74167 0.838735 -1.16043e-18)
(0.650337 0.774618 -2.6198e-18)
(0.582789 0.713254 1.07741e-19)
(0.533753 0.65036 1.27148e-18)
(0.476062 0.561449 0)
(0.388633 0.432028 1.0501e-18)
(0.278033 0.279608 0)
(0.169428 0.13543 0)
(0.0903688 0.0333349 -3.41632e-19)
(0.0534381 -0.00473813 0)
(0.0276251 0.0110049 2.2937e-19)
(0.234952 0.207841 -3.58219e-19)
(1.0192 0.913475 0)
(1.1863 1.08006 2.74373e-19)
(1.19687 1.11098 0)
(1.14673 1.08992 -4.02402e-20)
(1.07667 1.05375 0)
(1.00097 1.01466 1.53758e-20)
(0.917891 0.972008 6.40728e-20)
(0.826458 0.923272 7.28102e-20)
(0.725854 0.864983 -1.26811e-18)
(0.630951 0.800733 7.82478e-20)
(0.558656 0.738299 8.66367e-19)
(0.50384 0.670513 1.2382e-18)
(0.438726 0.569464 1.67245e-19)
(0.347427 0.426212 8.22075e-19)
(0.239449 0.256636 0)
(0.141759 0.0927221 1.13722e-18)
(0.0775815 -0.0138918 -6.6199e-19)
(0.0415741 0.0467999 7.59738e-19)
(-0.0596052 0.435151 -9.01223e-19)
(0.235252 0.214918 2.98169e-19)
(1.01284 0.938492 4.66427e-19)
(1.17597 1.10728 0)
(1.18497 1.13829 9.84654e-21)
(1.13476 1.11674 1.25929e-19)
(1.06477 1.08016 1.62612e-20)
(0.989106 1.04078 1.12362e-19)
(0.905535 0.998089 0)
(0.813019 0.949574 4.79473e-19)
(0.710204 0.891837 -6.58639e-20)
(0.611422 0.828224 0)
(0.533552 0.765624 0)
(0.471262 0.6925 1.10945e-18)
(0.396679 0.577414 -5.17432e-19)
(0.298478 0.421199 -8.32968e-19)
(0.188479 0.231773 0)
(0.0821409 0.097173 5.67213e-19)
(0.00649218 0.441915 -6.50244e-19)
(0.0317959 1.89379 -3.57198e-19)
(0.0626448 2.81039 -4.71442e-19)
(0.235316 0.221226 -2.24504e-19)
(1.00653 0.962291 -5.99975e-19)
(1.16586 1.13294 1.64239e-19)
(1.17331 1.16403 1.31757e-19)
(1.12316 1.14214 0)
(1.05322 1.10533 -1.08404e-20)
(0.977765 1.0659 1.45619e-19)
(0.893653 1.02339 -3.05687e-20)
(0.800101 0.975407 7.15892e-20)
(0.695096 0.918688 1.20575e-18)
(0.592348 0.856455 1.31912e-18)
(0.508398 0.794798 9.69463e-19)
(0.436867 0.716183 1.11551e-18)
(0.3516 0.584469 -1.21464e-18)
(0.24768 0.420745 -1.25711e-18)
(0.125472 0.272023 0)
(0.0448328 0.833388 0)
(0.0991638 2.55379 3.12e-19)
(0.101888 3.20196 0)
(0.104429 3.38807 6.87011e-19)
(0.23842 0.227052 0)
(1.00086 0.985138 0)
(1.15572 1.15686 0)
(1.16167 1.18804 4.06784e-20)
(1.11156 1.16587 1.17513e-19)
(1.04182 1.12913 -3.4167e-20)
(0.966843 1.08992 9.03621e-20)
(0.882189 1.04779 -2.95457e-20)
(0.787654 1.00062 5.93158e-19)
(0.680544 0.945389 -1.82493e-20)
(0.57386 0.885316 2.60167e-18)
(0.483504 0.825578 -1.11911e-19)
(0.400794 0.742405 1.34894e-19)
(0.306013 0.588794 1.75822e-19)
(0.186577 0.434419 -6.67833e-21)
(0.10118 0.965233 3.54704e-21)
(0.139698 2.72421 -1.64856e-18)
(0.147079 3.29348 -6.11312e-19)
(0.136135 3.42596 3.07697e-19)
(0.123683 3.44788 -3.37659e-19)
(0.157915 0.178807 1.28811e-19)
(0.9907 1.00994 0)
(1.14525 1.17925 -3.26546e-19)
(1.1505 1.21073 -3.58548e-19)
(1.10071 1.18863 2.93499e-19)
(1.0314 1.15217 4.62068e-20)
(0.956252 1.11285 -8.83866e-20)
(0.871234 1.07139 3.15814e-19)
(0.775818 1.02536 -4.80842e-19)
(0.666823 0.972104 0)
(0.556332 0.914999 1.27123e-18)
(0.459381 0.857588 -7.889e-19)
(0.363968 0.774108 0)
(0.253489 0.593062 1.58093e-19)
(0.145837 0.759275 3.85885e-19)
(0.155127 2.49861 -4.51616e-19)
(0.210728 3.32354 4.98842e-19)
(0.191285 3.43864 2.69525e-19)
(0.158736 3.46009 2.97155e-19)
(0.137316 3.47029 4.75973e-19)
(0.278769 0.265764 -2.27146e-19)
(0.97481 1.01993 0)
(1.12731 1.20498 3.62091e-19)
(1.13606 1.24176 3.9985e-19)
(1.08365 1.22189 -3.32357e-19)
(1.01366 1.18586 -9.25252e-20)
(0.937515 1.14813 6.2502e-20)
(0.852006 1.10793 2.4904e-20)
(0.755317 1.06412 4.54382e-19)
(0.64365 1.01483 1.03015e-18)
(0.528115 0.964498 7.15028e-20)
(0.420691 0.91186 6.99704e-19)
(0.298377 0.814728 1.24938e-19)
(0.213959 0.936096 -1.59517e-19)
(0.228403 2.35073 -3.57894e-19)
(0.287943 3.3268 3.34824e-19)
(0.2716 3.46746 -3.7659e-19)
(0.236134 3.48929 -2.18578e-19)
(0.199554 3.51658 -1.7536e-19)
(0.148946 3.51025 -1.69175e-20)
(0.267991 0.263384 0)
(0.972803 1.0431 1.06697e-19)
(1.11915 1.22865 -7.57214e-20)
(1.12567 1.26555 -4.86526e-20)
(1.07299 1.24518 -2.35225e-19)
(1.00297 1.20935 1.00357e-19)
(0.926537 1.17181 -2.41769e-20)
(0.840838 1.13244 2.19972e-20)
(0.743641 1.0901 -4.70676e-19)
(0.630713 1.04366 -2.74371e-20)
(0.512477 0.998391 -2.29545e-18)
(0.399985 0.949038 9.99003e-20)
(0.283213 0.881448 -1.17231e-19)
(0.254028 1.49005 -1.48038e-19)
(0.32741 3.10355 3.47564e-20)
(0.347192 3.46599 1.14001e-21)
(0.306465 3.52105 5.43745e-19)
(0.269547 3.54748 2.61935e-19)
(0.221138 3.57047 -5.80206e-20)
(0.163831 3.56624 -7.82038e-20)
(0.252306 0.261483 2.70371e-19)
(0.969335 1.06886 7.34654e-19)
(1.11055 1.25438 -2.18359e-19)
(1.11466 1.29069 -1.8444e-19)
(1.06174 1.26985 0)
(0.99187 1.23405 2.02585e-19)
(0.915421 1.19677 -5.36065e-21)
(0.829802 1.15819 1.88649e-20)
(0.732415 1.11742 -5.26231e-20)
(0.618762 1.0741 -9.23815e-19)
(0.498671 1.03421 -1.05516e-18)
(0.382957 0.987827 -8.11266e-19)
(0.283727 1.01142 -8.9248e-19)
(0.322969 2.21001 9.16044e-19)
(0.413294 3.37764 7.47328e-19)
(0.391037 3.52349 0)
(0.344843 3.56764 0)
(0.30676 3.60735 -4.57948e-20)
(0.256821 3.66559 0)
(0.175979 3.64197 -3.9979e-20)
(0.241845 0.263432 -4.0913e-19)
(0.963751 1.09554 -6.29552e-19)
(1.10053 1.28136 0)
(1.10231 1.31658 1.17137e-20)
(1.04924 1.29513 -2.64075e-19)
(0.979667 1.25927 3.41533e-19)
(0.903533 1.22228 1.40934e-20)
(0.818204 1.18439 9.08629e-21)
(0.720868 1.14514 -3.25201e-19)