0.490941 	0.929471 	0.00612777 	3.00281 	0
0.561075 	0.929471 	0.00612777 	3.00281 	0
0.63121 	0.929471 	0.00612777 	3.00281 	0
0.701344 	0.929471 	0.00612777 	3.00281 	0
0.771478 	0.929471 	0.00612777 	3.00281 	0
0.841613 	0.929471 	0.00612777 	3.00281 	0
0.911747 	0.929471 	0.00612777 	3.00281 	0
0.981881 	0.929471 	0.00612777 	3.00281 	0
1.05202 	0.929471 	0.00612777 	3.00281 	0
1.12215 	0.929471 	0.00612777 	3.00281 	0
1.19228 	0.929471 	0.00612777 	3.00281 	0
1.26242 	0.903332 	0.0115181 	3.00796 	0
1.33255 	0.903332 	0.0115181 	3.00796 	0
1.40269 	0.903332 	0.0115181 	3.00796 	0
1.47282 	0.903332 	0.0115181 	3.00796 	0
1.54296 	0.903332 	0.0115181 	3.00796 	0
1.61309 	0.903332 	0.0115181 	3.00796 	0
1.68323 	0.903332 	0.0115181 	3.00796 	0
1.75336 	0.903332 	0.0115181 	3.00796 	0
1.82349 	0.853473 	0.0148506 	3.0239 	3.26632e-19
1.89363 	0.853473 	0.0148506 	3.0239 	3.26632e-19
1.96376 	0.853473 	0.0148506 	3.0239 	3.26632e-19
2.0339 	0.853473 	0.0148506 	3.0239 	3.26632e-19
2.10403 	0.853473 	0.0148506 	3.0239 	3.26632e-19
2.17417 	0.853473 	0.0148506 	3.0239 	3.26632e-19
2.2443 	0.853473 	0.0148506 	3.0239 	3.26632e-19
2.31443 	0.853473 	0.0148506 	3.0239 	3.26632e-19
2.38457 	0.853473 	0.0148506 	3.0239 	3.26632e-19
2.4547 	0.853473 	0.0148506 	3.0239 	3.26632e-19
2.52484 	0.853473 	0.0148506 	3.0239 	3.26632e-19
2.59497 	0.818948 	0.00736519 	3.03686 	-5.12646e-19
2.66511 	0.818948 	0.00736519 	3.03686 	-5.12646e-19
2.73524 	0.818948 	0.00736519 	3.03686 	-5.12646e-19
2.80538 	0.818948 	0.00736519 	3.03686 	-5.12646e-19
2.87551 	0.818948 	0.00736519 	3.03686 	-5.12646e-19
2.94564 	0.818948 	0.00736519 	3.03686 	-5.12646e-19
3.01578 	0.818948 	0.00736519 	3.03686 	-5.12646e-19
3.08591 	0.818948 	0.00736519 	3.03686 	-5.12646e-19
3.15605 	0.818948 	0.00736519 	3.03686 	-5.12646e-19
3.22618 	0.818948 	0.00736519 	3.03686 	-5.12646e-19
3.29632 	0.786659 	0.0200838 	3.04338 	5.17266e-19
3.36645 	0.786659 	0.0200838 	3.04338 	5.17266e-19
3.43659 	0.786659 	0.0200838 	3.04338 	5.17266e-19
3.50672 	0.786659 	0.0200838 	3.04338 	5.17266e-19
3.57685 	0.786659 	0.0200838 	3.04338 	5.17266e-19
3.64699 	0.786659 	0.0200838 	3.04338 	5.17266e-19
3.71712 	0.786659 	0.0200838 	3.04338 	5.17266e-19
3.78726 	0.786659 	0.0200838 	3.04338 	5.17266e-19
3.85739 	0.786659 	0.0200838 	3.04338 	5.17266e-19
3.92753 	0.786659 	0.0200838 	3.04338 	5.17266e-19
3.99766 	0.786659 	0.0200838 	3.04338 	5.17266e-19
4.06779 	0.768391 	0.00366333 	3.05027 	-1.44569e-20
4.13793 	0.768391 	0.00366333 	3.05027 	-1.44569e-20
4.20806 	0.768391 	0.00366333 	3.05027 	-1.44569e-20
4.2782 	0.768391 	0.00366333 	3.05027 	-1.44569e-20
4.34833 	0.768391 	0.00366333 	3.05027 	-1.44569e-20
4.41847 	0.768391 	0.00366333 	3.05027 	-1.44569e-20
4.4886 	0.743363 	0.0165203 	3.05779 	0
4.55874 	0.743363 	0.0165203 	3.05779 	0
4.62887 	0.743363 	0.0165203 	3.05779 	0
4.699 	0.743363 	0.0165203 	3.05779 	0
4.76914 	0.743363 	0.0165203 	3.05779 	0
4.83927 	0.743363 	0.0165203 	3.05779 	0
4.90941 	0.743363 	0.0165203 	3.05779 	0
4.97954 	0.743363 	0.0165203 	3.05779 	0
5.04968 	0.743363 	0.0165203 	3.05779 	0
5.11981 	0.743363 	0.0165203 	3.05779 	0
5.18994 	0.720867 	0.00581009 	3.06492 	-6.73942e-21
5.26008 	0.720867 	0.00581009 	3.06492 	-6.73942e-21
5.33021 	0.720867 	0.00581009 	3.06492 	-6.73942e-21
5.40035 	0.720867 	0.00581009 	3.06492 	-6.73942e-21
5.47048 	0.720867 	0.00581009 	3.06492 	-6.73942e-21
5.54062 	0.720867 	0.00581009 	3.06492 	-6.73942e-21
5.61075 	0.720867 	0.00581009 	3.06492 	-6.73942e-21
5.68089 	0.69218 	0.0112794 	3.07452 	0
5.75102 	0.69218 	0.0112794 	3.07452 	0
5.82115 	0.69218 	0.0112794 	3.07452 	0
5.89129 	0.69218 	0.0112794 	3.07452 	0
5.96142 	0.69218 	0.0112794 	3.07452 	0
6.03156 	0.69218 	0.0112794 	3.07452 	0
6.10169 	0.69218 	0.0112794 	3.07452 	0
6.17183 	0.69218 	0.0112794 	3.07452 	0
6.24196 	0.69218 	0.0112794 	3.07452 	0
6.3121 	0.663206 	0.00703951 	3.08223 	0
6.38223 	0.663206 	0.00703951 	3.08223 	0
6.45236 	0.663206 	0.00703951 	3.08223 	0
6.5225 	0.663206 	0.00703951 	3.08223 	0
6.59263 	0.663206 	0.00703951 	3.08223 	0
6.66277 	0.663206 	0.00703951 	3.08223 	0
6.7329 	0.663206 	0.00703951 	3.08223 	0
6.80304 	0.663206 	0.00703951 	3.08223 	0
6.87317 	0.636887 	0.00631267 	3.09199 	2.17511e-19
6.9433 	0.636887 	0.00631267 	3.09199 	2.17511e-19
7.01344 	0.636887 	0.00631267 	3.09199 	2.17511e-19
7.08357 	0.636887 	0.00631267 	3.09199 	2.17511e-19
7.15371 	0.636887 	0.00631267 	3.09199 	2.17511e-19
7.22384 	0.636887 	0.00631267 	3.09199 	2.17511e-19
7.29398 	0.636887 	0.00631267 	3.09199 	2.17511e-19
7.36411 	0.636887 	0.00631267 	3.09199 	2.17511e-19
7.43425 	0.636887 	0.00631267 	3.09199 	2.17511e-19
7.50438 	0.606851 	0.00847027 	3.09911 	-1.60045e-18
7.57451 	0.606851 	0.00847027 	3.09911 	-1.60045e-18
7.64465 	0.606851 	0.00847027 	3.09911 	-1.60045e-18
7.71478 	0.606851 	0.00847027 	3.09911 	-1.60045e-18
7.78492 	0.606851 	0.00847027 	3.09911 	-1.60045e-18
7.85505 	0.606851 	0.00847027 	3.09911 	-1.60045e-18
7.92519 	0.606851 	0.00847027 	3.09911 	-1.60045e-18
7.99532 	0.606851 	0.00847027 	3.09911 	-1.60045e-18
8.06545 	0.585069 	0.00162784 	3.1057 	1.60975e-18
8.13559 	0.585069 	0.00162784 	3.1057 	1.60975e-18
8.20572 	0.585069 	0.00162784 	3.1057 	1.60975e-18
8.27586 	0.585069 	0.00162784 	3.1057 	1.60975e-18
8.34599 	0.585069 	0.00162784 	3.1057 	1.60975e-18
8.41613 	0.585069 	0.00162784 	3.1057 	1.60975e-18
8.48626 	0.585069 	0.00162784 	3.1057 	1.60975e-18
8.5564 	0.585069 	0.00162784 	3.1057 	1.60975e-18
8.62653 	0.585069 	0.00162784 	3.1057 	1.60975e-18
8.69666 	0.553012 	0.0121127 	3.11907 	1.27758e-18
8.7668 	0.553012 	0.0121127 	3.11907 	1.27758e-18
8.83693 	0.553012 	0.0121127 	3.11907 	1.27758e-18
8.90707 	0.553012 	0.0121127 	3.11907 	1.27758e-18
8.9772 	0.553012 	0.0121127 	3.11907 	1.27758e-18
9.04734 	0.553012 	0.0121127 	3.11907 	1.27758e-18
9.11747 	0.553012 	0.0121127 	3.11907 	1.27758e-18
9.18761 	0.553012 	0.0121127 	3.11907 	1.27758e-18
9.25774 	0.523378 	0.00587613 	3.11829 	-1.1679e-18
9.32787 	0.523378 	0.00587613 	3.11829 	-1.1679e-18
9.39801 	0.523378 	0.00587613 	3.11829 	-1.1679e-18
9.46814 	0.523378 	0.00587613 	3.11829 	-1.1679e-18
9.53828 	0.523378 	0.00587613 	3.11829 	-1.1679e-18
9.60841 	0.523378 	0.00587613 	3.11829 	-1.1679e-18
9.67855 	0.523378 	0.00587613 	3.11829 	-1.1679e-18
9.74868 	0.523378 	0.00587613 	3.11829 	-1.1679e-18
9.81881 	0.507329 	0.0180176 	3.12942 	-3.9552e-19
9.88895 	0.507329 	0.0180176 	3.12942 	-3.9552e-19
9.95908 	0.507329 	0.0180176 	3.12942 	-3.9552e-19
10.0292 	0.507329 	0.0180176 	3.12942 	-3.9552e-19
10.0994 	0.507329 	0.0180176 	3.12942 	-3.9552e-19
10.1695 	0.507329 	0.0180176 	3.12942 	-3.9552e-19
10.2396 	0.507329 	0.0180176 	3.12942 	-3.9552e-19
10.3098 	0.507329 	0.0180176 	3.12942 	-3.9552e-19
10.3799 	0.507329 	0.0180176 	3.12942 	-3.9552e-19
10.45 	0.507329 	0.0180176 	3.12942 	-3.9552e-19
10.5202 	0.507329 	0.0180176 	3.12942 	-3.9552e-19
10.5903 	0.507329 	0.0180176 	3.12942 	-3.9552e-19
10.6604 	0.528057 	0.0157225 	3.12546 	5.82147e-19
10.7306 	0.4763 	0.0360031 	3.13967 	0
10.8007 	0.4763 	0.0360031 	3.13967 	0
10.8708 	0.4763 	0.0360031 	3.13967 	0
10.941 	0.4763 	0.0360031 	3.13967 	0
11.0111 	0.4763 	0.0360031 	3.13967 	0
11.0812 	0.4763 	0.0360031 	3.13967 	0
11.1514 	0.4763 	0.0360031 	3.13967 	0
11.2215 	0.4763 	0.0360031 	3.13967 	0
11.2916 	0.4763 	0.0360031 	3.13967 	0
11.3618 	0.4763 	0.0360031 	3.13967 	0
11.4319 	0.4763 	0.0360031 	3.13967 	0
11.502 	0.4763 	0.0360031 	3.13967 	0
11.5722 	0.4763 	0.0360031 	3.13967 	0
11.6423 	0.4763 	0.0360031 	3.13967 	0
11.7124 	0.484609 	0.02313 	3.1292 	0
11.7826 	0.423354 	0.0772113 	3.16096 	6.20847e-19
11.8527 	0.423354 	0.0772113 	3.16096 	6.20847e-19
11.9228 	0.423354 	0.0772113 	3.16096 	6.20847e-19
11.993 	0.423354 	0.0772113 	3.16096 	6.20847e-19
12.0631 	0.423354 	0.0772113 	3.16096 	6.20847e-19
12.1332 	0.423354 	0.0772113 	3.16096 	6.20847e-19
12.2034 	0.325305 	0.0699804 	3.1872 	-2.85011e-19
12.2735 	0.325305 	0.0699804 	3.1872 	-2.85011e-19
12.3437 	0.325305 	0.0699804 	3.1872 	-2.85011e-19
12.4138 	0.325305 	0.0699804 	3.1872 	-2.85011e-19
12.4839 	0.325305 	0.0699804 	3.1872 	-2.85011e-19
12.5541 	0.325305 	0.0699804 	3.1872 	-2.85011e-19
12.6242 	0.325305 	0.0699804 	3.1872 	-2.85011e-19
12.6943 	0.325305 	0.0699804 	3.1872 	-2.85011e-19
12.7645 	0.325305 	0.0699804 	3.1872 	-2.85011e-19
12.8346 	0.210015 	0.0364765 	3.1797 	2.0392e-19
12.9047 	0.195393 	0.138101 	3.2233 	-6.17148e-20
12.9749 	0.195393 	0.138101 	3.2233 	-6.17148e-20
13.045 	0.195393 	0.138101 	3.2233 	-6.17148e-20
13.1151 	0.195393 	0.138101 	3.2233 	-6.17148e-20
13.1853 	0.195393 	0.138101 	3.2233 	-6.17148e-20
13.2554 	0.195393 	0.138101 	3.2233 	-6.17148e-20
13.3255 	0.195393 	0.138101 	3.2233 	-6.17148e-20
13.3957 	0.422439 	0.143281 	3.19447 	9.97743e-19
13.4658 	0.422439 	0.143281 	3.19447 	9.97743e-19
13.5359 	0.422439 	0.143281 	3.19447 	9.97743e-19
13.6061 	0.422439 	0.143281 	3.19447 	9.97743e-19
13.6762 	0.422439 	0.143281 	3.19447 	9.97743e-19
13.7463 	0.422439 	0.143281 	3.19447 	9.97743e-19
13.8165 	0.501554 	0.116968 	2.86916 	-8.17836e-19
13.8866 	0.703653 	0.13953 	2.96326 	2.62915e-19
13.9567 	0.703653 	0.13953 	2.96326 	2.62915e-19
14.0269 	0.122486 	0.248111 	3.03619 	-1.08657e-18
14.097 	0.122486 	0.248111 	3.03619 	-1.08657e-18
14.1671 	0.122486 	0.248111 	3.03619 	-1.08657e-18
14.2373 	0.122486 	0.248111 	3.03619 	-1.08657e-18
14.3074 	0.122486 	0.248111 	3.03619 	-1.08657e-18
14.3776 	0.122486 	0.248111 	3.03619 	-1.08657e-18
14.4477 	0.122486 	0.248111 	3.03619 	-1.08657e-18
14.5178 	0.122486 	0.248111 	3.03619 	-1.08657e-18
14.588 	0.122486 	0.248111 	3.03619 	-1.08657e-18
14.6581 	0.122486 	0.248111 	3.03619 	-1.08657e-18
14.7282 	0.122486 	0.248111 	3.03619 	-1.08657e-18
14.7984 	0.122486 	0.248111 	3.03619 	-1.08657e-18
14.8685 	0.122486 	0.248111 	3.03619 	-1.08657e-18
14.9386 	-0.0544331 	0.342357 	3.1949 	0
15.0088 	-0.0544331 	0.342357 	3.1949 	0
15.0789 	-0.0544331 	0.342357 	3.1949 	0
15.149 	-0.0544331 	0.342357 	3.1949 	0
15.2192 	-0.0544331 	0.342357 	3.1949 	0
15.2893 	-0.563257 	0.34171 	3.42299 	-3.68175e-19
15.3594 	-0.563257 	0.34171 	3.42299 	-3.68175e-19
15.4296 	-0.563257 	0.34171 	3.42299 	-3.68175e-19
15.4997 	-0.563257 	0.34171 	3.42299 	-3.68175e-19
15.5698 	-0.563257 	0.34171 	3.42299 	-3.68175e-19
15.64 	-0.563257 	0.34171 	3.42299 	-3.68175e-19
15.7101 	-1.06021 	0.396783 	3.49402 	0
15.7802 	-1.06021 	0.396783 	3.49402 	0
15.8504 	-0.956747 	0.64969 	3.5526 	1.53148e-18
15.9205 	-0.956747 	0.64969 	3.5526 	1.53148e-18
15.9906 	-0.956747 	0.64969 	3.5526 	1.53148e-18
16.0608 	-0.956747 	0.64969 	3.5526 	1.53148e-18
16.1309 	-0.956747 	0.64969 	3.5526 	1.53148e-18
16.201 	-0.956747 	0.64969 	3.5526 	1.53148e-18
16.2712 	-0.956747 	0.64969 	3.5526 	1.53148e-18
16.3413 	-0.956747 	0.64969 	3.5526 	1.53148e-18
16.4114 	-0.956747 	0.64969 	3.5526 	1.53148e-18
16.4816 	-0.956747 	0.64969 	3.5526 	1.53148e-18
16.5517 	-0.956747 	0.64969 	3.5526 	1.53148e-18
16.6219 	-0.956747 	0.64969 	3.5526 	1.53148e-18
16.692 	-0.956747 	0.64969 	3.5526 	1.53148e-18
16.7621 	-0.956747 	0.64969 	3.5526 	1.53148e-18
16.8323 	-0.505912 	0.875239 	3.11946 	2.75688e-19
16.9024 	-0.505912 	0.875239 	3.11946 	2.75688e-19
16.9725 	-0.505912 	0.875239 	3.11946 	2.75688e-19
17.0427 	-0.505912 	0.875239 	3.11946 	2.75688e-19
17.1128 	-0.505912 	0.875239 	3.11946 	2.75688e-19
17.1829 	-0.505912 	0.875239 	3.11946 	2.75688e-19
17.2531 	-0.505912 	0.875239 	3.11946 	2.75688e-19
17.3232 	-0.505912 	0.875239 	3.11946 	2.75688e-19
17.3933 	-0.505912 	0.875239 	3.11946 	2.75688e-19
17.4635 	-0.505912 	0.875239 	3.11946 	2.75688e-19
17.5336 	-0.416276 	0.91653 	3.036 	-2.93822e-19
17.6037 	-0.416276 	0.91653 	3.036 	-2.93822e-19
17.6739 	-0.416276 	0.91653 	3.036 	-2.93822e-19
17.744 	-0.50873 	1.04561 	3.16605 	3.6365e-19
17.8141 	-0.50873 	1.04561 	3.16605 	3.6365e-19
17.8843 	-0.50873 	1.04561 	3.16605 	3.6365e-19
17.9544 	-0.50873 	1.04561 	3.16605 	3.6365e-19
18.0245 	-0.50873 	1.04561 	3.16605 	3.6365e-19
18.0947 	-0.50873 	1.04561 	3.16605 	3.6365e-19
18.1648 	-0.50873 	1.04561 	3.16605 	3.6365e-19
18.2349 	-0.50873 	1.04561 	3.16605 	3.6365e-19
18.3051 	-0.50873 	1.04561 	3.16605 	3.6365e-19
18.3752 	-0.219274 	1.00833 	2.77024 	-2.76509e-19
18.4453 	-0.219274 	1.00833 	2.77024 	-2.76509e-19
18.5155 	-0.219274 	1.00833 	2.77024 	-2.76509e-19
18.5856 	-0.219274 	1.00833 	2.77024 	-2.76509e-19
18.6557 	-0.219274 	1.00833 	2.77024 	-2.76509e-19
18.7259 	-0.219274 	1.00833 	2.77024 	-2.76509e-19
18.796 	-0.219274 	1.00833 	2.77024 	-2.76509e-19
18.8662 	-0.152138 	1.04408 	2.82541 	1.38489e-19
18.9363 	-0.152138 	1.04408 	2.82541 	1.38489e-19
19.0064 	-0.152138 	1.04408 	2.82541 	1.38489e-19
19.0766 	-0.152138 	1.04408 	2.82541 	1.38489e-19
19.1467 	-0.152138 	1.04408 	2.82541 	1.38489e-19
19.2168 	-0.152138 	1.04408 	2.82541 	1.38489e-19
19.287 	-0.152138 	1.04408 	2.82541 	1.38489e-19
19.3571 	-0.152138 	1.04408 	2.82541 	1.38489e-19
19.4272 	-0.152138 	1.04408 	2.82541 	1.38489e-19
19.4974 	-0.152138 	1.04408 	2.82541 	1.38489e-19
19.5675 	-0.152138 	1.04408 	2.82541 	1.38489e-19
19.6376 	-0.152138 	1.04408 	2.82541 	1.38489e-19
19.7078 	-0.152138 	1.04408 	2.82541 	1.38489e-19
19.7779 	-0.00473496 	0.994371 	2.45375 	-8.3354e-20
19.848 	-0.00473496 	0.994371 	2.45375 	-8.3354e-20
19.9182 	-0.00473496 	0.994371 	2.45375 	-8.3354e-20
19.9883 	-0.00473496 	0.994371 	2.45375 	-8.3354e-20
20.0584 	-0.00473496 	0.994371 	2.45375 	-8.3354e-20
20.1286 	-0.00473496 	0.994371 	2.45375 	-8.3354e-20
20.1987 	-0.00473496 	0.994371 	2.45375 	-8.3354e-20
20.2688 	-0.00971148 	0.997893 	2.44635 	-1.17813e-20
20.339 	-0.00971148 	0.997893 	2.44635 	-1.17813e-20
20.4091 	-0.00971148 	0.997893 	2.44635 	-1.17813e-20
20.4792 	-0.00971148 	0.997893 	2.44635 	-1.17813e-20
20.5494 	-0.00971148 	0.997893 	2.44635 	-1.17813e-20
20.6195 	-0.00971148 	0.997893 	2.44635 	-1.17813e-20
20.6896 	-0.00971148 	0.997893 	2.44635 	-1.17813e-20
20.7598 	-0.00971148 	0.997893 	2.44635 	-1.17813e-20
20.8299 	-0.00971148 	0.997893 	2.44635 	-1.17813e-20
20.9 	-0.00971148 	0.997893 	2.44635 	-1.17813e-20
20.9702 	-0.00971148 	0.997893 	2.44635 	-1.17813e-20
21.0403 	-0.00971148 	0.997893 	2.44635 	-1.17813e-20
21.1105 	-0.00971148 	0.997893 	2.44635 	-1.17813e-20
21.1806 	-0.00971148 	0.997893 	2.44635 	-1.17813e-20
21.2507 	-0.00971148 	0.997893 	2.44635 	-1.17813e-20
21.3209 	-0.00971148 	0.997893 	2.44635 	-1.17813e-20
21.391 	-0.00971148 	0.997893 	2.44635 	-1.17813e-20
21.4611 	0.00282081 	0.705285 	1.9148 	-5.99939e-20
21.5313 	0.00282081 	0.705285 	1.9148 	-5.99939e-20
21.6014 	0.00282081 	0.705285 	1.9148 	-5.99939e-20
21.6715 	-0.105566 	0.620097 	1.41967 	1.2015e-19
21.7417 	-0.105566 	0.620097 	1.41967 	1.2015e-19
21.8118 	-0.105566 	0.620097 	1.41967 	1.2015e-19
21.8819 	-0.105566 	0.620097 	1.41967 	1.2015e-19
21.9521 	-0.105566 	0.620097 	1.41967 	1.2015e-19
22.0222 	-0.237937 	0.936987 	2.35407 	-1.59892e-19
22.0923 	-0.237937 	0.936987 	2.35407 	-1.59892e-19
22.1625 	-0.237937 	0.936987 	2.35407 	-1.59892e-19
22.2326 	-0.237937 	0.936987 	2.35407 	-1.59892e-19
22.3027 	-0.237937 	0.936987 	2.35407 	-1.59892e-19
22.3729 	-0.237937 	0.936987 	2.35407 	-1.59892e-19
22.443 	-0.237937 	0.936987 	2.35407 	-1.59892e-19
22.5131 	-0.237937 	0.936987 	2.35407 	-1.59892e-19
22.5833 	-0.237937 	0.936987 	2.35407 	-1.59892e-19
22.6534 	-0.237937 	0.936987 	2.35407 	-1.59892e-19
22.7235 	-0.237937 	0.936987 	2.35407 	-1.59892e-19
22.7937 	-0.237937 	0.936987 	2.35407 	-1.59892e-19
22.8638 	-0.237937 	0.936987 	2.35407 	-1.59892e-19
22.9339 	-0.237937 	0.936987 	2.35407 	-1.59892e-19
23.0041 	-0.237937 	0.936987 	2.35407 	-1.59892e-19
23.0742 	-0.237937 	0.936987 	2.35407 	-1.59892e-19
23.1443 	-0.237937 	0.936987 	2.35407 	-1.59892e-19
23.2145 	-0.237937 	0.936987 	2.35407 	-1.59892e-19
23.2846 	-0.237937 	0.936987 	2.35407 	-1.59892e-19
23.3548 	-0.237937 	0.936987 	2.35407 	-1.59892e-19
23.4249 	-0.237937 	0.936987 	2.35407 	-1.59892e-19
23.495 	-0.0533347 	0.903711 	2.33269 	-2.35374e-21
23.5652 	-0.0533347 	0.903711 	2.33269 	-2.35374e-21
23.6353 	-0.0533347 	0.903711 	2.33269 	-2.35374e-21
23.7054 	-0.0533347 	0.903711 	2.33269 	-2.35374e-21
23.7756 	-0.0533347 	0.903711 	2.33269 	-2.35374e-21
23.8457 	-0.0533347 	0.903711 	2.33269 	-2.35374e-21
23.9158 	-0.0533347 	0.903711 	2.33269 	-2.35374e-21
23.986 	0.0724533 	0.845586 	2.2036 	-4.87053e-24
24.0561 	0.0724533 	0.845586 	2.2036 	-4.87053e-24
24.1262 	0.0724533 	0.845586 	2.2036 	-4.87053e-24
24.1964 	0.0724533 	0.845586 	2.2036 	-4.87053e-24
24.2665 	0.0724533 	0.845586 	2.2036 	-4.87053e-24
24.3366 	0.0724533 	0.845586 	2.2036 	-4.87053e-24
24.4068 	0.0724533 	0.845586 	2.2036 	-4.87053e-24
24.4769 	0.0724533 	0.845586 	2.2036 	-4.87053e-24
24.547 	0.0724533 	0.845586 	2.2036 	-4.87053e-24
24.6172 	0.0724533 	0.845586 	2.2036 	-4.87053e-24
24.6873 	0.0724533 	0.845586 	2.2036 	-4.87053e-24
24.7574 	0.0724533 	0.845586 	2.2036 	-4.87053e-24
24.8276 	0.0724533 	0.845586 	2.2036 	-4.87053e-24
24.8977 	0.0724533 	0.845586 	2.2036 	-4.87053e-24
24.9678 	0.0724533 	0.845586 	2.2036 	-4.87053e-24
25.038 	0.0724533 	0.845586 	2.2036 	-4.87053e-24
25.1081 	0.0724533 	0.845586 	2.2036 	-4.87053e-24
25.1782 	0.0202829 	0.502872 	1.37186 	0
25.2484 	0.0202829 	0.502872 	1.37186 	0
25.3185 	0.0202829 	0.502872 	1.37186 	0
25.3886 	0.0202829 	0.502872 	1.37186 	0
25.4588 	0.0202829 	0.502872 	1.37186 	0
25.5289 	0.0202829 	0.502872 	1.37186 	0
25.5991 	0.0202829 	0.502872 	1.37186 	0
25.6692 	0.0202829 	0.502872 	1.37186 	0
25.7393 	0.0202829 	0.502872 	1.37186 	0
25.8095 	0.0202829 	0.502872 	1.37186 	0
25.8796 	0.0202829 	0.502872 	1.37186 	0
25.9497 	0.0202829 	0.502872 	1.37186 	0
26.0199 	0.0202829 	0.502872 	1.37186 	0
26.09 	0.0202829 	0.502872 	1.37186 	0
26.1601 	0.0202829 	0.502872 	1.37186 	0
26.2303 	-0.0736038 	0.495935 	1.38017 	2.0355e-19
26.3004 	-0.0736038 	0.495935 	1.38017 	2.0355e-19
26.3705 	-0.0736038 	0.495935 	1.38017 	2.0355e-19
26.4407 	-0.0736038 	0.495935 	1.38017 	2.0355e-19
26.5108 	-0.0736038 	0.495935 	1.38017 	2.0355e-19
26.5809 	-0.0736038 	0.495935 	1.38017 	2.0355e-19
26.6511 	-0.0736038 	0.495935 	1.38017 	2.0355e-19
26.7212 	-0.0736038 	0.495935 	1.38017 	2.0355e-19
26.7913 	-0.0736038 	0.495935 	1.38017 	2.0355e-19
26.8615 	-0.0736038 	0.495935 	1.38017 	2.0355e-19
26.9316 	-0.0736038 	0.495935 	1.38017 	2.0355e-19
27.0017 	-0.0736038 	0.495935 	1.38017 	2.0355e-19
27.0719 	-0.0736038 	0.495935 	1.38017 	2.0355e-19
27.142 	-0.0736038 	0.495935 	1.38017 	2.0355e-19
27.2121 	-0.0736038 	0.495935 	1.38017 	2.0355e-19
27.2823 	-0.0736038 	0.495935 	1.38017 	2.0355e-19
27.3524 	-0.129142 	0.489224 	1.38567 	-2.16782e-19
27.4225 	-0.129142 	0.489224 	1.38567 	-2.16782e-19
27.4927 	-0.129142 	0.489224 	1.38567 	-2.16782e-19
27.5628 	-0.129142 	0.489224 	1.38567 	-2.16782e-19
27.6329 	-0.129142 	0.489224 	1.38567 	-2.16782e-19
27.7031 	-0.129142 	0.489224 	1.38567 	-2.16782e-19
27.7732 	-0.129142 	0.489224 	1.38567 	-2.16782e-19
27.8434 	-0.129142 	0.489224 	1.38567 	-2.16782e-19
27.9135 	-0.129142 	0.489224 	1.38567 	-2.16782e-19
27.9836 	-0.129142 	0.489224 	1.38567 	-2.16782e-19
28.0538 	-0.129142 	0.489224 	1.38567 	-2.16782e-19
28.1239 	-0.129142 	0.489224 	1.38567 	-2.16782e-19
28.194 	-0.129142 	0.489224 	1.38567 	-2.16782e-19
28.2642 	-0.129142 	0.489224 	1.38567 	-2.16782e-19
28.3343 	-0.129142 	0.489224 	1.38567 	-2.16782e-19
28.4044 	-0.129142 	0.489224 	1.38567 	-2.16782e-19
28.4746 	-0.129142 	0.489224 	1.38567 	-2.16782e-19
28.5447 	-0.129142 	0.489224 	1.38567 	-2.16782e-19
28.6148 	-0.129142 	0.489224 	1.38567 	-2.16782e-19
28.685 	-0.129142 	0.489224 	1.38567 	-2.16782e-19
28.7551 	-0.129142 	0.489224 	1.38567 	-2.16782e-19
28.8252 	-0.129142 	0.489224 	1.38567 	-2.16782e-19
28.8954 	-0.129142 	0.489224 	1.38567 	-2.16782e-19
28.9655 	-0.17387 	0.432722 	1.29365 	-1.53441e-20
29.0356 	-0.17387 	0.432722 	1.29365 	-1.53441e-20
29.1058 	-0.17387 	0.432722 	1.29365 	-1.53441e-20
29.1759 	-0.17387 	0.432722 	1.29365 	-1.53441e-20
29.246 	-0.17387 	0.432722 	1.29365 	-1.53441e-20
29.3162 	-0.17387 	0.432722 	1.29365 	-1.53441e-20
29.3863 	-0.17387 	0.432722 	1.29365 	-1.53441e-20
29.4564 	-0.17387 	0.432722 	1.29365 	-1.53441e-20
29.5266 	-0.17387 	0.432722 	1.29365 	-1.53441e-20
29.5967 	-0.17387 	0.432722 	1.29365 	-1.53441e-20
29.6668 	-0.17387 	0.432722 	1.29365 	-1.53441e-20
29.737 	-0.17387 	0.432722 	1.29365 	-1.53441e-20
29.8071 	-0.17387 	0.432722 	1.29365 	-1.53441e-20
29.8773 	-0.17387 	0.432722 	1.29365 	-1.53441e-20
29.9474 	-0.17387 	0.432722 	1.29365 	-1.53441e-20
30.0175 	-0.17387 	0.432722 	1.29365 	-1.53441e-20
30.0877 	-0.17387 	0.432722 	1.29365 	-1.53441e-20
30.1578 	-0.17387 	0.432722 	1.29365 	-1.53441e-20
30.2279 	-0.17387 	0.432722 	1.29365 	-1.53441e-20
30.2981 	-0.17387 	0.432722 	1.29365 	-1.53441e-20
30.3682 	-0.17387 	0.432722 	1.29365 	-1.53441e-20
30.4383 	-0.17387 	0.432722 	1.29365 	-1.53441e-20
30.5085 	-0.17387 	0.432722 	1.29365 	-1.53441e-20
30.5786 	-0.17387 	0.432722 	1.29365 	-1.53441e-20
30.6487 	-0.17387 	0.432722 	1.29365 	-1.53441e-20
30.7189 	-0.17387 	0.432722 	1.29365 	-1.53441e-20
30.789 	-0.183552 	0.360488 	1.27845 	4.33829e-19
30.8591 	-0.183552 	0.360488 	1.27845 	4.33829e-19
30.9293 	-0.183552 	0.360488 	1.27845 	4.33829e-19
30.9994 	-0.183552 	0.360488 	1.27845 	4.33829e-19
31.0695 	-0.183552 	0.360488 	1.27845 	4.33829e-19
31.1397 	-0.183552 	0.360488 	1.27845 	4.33829e-19
31.2098 	-0.183552 	0.360488 	1.27845 	4.33829e-19
31.2799 	-0.183552 	0.360488 	1.27845 	4.33829e-19
31.3501 	-0.183552 	0.360488 	1.27845 	4.33829e-19
31.4202 	-0.183552 	0.360488 	1.27845 	4.33829e-19
31.4903 	-0.183552 	0.360488 	1.27845 	4.33829e-19
31.5605 	-0.183552 	0.360488 	1.27845 	4.33829e-19
31.6306 	-0.183552 	0.360488 	1.27845 	4.33829e-19
31.7007 	-0.183552 	0.360488 	1.27845 	4.33829e-19
31.7709 	-0.183552 	0.360488 	1.27845 	4.33829e-19
31.841 	-0.183552 	0.360488 	1.27845 	4.33829e-19
31.9111 	-0.183552 	0.360488 	1.27845 	4.33829e-19
31.9813 	-0.183552 	0.360488 	1.27845 	4.33829e-19
32.0514 	-0.183552 	0.360488 	1.27845 	4.33829e-19
32.1216 	-0.183552 	0.360488 	1.27845 	4.33829e-19
32.1917 	-0.183552 	0.360488 	1.27845 	4.33829e-19
32.2618 	-0.183552 	0.360488 	1.27845 	4.33829e-19
32.332 	-0.183552 	0.360488 	1.27845 	4.33829e-19
32.4021 	-0.183552 	0.360488 	1.27845 	4.33829e-19
32.4722 	-0.183552 	0.360488 	1.27845 	4.33829e-19
32.5424 	-0.183552 	0.360488 	1.27845 	4.33829e-19
32.6125 	-0.183552 	0.360488 	1.27845 	4.33829e-19
32.6826 	-0.183552 	0.360488 	1.27845 	4.33829e-19
32.7528 	-0.183552 	0.360488 	1.27845 	4.33829e-19
32.8229 	-0.183552 	0.360488 	1.27845 	4.33829e-19
32.893 	-0.183552 	0.360488 	1.27845 	4.33829e-19
32.9632 	-0.183552 	0.360488 	1.27845 	4.33829e-19
33.0333 	-0.183552 	0.360488 	1.27845 	4.33829e-19
33.1034 	-0.183552 	0.360488 	1.27845 	4.33829e-19
33.1736 	-0.183552 	0.360488 	1.27845 	4.33829e-19
33.2437 	-0.183552 	0.360488 	1.27845 	4.33829e-19
33.3138 	-0.183552 	0.360488 	1.27845 	4.33829e-19
33.384 	-0.183552 	0.360488 	1.27845 	4.33829e-19
33.4541 	-0.183552 	0.360488 	1.27845 	4.33829e-19
33.5242 	-0.183552 	0.360488 	1.27845 	4.33829e-19
33.5944 	-0.183552 	0.360488 	1.27845 	4.33829e-19
33.6645 	-0.183552 	0.360488 	1.27845 	4.33829e-19
33.7346 	-0.218566 	0.360211 	1.3521 	-2.67487e-19
33.8048 	-0.218566 	0.360211 	1.3521 	-2.67487e-19
33.8749 	-0.218566 	0.360211 	1.3521 	-2.67487e-19
33.945 	-0.218566 	0.360211 	1.3521 	-2.67487e-19
34.0152 	-0.218566 	0.360211 	1.3521 	-2.67487e-19
34.0853 	-0.218566 	0.360211 	1.3521 	-2.67487e-19
34.1554 	-0.224669 	0.267503 	1.30189 	1.89893e-19
34.2256 	-0.224669 	0.267503 	1.30189 	1.89893e-19
34.2957 	-0.224669 	0.267503 	1.30189 	1.89893e-19
34.3659 	-0.224669 	0.267503 	1.30189 	1.89893e-19
34.436 	-0.224669 	0.267503 	1.30189 	1.89893e-19
34.5061 	-0.224669 	0.267503 	1.30189 	1.89893e-19
34.5763 	-0.224669 	0.267503 	1.30189 	1.89893e-19
34.6464 	-0.224669 	0.267503 	1.30189 	1.89893e-19
34.7165 	-0.0149919 	0.25687 	1.61614 	-1.10641e-19
34.7867 	-0.0149919 	0.25687 	1.61614 	-1.10641e-19
34.8568 	-0.0149919 	0.25687 	1.61614 	-1.10641e-19
34.9269 	-0.0149919 	0.25687 	1.61614 	-1.10641e-19
34.9971 	-0.0149919 	0.25687 	1.61614 	-1.10641e-19
35.0672 	-0.0149919 	0.25687 	1.61614 	-1.10641e-19
35.1373 	-0.0149919 	0.25687 	1.61614 	-1.10641e-19
35.2075 	-0.0149919 	0.25687 	1.61614 	-1.10641e-19
35.2776 	-0.0149919 	0.25687 	1.61614 	-1.10641e-19
35.3477 	-0.0149919 	0.25687 	1.61614 	-1.10641e-19
35.4179 	-0.0149919 	0.25687 	1.61614 	-1.10641e-19
35.488 	-0.0149919 	0.25687 	1.61614 	-1.10641e-19
35.5581 	-0.0149919 	0.25687 	1.61614 	-1.10641e-19
35.6283 	-0.0149919 	0.25687 	1.61614 	-1.10641e-19
35.6984 	-0.0149919 	0.25687 	1.61614 	-1.10641e-19
35.7685 	-0.0149919 	0.25687 	1.61614 	-1.10641e-19
35.8387 	-0.0149919 	0.25687 	1.61614 	-1.10641e-19
35.9088 	-0.0149919 	0.25687 	1.61614 	-1.10641e-19
35.9789 	-0.0149919 	0.25687 	1.61614 	-1.10641e-19
36.0491 	-0.0398365 	0.232768 	1.57415 	0
36.1192 	-0.0398365 	0.232768 	1.57415 	0
36.1893 	-0.0398365 	0.232768 	1.57415 	0
36.2595 	-0.0398365 	0.232768 	1.57415 	0
36.3296 	-0.0398365 	0.232768 	1.57415 	0
36.3997 	-0.0398365 	0.232768 	1.57415 	0
36.4699 	-0.0398365 	0.232768 	1.57415 	0
36.54 	-0.0398365 	0.232768 	1.57415 	0
36.6102 	-0.0398365 	0.232768 	1.57415 	0
36.6803 	-0.0398365 	0.232768 	1.57415 	0
36.7504 	-0.0398365 	0.232768 	1.57415 	0
36.8206 	-0.0398365 	0.232768 	1.57415 	0
36.8907 	-0.166516 	0.1828 	1.44097 	-1.46698e-19
36.9608 	-0.166516 	0.1828 	1.44097 	-1.46698e-19
37.031 	-0.166516 	0.1828 	1.44097 	-1.46698e-19
37.1011 	-0.166516 	0.1828 	1.44097 	-1.46698e-19
37.1712 	-0.166516 	0.1828 	1.44097 	-1.46698e-19
37.2414 	-0.166516 	0.1828 	1.44097 	-1.46698e-19
37.3115 	-0.166516 	0.1828 	1.44097 	-1.46698e-19
37.3816 	-0.166516 	0.1828 	1.44097 	-1.46698e-19
37.4518 	-0.166516 	0.1828 	1.44097 	-1.46698e-19
37.5219 	-0.166516 	0.1828 	1.44097 	-1.46698e-19
37.592 	-0.166516 	0.1828 	1.44097 	-1.46698e-19
37.6622 	-0.166516 	0.1828 	1.44097 	-1.46698e-19
37.7323 	-0.166516 	0.1828 	1.44097 	-1.46698e-19
37.8024 	-0.166516 	0.1828 	1.44097 	-1.46698e-19
37.8726 	-0.166516 	0.1828 	1.44097 	-1.46698e-19
37.9427 	-0.166516 	0.1828 	1.44097 	-1.46698e-19
38.0128 	-0.166516 	0.1828 	1.44097 	-1.46698e-19
38.083 	-0.166516 	0.1828 	1.44097 	-1.46698e-19
38.1531 	-0.166516 	0.1828 	1.44097 	-1.46698e-19
38.2232 	-0.140857 	0.122722 	1.58937 	1.68121e-19
38.2934 	-0.140857 	0.122722 	1.58937 	1.68121e-19
38.3635 	-0.140857 	0.122722 	1.58937 	1.68121e-19
38.4336 	-0.140857 	0.122722 	1.58937 	1.68121e-19
38.5038 	-0.140857 	0.122722 	1.58937 	1.68121e-19
38.5739 	-0.140857 	0.122722 	1.58937 	1.68121e-19
38.644 	-0.140857 	0.122722 	1.58937 	1.68121e-19
38.7142 	-0.140857 	0.122722 	1.58937 	1.68121e-19
38.7843 	-0.140857 	0.122722 	1.58937 	1.68121e-19
38.8545 	-0.140857 	0.122722 	1.58937 	1.68121e-19
38.9246 	-0.140857 	0.122722 	1.58937 	1.68121e-19
38.9947 	-0.140857 	0.122722 	1.58937 	1.68121e-19
39.0649 	-0.140857 	0.122722 	1.58937 	1.68121e-19
39.135 	-0.140857 	0.122722 	1.58937 	1.68121e-19
39.2051 	-0.174386 	0.11271 	1.56106 	0
39.2753 	-0.174386 	0.11271 	1.56106 	0
39.3454 	-0.174386 	0.11271 	1.56106 	0
39.4155 	-0.174386 	0.11271 	1.56106 	0
39.4857 	-0.174386 	0.11271 	1.56106 	0
39.5558 	-0.174386 	0.11271 	1.56106 	0
39.6259 	-0.174386 	0.11271 	1.56106 	0
39.6961 	-0.174386 	0.11271 	1.56106 	0
39.7662 	-0.174386 	0.11271 	1.56106 	0
39.8363 	-0.174386 	0.11271 	1.56106 	0
39.9065 	-0.174386 	0.11271 	1.56106 	0
39.9766 	-0.174386 	0.11271 	1.56106 	0
40.0467 	-0.174386 	0.11271 	1.56106 	0
40.1169 	-0.174386 	0.11271 	1.56106 	0
40.187 	-0.174386 	0.11271 	1.56106 	0
40.2571 	-0.174386 	0.11271 	1.56106 	0
40.3273 	-0.174386 	0.11271 	1.56106 	0
40.3974 	-0.174386 	0.11271 	1.56106 	0
40.4675 	-0.174386 	0.11271 	1.56106 	0
40.5377 	-0.174386 	0.11271 	1.56106 	0
40.6078 	-0.174386 	0.11271 	1.56106 	0
40.6779 	-0.188879 	0.103563 	1.50366 	1.06869e-19
40.7481 	-0.188879 	0.103563 	1.50366 	1.06869e-19
40.8182 	-0.188879 	0.103563 	1.50366 	1.06869e-19
40.8883 	-0.188879 	0.103563 	1.50366 	1.06869e-19
40.9585 	-0.188879 	0.103563 	1.50366 	1.06869e-19
41.0286 	-0.188879 	0.103563 	1.50366 	1.06869e-19
41.0988 	-0.188879 	0.103563 	1.50366 	1.06869e-19
41.1689 	-0.188879 	0.103563 	1.50366 	1.06869e-19
41.239 	-0.181204 	0.0956608 	1.53125 	-2.0051e-19
41.3092 	-0.181204 	0.0956608 	1.53125 	-2.0051e-19
41.3793 	-0.181204 	0.0956608 	1.53125 	-2.0051e-19
41.4494 	-0.181204 	0.0956608 	1.53125 	-2.0051e-19
41.5196 	-0.181204 	0.0956608 	1.53125 	-2.0051e-19
41.5897 	-0.181204 	0.0956608 	1.53125 	-2.0051e-19
41.6598 	-0.181204 	0.0956608 	1.53125 	-2.0051e-19
41.73 	-0.181204 	0.0956608 	1.53125 	-2.0051e-19
41.8001 	-0.181204 	0.0956608 	1.53125 	-2.0051e-19
41.8702 	-0.181204 	0.0956608 	1.53125 	-2.0051e-19
41.9404 	-0.181204 	0.0956608 	1.53125 	-2.0051e-19
42.0105 	-0.181204 	0.0956608 	1.53125 	-2.0051e-19
42.0806 	-0.181204 	0.0956608 	1.53125 	-2.0051e-19
42.1508 	-0.181204 	0.0956608 	1.53125 	-2.0051e-19
42.2209 	-0.181204 	0.0956608 	1.53125 	-2.0051e-19
42.291 	-0.181204 	0.0956608 	1.53125 	-2.0051e-19
42.3612 	-0.181204 	0.0956608 	1.53125 	-2.0051e-19
42.4313 	-0.181204 	0.0956608 	1.53125 	-2.0051e-19
42.5014 	-0.181204 	0.0956608 	1.53125 	-2.0051e-19
42.5716 	-0.181204 	0.0956608 	1.53125 	-2.0051e-19
42.6417 	-0.181204 	0.0956608 	1.53125 	-2.0051e-19
42.7118 	-0.187759 	0.0836045 	1.49881 	0
42.782 	-0.187759 	0.0836045 	1.49881 	0
42.8521 	-0.187759 	0.0836045 	1.49881 	0
42.9222 	-0.187759 	0.0836045 	1.49881 	0
42.9924 	-0.169495 	0.0335456 	1.5732 	0
43.0625 	-0.169495 	0.0335456 	1.5732 	0
43.1327 	-0.169495 	0.0335456 	1.5732 	0
43.2028 	-0.169495 	0.0335456 	1.5732 	0
43.2729 	-0.169495 	0.0335456 	1.5732 	0
43.3431 	-0.169495 	0.0335456 	1.5732 	0