0.490941 	1.12782 	0.00611333 	3.00277 	0
0.561075 	1.12782 	0.00611333 	3.00277 	0
0.63121 	1.12782 	0.00611333 	3.00277 	0
0.701344 	1.12782 	0.00611333 	3.00277 	0
0.771478 	1.12782 	0.00611333 	3.00277 	0
0.841613 	1.12782 	0.00611333 	3.00277 	0
0.911747 	1.12782 	0.00611333 	3.00277 	0
0.981881 	1.12782 	0.00611333 	3.00277 	0
1.05202 	1.12782 	0.00611333 	3.00277 	0
1.12215 	1.12782 	0.00611333 	3.00277 	0
1.19228 	1.12782 	0.00611333 	3.00277 	0
1.26242 	1.10168 	0.0115046 	3.00805 	0
1.33255 	1.10168 	0.0115046 	3.00805 	0
1.40269 	1.10168 	0.0115046 	3.00805 	0
1.47282 	1.10168 	0.0115046 	3.00805 	0
1.54296 	1.10168 	0.0115046 	3.00805 	0
1.61309 	1.10168 	0.0115046 	3.00805 	0
1.68323 	1.10168 	0.0115046 	3.00805 	0
1.75336 	1.10168 	0.0115046 	3.00805 	0
1.82349 	1.05178 	0.0149089 	3.02371 	4.03699e-19
1.89363 	1.05178 	0.0149089 	3.02371 	4.03699e-19
1.96376 	1.05178 	0.0149089 	3.02371 	4.03699e-19
2.0339 	1.05178 	0.0149089 	3.02371 	4.03699e-19
2.10403 	1.05178 	0.0149089 	3.02371 	4.03699e-19
2.17417 	1.05178 	0.0149089 	3.02371 	4.03699e-19
2.2443 	1.05178 	0.0149089 	3.02371 	4.03699e-19
2.31443 	1.05178 	0.0149089 	3.02371 	4.03699e-19
2.38457 	1.05178 	0.0149089 	3.02371 	4.03699e-19
2.4547 	1.05178 	0.0149089 	3.02371 	4.03699e-19
2.52484 	1.05178 	0.0149089 	3.02371 	4.03699e-19
2.59497 	1.01719 	0.00742437 	3.03694 	-6.39619e-19
2.66511 	1.01719 	0.00742437 	3.03694 	-6.39619e-19
2.73524 	1.01719 	0.00742437 	3.03694 	-6.39619e-19
2.80538 	1.01719 	0.00742437 	3.03694 	-6.39619e-19
2.87551 	1.01719 	0.00742437 	3.03694 	-6.39619e-19
2.94564 	1.01719 	0.00742437 	3.03694 	-6.39619e-19
3.01578 	1.01719 	0.00742437 	3.03694 	-6.39619e-19
3.08591 	1.01719 	0.00742437 	3.03694 	-6.39619e-19
3.15605 	1.01719 	0.00742437 	3.03694 	-6.39619e-19
3.22618 	1.01719 	0.00742437 	3.03694 	-6.39619e-19
3.29632 	0.984956 	0.0201617 	3.04331 	6.44536e-19
3.36645 	0.984956 	0.0201617 	3.04331 	6.44536e-19
3.43659 	0.984956 	0.0201617 	3.04331 	6.44536e-19
3.50672 	0.984956 	0.0201617 	3.04331 	6.44536e-19
3.57685 	0.984956 	0.0201617 	3.04331 	6.44536e-19
3.64699 	0.984956 	0.0201617 	3.04331 	6.44536e-19
3.71712 	0.984956 	0.0201617 	3.04331 	6.44536e-19
3.78726 	0.984956 	0.0201617 	3.04331 	6.44536e-19
3.85739 	0.984956 	0.0201617 	3.04331 	6.44536e-19
3.92753 	0.984956 	0.0201617 	3.04331 	6.44536e-19
3.99766 	0.984956 	0.0201617 	3.04331 	6.44536e-19
4.06779 	0.96681 	0.00361879 	3.0503 	-1.81396e-20
4.13793 	0.96681 	0.00361879 	3.0503 	-1.81396e-20
4.20806 	0.96681 	0.00361879 	3.0503 	-1.81396e-20
4.2782 	0.96681 	0.00361879 	3.0503 	-1.81396e-20
4.34833 	0.96681 	0.00361879 	3.0503 	-1.81396e-20
4.41847 	0.96681 	0.00361879 	3.0503 	-1.81396e-20
4.4886 	0.941889 	0.0165822 	3.05769 	0
4.55874 	0.941889 	0.0165822 	3.05769 	0
4.62887 	0.941889 	0.0165822 	3.05769 	0
4.699 	0.941889 	0.0165822 	3.05769 	0
4.76914 	0.941889 	0.0165822 	3.05769 	0
4.83927 	0.941889 	0.0165822 	3.05769 	0
4.90941 	0.941889 	0.0165822 	3.05769 	0
4.97954 	0.941889 	0.0165822 	3.05769 	0
5.04968 	0.941889 	0.0165822 	3.05769 	0
5.11981 	0.941889 	0.0165822 	3.05769 	0
5.18994 	0.919419 	0.00569364 	3.06483 	-8.5682e-21
5.26008 	0.919419 	0.00569364 	3.06483 	-8.5682e-21
5.33021 	0.919419 	0.00569364 	3.06483 	-8.5682e-21
5.40035 	0.919419 	0.00569364 	3.06483 	-8.5682e-21
5.47048 	0.919419 	0.00569364 	3.06483 	-8.5682e-21
5.54062 	0.919419 	0.00569364 	3.06483 	-8.5682e-21
5.61075 	0.919419 	0.00569364 	3.06483 	-8.5682e-21
5.68089 	0.890723 	0.0114314 	3.07446 	0
5.75102 	0.890723 	0.0114314 	3.07446 	0
5.82115 	0.890723 	0.0114314 	3.07446 	0
5.89129 	0.890723 	0.0114314 	3.07446 	0
5.96142 	0.890723 	0.0114314 	3.07446 	0
6.03156 	0.890723 	0.0114314 	3.07446 	0
6.10169 	0.890723 	0.0114314 	3.07446 	0
6.17183 	0.890723 	0.0114314 	3.07446 	0
6.24196 	0.890723 	0.0114314 	3.07446 	0
6.3121 	0.862043 	0.00697494 	3.0821 	0
6.38223 	0.862043 	0.00697494 	3.0821 	0
6.45236 	0.862043 	0.00697494 	3.0821 	0
6.5225 	0.862043 	0.00697494 	3.0821 	0
6.59263 	0.862043 	0.00697494 	3.0821 	0
6.66277 	0.862043 	0.00697494 	3.0821 	0
6.7329 	0.862043 	0.00697494 	3.0821 	0
6.80304 	0.862043 	0.00697494 	3.0821 	0
6.87317 	0.83544 	0.00631774 	3.09165 	2.86792e-19
6.9433 	0.83544 	0.00631774 	3.09165 	2.86792e-19
7.01344 	0.83544 	0.00631774 	3.09165 	2.86792e-19
7.08357 	0.83544 	0.00631774 	3.09165 	2.86792e-19
7.15371 	0.83544 	0.00631774 	3.09165 	2.86792e-19
7.22384 	0.83544 	0.00631774 	3.09165 	2.86792e-19
7.29398 	0.83544 	0.00631774 	3.09165 	2.86792e-19
7.36411 	0.83544 	0.00631774 	3.09165 	2.86792e-19
7.43425 	0.83544 	0.00631774 	3.09165 	2.86792e-19
7.50438 	0.805193 	0.00843663 	3.09963 	-2.13148e-18
7.57451 	0.805193 	0.00843663 	3.09963 	-2.13148e-18
7.64465 	0.805193 	0.00843663 	3.09963 	-2.13148e-18
7.71478 	0.805193 	0.00843663 	3.09963 	-2.13148e-18
7.78492 	0.805193 	0.00843663 	3.09963 	-2.13148e-18
7.85505 	0.805193 	0.00843663 	3.09963 	-2.13148e-18
7.92519 	0.805193 	0.00843663 	3.09963 	-2.13148e-18
7.99532 	0.805193 	0.00843663 	3.09963 	-2.13148e-18
8.06545 	0.783719 	0.00167669 	3.1051 	2.14554e-18
8.13559 	0.783719 	0.00167669 	3.1051 	2.14554e-18
8.20572 	0.783719 	0.00167669 	3.1051 	2.14554e-18
8.27586 	0.783719 	0.00167669 	3.1051 	2.14554e-18
8.34599 	0.783719 	0.00167669 	3.1051 	2.14554e-18
8.41613 	0.783719 	0.00167669 	3.1051 	2.14554e-18
8.48626 	0.783719 	0.00167669 	3.1051 	2.14554e-18
8.5564 	0.783719 	0.00167669 	3.1051 	2.14554e-18
8.62653 	0.783719 	0.00167669 	3.1051 	2.14554e-18
8.69666 	0.750928 	0.010899 	3.11937 	1.74522e-18
8.7668 	0.750928 	0.010899 	3.11937 	1.74522e-18
8.83693 	0.750928 	0.010899 	3.11937 	1.74522e-18
8.90707 	0.750928 	0.010899 	3.11937 	1.74522e-18
8.9772 	0.750928 	0.010899 	3.11937 	1.74522e-18
9.04734 	0.750928 	0.010899 	3.11937 	1.74522e-18
9.11747 	0.750928 	0.010899 	3.11937 	1.74522e-18
9.18761 	0.750928 	0.010899 	3.11937 	1.74522e-18
9.25774 	0.720915 	0.00496984 	3.11877 	-1.59614e-18
9.32787 	0.720915 	0.00496984 	3.11877 	-1.59614e-18
9.39801 	0.720915 	0.00496984 	3.11877 	-1.59614e-18
9.46814 	0.720915 	0.00496984 	3.11877 	-1.59614e-18
9.53828 	0.720915 	0.00496984 	3.11877 	-1.59614e-18
9.60841 	0.720915 	0.00496984 	3.11877 	-1.59614e-18
9.67855 	0.720915 	0.00496984 	3.11877 	-1.59614e-18
9.74868 	0.720915 	0.00496984 	3.11877 	-1.59614e-18
9.81881 	0.705313 	0.0175006 	3.12949 	-5.45854e-19
9.88895 	0.705313 	0.0175006 	3.12949 	-5.45854e-19
9.95908 	0.705313 	0.0175006 	3.12949 	-5.45854e-19
10.0292 	0.705313 	0.0175006 	3.12949 	-5.45854e-19
10.0994 	0.705313 	0.0175006 	3.12949 	-5.45854e-19
10.1695 	0.705313 	0.0175006 	3.12949 	-5.45854e-19
10.2396 	0.705313 	0.0175006 	3.12949 	-5.45854e-19
10.3098 	0.705313 	0.0175006 	3.12949 	-5.45854e-19
10.3799 	0.705313 	0.0175006 	3.12949 	-5.45854e-19
10.45 	0.705313 	0.0175006 	3.12949 	-5.45854e-19
10.5202 	0.705313 	0.0175006 	3.12949 	-5.45854e-19
10.5903 	0.705313 	0.0175006 	3.12949 	-5.45854e-19
10.6604 	0.72525 	0.0156309 	3.12561 	8.0341e-19
10.7306 	0.674439 	0.0349298 	3.13951 	0
10.8007 	0.674439 	0.0349298 	3.13951 	0
10.8708 	0.674439 	0.0349298 	3.13951 	0
10.941 	0.674439 	0.0349298 	3.13951 	0
11.0111 	0.674439 	0.0349298 	3.13951 	0
11.0812 	0.674439 	0.0349298 	3.13951 	0
11.1514 	0.674439 	0.0349298 	3.13951 	0
11.2215 	0.674439 	0.0349298 	3.13951 	0
11.2916 	0.674439 	0.0349298 	3.13951 	0
11.3618 	0.674439 	0.0349298 	3.13951 	0
11.4319 	0.674439 	0.0349298 	3.13951 	0
11.502 	0.674439 	0.0349298 	3.13951 	0
11.5722 	0.674439 	0.0349298 	3.13951 	0
11.6423 	0.674439 	0.0349298 	3.13951 	0
11.7124 	0.682105 	0.0219428 	3.12959 	0
11.7826 	0.62289 	0.0745282 	3.15986 	9.08438e-19
11.8527 	0.62289 	0.0745282 	3.15986 	9.08438e-19
11.9228 	0.62289 	0.0745282 	3.15986 	9.08438e-19
11.993 	0.62289 	0.0745282 	3.15986 	9.08438e-19
12.0631 	0.62289 	0.0745282 	3.15986 	9.08438e-19
12.1332 	0.62289 	0.0745282 	3.15986 	9.08438e-19
12.2034 	0.528491 	0.0671716 	3.1853 	-4.48414e-19
12.2735 	0.528491 	0.0671716 	3.1853 	-4.48414e-19
12.3437 	0.528491 	0.0671716 	3.1853 	-4.48414e-19
12.4138 	0.528491 	0.0671716 	3.1853 	-4.48414e-19
12.4839 	0.528491 	0.0671716 	3.1853 	-4.48414e-19
12.5541 	0.528491 	0.0671716 	3.1853 	-4.48414e-19
12.6242 	0.528491 	0.0671716 	3.1853 	-4.48414e-19
12.6943 	0.528491 	0.0671716 	3.1853 	-4.48414e-19
12.7645 	0.528491 	0.0671716 	3.1853 	-4.48414e-19
12.8346 	0.416301 	0.0342808 	3.17733 	4.12994e-19
12.9047 	0.4036 	0.134236 	3.22014 	-2.00554e-19
12.9749 	0.4036 	0.134236 	3.22014 	-2.00554e-19
13.045 	0.4036 	0.134236 	3.22014 	-2.00554e-19
13.1151 	0.4036 	0.134236 	3.22014 	-2.00554e-19
13.1853 	0.4036 	0.134236 	3.22014 	-2.00554e-19
13.2554 	0.4036 	0.134236 	3.22014 	-2.00554e-19
13.3255 	0.4036 	0.134236 	3.22014 	-2.00554e-19
13.3957 	0.628387 	0.13912 	3.19213 	1.41137e-18
13.4658 	0.628387 	0.13912 	3.19213 	1.41137e-18
13.5359 	0.628387 	0.13912 	3.19213 	1.41137e-18
13.6061 	0.628387 	0.13912 	3.19213 	1.41137e-18
13.6762 	0.628387 	0.13912 	3.19213 	1.41137e-18
13.7463 	0.628387 	0.13912 	3.19213 	1.41137e-18
13.8165 	0.707977 	0.107624 	2.86518 	-1.16931e-18
13.8866 	0.922133 	0.130924 	2.95914 	5.3727e-19
13.9567 	0.922133 	0.130924 	2.95914 	5.3727e-19
14.0269 	0.339605 	0.241442 	3.03182 	-1.79096e-18
14.097 	0.339605 	0.241442 	3.03182 	-1.79096e-18
14.1671 	0.339605 	0.241442 	3.03182 	-1.79096e-18
14.2373 	0.339605 	0.241442 	3.03182 	-1.79096e-18
14.3074 	0.339605 	0.241442 	3.03182 	-1.79096e-18
14.3776 	0.339605 	0.241442 	3.03182 	-1.79096e-18
14.4477 	0.339605 	0.241442 	3.03182 	-1.79096e-18
14.5178 	0.339605 	0.241442 	3.03182 	-1.79096e-18
14.588 	0.339605 	0.241442 	3.03182 	-1.79096e-18
14.6581 	0.339605 	0.241442 	3.03182 	-1.79096e-18
14.7282 	0.339605 	0.241442 	3.03182 	-1.79096e-18
14.7984 	0.339605 	0.241442 	3.03182 	-1.79096e-18
14.8685 	0.339605 	0.241442 	3.03182 	-1.79096e-18
14.9386 	0.165016 	0.335067 	3.19037 	0
15.0088 	0.165016 	0.335067 	3.19037 	0
15.0789 	0.165016 	0.335067 	3.19037 	0
15.149 	0.165016 	0.335067 	3.19037 	0
15.2192 	0.165016 	0.335067 	3.19037 	0
15.2893 	-0.342 	0.337345 	3.41578 	-2.14089e-19
15.3594 	-0.342 	0.337345 	3.41578 	-2.14089e-19
15.4296 	-0.342 	0.337345 	3.41578 	-2.14089e-19
15.4997 	-0.342 	0.337345 	3.41578 	-2.14089e-19
15.5698 	-0.342 	0.337345 	3.41578 	-2.14089e-19
15.64 	-0.342 	0.337345 	3.41578 	-2.14089e-19
15.7101 	-0.83277 	0.392255 	3.48603 	0
15.7802 	-0.83277 	0.392255 	3.48603 	0
15.8504 	-0.724263 	0.643522 	3.54211 	1.26619e-18
15.9205 	-0.724263 	0.643522 	3.54211 	1.26619e-18
15.9906 	-0.724263 	0.643522 	3.54211 	1.26619e-18
16.0608 	-0.724263 	0.643522 	3.54211 	1.26619e-18
16.1309 	-0.724263 	0.643522 	3.54211 	1.26619e-18
16.201 	-0.724263 	0.643522 	3.54211 	1.26619e-18
16.2712 	-0.724263 	0.643522 	3.54211 	1.26619e-18
16.3413 	-0.724263 	0.643522 	3.54211 	1.26619e-18
16.4114 	-0.724263 	0.643522 	3.54211 	1.26619e-18
16.4816 	-0.724263 	0.643522 	3.54211 	1.26619e-18
16.5517 	-0.724263 	0.643522 	3.54211 	1.26619e-18
16.6219 	-0.724263 	0.643522 	3.54211 	1.26619e-18
16.692 	-0.724263 	0.643522 	3.54211 	1.26619e-18
16.7621 	-0.724263 	0.643522 	3.54211 	1.26619e-18
16.8323 	-0.270834 	0.866217 	3.11058 	7.44632e-20
16.9024 	-0.270834 	0.866217 	3.11058 	7.44632e-20
16.9725 	-0.270834 	0.866217 	3.11058 	7.44632e-20
17.0427 	-0.270834 	0.866217 	3.11058 	7.44632e-20
17.1128 	-0.270834 	0.866217 	3.11058 	7.44632e-20
17.1829 	-0.270834 	0.866217 	3.11058 	7.44632e-20
17.2531 	-0.270834 	0.866217 	3.11058 	7.44632e-20
17.3232 	-0.270834 	0.866217 	3.11058 	7.44632e-20
17.3933 	-0.270834 	0.866217 	3.11058 	7.44632e-20
17.4635 	-0.270834 	0.866217 	3.11058 	7.44632e-20
17.5336 	-0.174753 	0.909662 	3.02692 	-3.87196e-20
17.6037 	-0.174753 	0.909662 	3.02692 	-3.87196e-20
17.6739 	-0.174753 	0.909662 	3.02692 	-3.87196e-20
17.744 	-0.265743 	1.03865 	3.15649 	1.34281e-19
17.8141 	-0.265743 	1.03865 	3.15649 	1.34281e-19
17.8843 	-0.265743 	1.03865 	3.15649 	1.34281e-19
17.9544 	-0.265743 	1.03865 	3.15649 	1.34281e-19
18.0245 	-0.265743 	1.03865 	3.15649 	1.34281e-19
18.0947 	-0.265743 	1.03865 	3.15649 	1.34281e-19
18.1648 	-0.265743 	1.03865 	3.15649 	1.34281e-19
18.2349 	-0.265743 	1.03865 	3.15649 	1.34281e-19
18.3051 	-0.265743 	1.03865 	3.15649 	1.34281e-19
18.3752 	0.0222984 	1.00196 	2.75704 	-1.02119e-19
18.4453 	0.0222984 	1.00196 	2.75704 	-1.02119e-19
18.5155 	0.0222984 	1.00196 	2.75704 	-1.02119e-19
18.5856 	0.0222984 	1.00196 	2.75704 	-1.02119e-19
18.6557 	0.0222984 	1.00196 	2.75704 	-1.02119e-19
18.7259 	0.0222984 	1.00196 	2.75704 	-1.02119e-19
18.796 	0.0222984 	1.00196 	2.75704 	-1.02119e-19
18.8662 	0.082996 	1.0418 	2.81658 	-1.61567e-19
18.9363 	0.082996 	1.0418 	2.81658 	-1.61567e-19
19.0064 	0.082996 	1.0418 	2.81658 	-1.61567e-19
19.0766 	0.082996 	1.0418 	2.81658 	-1.61567e-19
19.1467 	0.082996 	1.0418 	2.81658 	-1.61567e-19
19.2168 	0.082996 	1.0418 	2.81658 	-1.61567e-19
19.287 	0.082996 	1.0418 	2.81658 	-1.61567e-19
19.3571 	0.082996 	1.0418 	2.81658 	-1.61567e-19
19.4272 	0.082996 	1.0418 	2.81658 	-1.61567e-19
19.4974 	0.082996 	1.0418 	2.81658 	-1.61567e-19
19.5675 	0.082996 	1.0418 	2.81658 	-1.61567e-19
19.6376 	0.082996 	1.0418 	2.81658 	-1.61567e-19
19.7078 	0.082996 	1.0418 	2.81658 	-1.61567e-19
19.7779 	0.228949 	0.988086 	2.44057 	-1.13213e-19
19.848 	0.228949 	0.988086 	2.44057 	-1.13213e-19
19.9182 	0.228949 	0.988086 	2.44057 	-1.13213e-19
19.9883 	0.228949 	0.988086 	2.44057 	-1.13213e-19
20.0584 	0.228949 	0.988086 	2.44057 	-1.13213e-19
20.1286 	0.228949 	0.988086 	2.44057 	-1.13213e-19
20.1987 	0.228949 	0.988086 	2.44057 	-1.13213e-19
20.2688 	0.222893 	0.994527 	2.43355 	2.93813e-19
20.339 	0.222893 	0.994527 	2.43355 	2.93813e-19
20.4091 	0.222893 	0.994527 	2.43355 	2.93813e-19
20.4792 	0.222893 	0.994527 	2.43355 	2.93813e-19
20.5494 	0.222893 	0.994527 	2.43355 	2.93813e-19
20.6195 	0.222893 	0.994527 	2.43355 	2.93813e-19
20.6896 	0.222893 	0.994527 	2.43355 	2.93813e-19
20.7598 	0.222893 	0.994527 	2.43355 	2.93813e-19
20.8299 	0.222893 	0.994527 	2.43355 	2.93813e-19
20.9 	0.222893 	0.994527 	2.43355 	2.93813e-19
20.9702 	0.222893 	0.994527 	2.43355 	2.93813e-19
21.0403 	0.222893 	0.994527 	2.43355 	2.93813e-19
21.1105 	0.222893 	0.994527 	2.43355 	2.93813e-19
21.1806 	0.222893 	0.994527 	2.43355 	2.93813e-19
21.2507 	0.222893 	0.994527 	2.43355 	2.93813e-19
21.3209 	0.222893 	0.994527 	2.43355 	2.93813e-19
21.391 	0.222893 	0.994527 	2.43355 	2.93813e-19
21.4611 	0.237934 	0.695918 	1.89492 	-4.03408e-19
21.5313 	0.237934 	0.695918 	1.89492 	-4.03408e-19
21.6014 	0.237934 	0.695918 	1.89492 	-4.03408e-19
21.6715 	0.13269 	0.607172 	1.39022 	-4.07451e-20
21.7417 	0.13269 	0.607172 	1.39022 	-4.07451e-20
21.8118 	0.13269 	0.607172 	1.39022 	-4.07451e-20
21.8819 	0.13269 	0.607172 	1.39022 	-4.07451e-20
21.9521 	0.13269 	0.607172 	1.39022 	-4.07451e-20
22.0222 	-0.00172243 	0.930483 	2.33393 	9.96316e-20
22.0923 	-0.00172243 	0.930483 	2.33393 	9.96316e-20
22.1625 	-0.00172243 	0.930483 	2.33393 	9.96316e-20
22.2326 	-0.00172243 	0.930483 	2.33393 	9.96316e-20
22.3027 	-0.00172243 	0.930483 	2.33393 	9.96316e-20
22.3729 	-0.00172243 	0.930483 	2.33393 	9.96316e-20
22.443 	-0.00172243 	0.930483 	2.33393 	9.96316e-20
22.5131 	-0.00172243 	0.930483 	2.33393 	9.96316e-20
22.5833 	-0.00172243 	0.930483 	2.33393 	9.96316e-20
22.6534 	-0.00172243 	0.930483 	2.33393 	9.96316e-20
22.7235 	-0.00172243 	0.930483 	2.33393 	9.96316e-20
22.7937 	-0.00172243 	0.930483 	2.33393 	9.96316e-20
22.8638 	-0.00172243 	0.930483 	2.33393 	9.96316e-20
22.9339 	-0.00172243 	0.930483 	2.33393 	9.96316e-20
23.0041 	-0.00172243 	0.930483 	2.33393 	9.96316e-20
23.0742 	-0.00172243 	0.930483 	2.33393 	9.96316e-20
23.1443 	-0.00172243 	0.930483 	2.33393 	9.96316e-20
23.2145 	-0.00172243 	0.930483 	2.33393 	9.96316e-20
23.2846 	-0.00172243 	0.930483 	2.33393 	9.96316e-20
23.3548 	-0.00172243 	0.930483 	2.33393 	9.96316e-20
23.4249 	-0.00172243 	0.930483 	2.33393 	9.96316e-20
23.495 	0.18828 	0.898397 	2.31341 	-8.31097e-20
23.5652 	0.18828 	0.898397 	2.31341 	-8.31097e-20
23.6353 	0.18828 	0.898397 	2.31341 	-8.31097e-20
23.7054 	0.18828 	0.898397 	2.31341 	-8.31097e-20
23.7756 	0.18828 	0.898397 	2.31341 	-8.31097e-20
23.8457 	0.18828 	0.898397 	2.31341 	-8.31097e-20
23.9158 	0.18828 	0.898397 	2.31341 	-8.31097e-20
23.986 	0.317802 	0.836087 	2.17044 	3.81838e-21
24.0561 	0.317802 	0.836087 	2.17044 	3.81838e-21
24.1262 	0.317802 	0.836087 	2.17044 	3.81838e-21
24.1964 	0.317802 	0.836087 	2.17044 	3.81838e-21
24.2665 	0.317802 	0.836087 	2.17044 	3.81838e-21
24.3366 	0.317802 	0.836087 	2.17044 	3.81838e-21
24.4068 	0.317802 	0.836087 	2.17044 	3.81838e-21
24.4769 	0.317802 	0.836087 	2.17044 	3.81838e-21
24.547 	0.317802 	0.836087 	2.17044 	3.81838e-21
24.6172 	0.317802 	0.836087 	2.17044 	3.81838e-21
24.6873 	0.317802 	0.836087 	2.17044 	3.81838e-21
24.7574 	0.317802 	0.836087 	2.17044 	3.81838e-21
24.8276 	0.317802 	0.836087 	2.17044 	3.81838e-21
24.8977 	0.317802 	0.836087 	2.17044 	3.81838e-21
24.9678 	0.317802 	0.836087 	2.17044 	3.81838e-21
25.038 	0.317802 	0.836087 	2.17044 	3.81838e-21
25.1081 	0.317802 	0.836087 	2.17044 	3.81838e-21
25.1782 	0.264779 	0.496082 	1.33931 	0
25.2484 	0.264779 	0.496082 	1.33931 	0
25.3185 	0.264779 	0.496082 	1.33931 	0
25.3886 	0.264779 	0.496082 	1.33931 	0
25.4588 	0.264779 	0.496082 	1.33931 	0
25.5289 	0.264779 	0.496082 	1.33931 	0
25.5991 	0.264779 	0.496082 	1.33931 	0
25.6692 	0.264779 	0.496082 	1.33931 	0
25.7393 	0.264779 	0.496082 	1.33931 	0
25.8095 	0.264779 	0.496082 	1.33931 	0
25.8796 	0.264779 	0.496082 	1.33931 	0
25.9497 	0.264779 	0.496082 	1.33931 	0
26.0199 	0.264779 	0.496082 	1.33931 	0
26.09 	0.264779 	0.496082 	1.33931 	0
26.1601 	0.264779 	0.496082 	1.33931 	0
26.2303 	0.16987 	0.49925 	1.36446 	-2.73778e-19
26.3004 	0.16987 	0.49925 	1.36446 	-2.73778e-19
26.3705 	0.16987 	0.49925 	1.36446 	-2.73778e-19
26.4407 	0.16987 	0.49925 	1.36446 	-2.73778e-19
26.5108 	0.16987 	0.49925 	1.36446 	-2.73778e-19
26.5809 	0.16987 	0.49925 	1.36446 	-2.73778e-19
26.6511 	0.16987 	0.49925 	1.36446 	-2.73778e-19
26.7212 	0.16987 	0.49925 	1.36446 	-2.73778e-19
26.7913 	0.16987 	0.49925 	1.36446 	-2.73778e-19
26.8615 	0.16987 	0.49925 	1.36446 	-2.73778e-19
26.9316 	0.16987 	0.49925 	1.36446 	-2.73778e-19
27.0017 	0.16987 	0.49925 	1.36446 	-2.73778e-19
27.0719 	0.16987 	0.49925 	1.36446 	-2.73778e-19
27.142 	0.16987 	0.49925 	1.36446 	-2.73778e-19
27.2121 	0.16987 	0.49925 	1.36446 	-2.73778e-19
27.2823 	0.16987 	0.49925 	1.36446 	-2.73778e-19
27.3524 	0.1086 	0.492798 	1.36673 	3.00714e-19
27.4225 	0.1086 	0.492798 	1.36673 	3.00714e-19
27.4927 	0.1086 	0.492798 	1.36673 	3.00714e-19
27.5628 	0.1086 	0.492798 	1.36673 	3.00714e-19
27.6329 	0.1086 	0.492798 	1.36673 	3.00714e-19
27.7031 	0.1086 	0.492798 	1.36673 	3.00714e-19
27.7732 	0.1086 	0.492798 	1.36673 	3.00714e-19
27.8434 	0.1086 	0.492798 	1.36673 	3.00714e-19
27.9135 	0.1086 	0.492798 	1.36673 	3.00714e-19
27.9836 	0.1086 	0.492798 	1.36673 	3.00714e-19
28.0538 	0.1086 	0.492798 	1.36673 	3.00714e-19
28.1239 	0.1086 	0.492798 	1.36673 	3.00714e-19
28.194 	0.1086 	0.492798 	1.36673 	3.00714e-19
28.2642 	0.1086 	0.492798 	1.36673 	3.00714e-19
28.3343 	0.1086 	0.492798 	1.36673 	3.00714e-19
28.4044 	0.1086 	0.492798 	1.36673 	3.00714e-19
28.4746 	0.1086 	0.492798 	1.36673 	3.00714e-19
28.5447 	0.1086 	0.492798 	1.36673 	3.00714e-19
28.6148 	0.1086 	0.492798 	1.36673 	3.00714e-19
28.685 	0.1086 	0.492798 	1.36673 	3.00714e-19
28.7551 	0.1086 	0.492798 	1.36673 	3.00714e-19
28.8252 	0.1086 	0.492798 	1.36673 	3.00714e-19
28.8954 	0.1086 	0.492798 	1.36673 	3.00714e-19
28.9655 	0.0583814 	0.439241 	1.29119 	7.71927e-21
29.0356 	0.0583814 	0.439241 	1.29119 	7.71927e-21
29.1058 	0.0583814 	0.439241 	1.29119 	7.71927e-21
29.1759 	0.0583814 	0.439241 	1.29119 	7.71927e-21
29.246 	0.0583814 	0.439241 	1.29119 	7.71927e-21
29.3162 	0.0583814 	0.439241 	1.29119 	7.71927e-21
29.3863 	0.0583814 	0.439241 	1.29119 	7.71927e-21
29.4564 	0.0583814 	0.439241 	1.29119 	7.71927e-21
29.5266 	0.0583814 	0.439241 	1.29119 	7.71927e-21
29.5967 	0.0583814 	0.439241 	1.29119 	7.71927e-21
29.6668 	0.0583814 	0.439241 	1.29119 	7.71927e-21
29.737 	0.0583814 	0.439241 	1.29119 	7.71927e-21
29.8071 	0.0583814 	0.439241 	1.29119 	7.71927e-21
29.8773 	0.0583814 	0.439241 	1.29119 	7.71927e-21
29.9474 	0.0583814 	0.439241 	1.29119 	7.71927e-21
30.0175 	0.0583814 	0.439241 	1.29119 	7.71927e-21
30.0877 	0.0583814 	0.439241 	1.29119 	7.71927e-21
30.1578 	0.0583814 	0.439241 	1.29119 	7.71927e-21
30.2279 	0.0583814 	0.439241 	1.29119 	7.71927e-21
30.2981 	0.0583814 	0.439241 	1.29119 	7.71927e-21
30.3682 	0.0583814 	0.439241 	1.29119 	7.71927e-21
30.4383 	0.0583814 	0.439241 	1.29119 	7.71927e-21
30.5085 	0.0583814 	0.439241 	1.29119 	7.71927e-21
30.5786 	0.0583814 	0.439241 	1.29119 	7.71927e-21
30.6487 	0.0583814 	0.439241 	1.29119 	7.71927e-21
30.7189 	0.0583814 	0.439241 	1.29119 	7.71927e-21
30.789 	0.0512063 	0.373676 	1.30925 	-6.65837e-20
30.8591 	0.0512063 	0.373676 	1.30925 	-6.65837e-20
30.9293 	0.0512063 	0.373676 	1.30925 	-6.65837e-20
30.9994 	0.0512063 	0.373676 	1.30925 	-6.65837e-20
31.0695 	0.0512063 	0.373676 	1.30925 	-6.65837e-20
31.1397 	0.0512063 	0.373676 	1.30925 	-6.65837e-20
31.2098 	0.0512063 	0.373676 	1.30925 	-6.65837e-20
31.2799 	0.0512063 	0.373676 	1.30925 	-6.65837e-20
31.3501 	0.0512063 	0.373676 	1.30925 	-6.65837e-20
31.4202 	0.0512063 	0.373676 	1.30925 	-6.65837e-20
31.4903 	0.0512063 	0.373676 	1.30925 	-6.65837e-20
31.5605 	0.0512063 	0.373676 	1.30925 	-6.65837e-20
31.6306 	0.0512063 	0.373676 	1.30925 	-6.65837e-20
31.7007 	0.0512063 	0.373676 	1.30925 	-6.65837e-20
31.7709 	0.0512063 	0.373676 	1.30925 	-6.65837e-20
31.841 	0.0512063 	0.373676 	1.30925 	-6.65837e-20
31.9111 	0.0512063 	0.373676 	1.30925 	-6.65837e-20
31.9813 	0.0512063 	0.373676 	1.30925 	-6.65837e-20
32.0514 	0.0512063 	0.373676 	1.30925 	-6.65837e-20
32.1216 	0.0512063 	0.373676 	1.30925 	-6.65837e-20
32.1917 	0.0512063 	0.373676 	1.30925 	-6.65837e-20
32.2618 	0.0512063 	0.373676 	1.30925 	-6.65837e-20
32.332 	0.0512063 	0.373676 	1.30925 	-6.65837e-20
32.4021 	0.0512063 	0.373676 	1.30925 	-6.65837e-20
32.4722 	0.0512063 	0.373676 	1.30925 	-6.65837e-20
32.5424 	0.0512063 	0.373676 	1.30925 	-6.65837e-20
32.6125 	0.0512063 	0.373676 	1.30925 	-6.65837e-20
32.6826 	0.0512063 	0.373676 	1.30925 	-6.65837e-20
32.7528 	0.0512063 	0.373676 	1.30925 	-6.65837e-20
32.8229 	0.0512063 	0.373676 	1.30925 	-6.65837e-20
32.893 	0.0512063 	0.373676 	1.30925 	-6.65837e-20
32.9632 	0.0512063 	0.373676 	1.30925 	-6.65837e-20
33.0333 	0.0512063 	0.373676 	1.30925 	-6.65837e-20
33.1034 	0.0512063 	0.373676 	1.30925 	-6.65837e-20
33.1736 	0.0512063 	0.373676 	1.30925 	-6.65837e-20
33.2437 	0.0512063 	0.373676 	1.30925 	-6.65837e-20
33.3138 	0.0512063 	0.373676 	1.30925 	-6.65837e-20
33.384 	0.0512063 	0.373676 	1.30925 	-6.65837e-20
33.4541 	0.0512063 	0.373676 	1.30925 	-6.65837e-20
33.5242 	0.0512063 	0.373676 	1.30925 	-6.65837e-20
33.5944 	0.0512063 	0.373676 	1.30925 	-6.65837e-20
33.6645 	0.0512063 	0.373676 	1.30925 	-6.65837e-20
33.7346 	0.011424 	0.369689 	1.38094 	3.34573e-20
33.8048 	0.011424 	0.369689 	1.38094 	3.34573e-20
33.8749 	0.011424 	0.369689 	1.38094 	3.34573e-20
33.945 	0.011424 	0.369689 	1.38094 	3.34573e-20
34.0152 	0.011424 	0.369689 	1.38094 	3.34573e-20
34.0853 	0.011424 	0.369689 	1.38094 	3.34573e-20
34.1554 	0.00964446 	0.276165 	1.33605 	-1.00407e-19
34.2256 	0.00964446 	0.276165 	1.33605 	-1.00407e-19
34.2957 	0.00964446 	0.276165 	1.33605 	-1.00407e-19
34.3659 	0.00964446 	0.276165 	1.33605 	-1.00407e-19
34.436 	0.00964446 	0.276165 	1.33605 	-1.00407e-19
34.5061 	0.00964446 	0.276165 	1.33605 	-1.00407e-19
34.5763 	0.00964446 	0.276165 	1.33605 	-1.00407e-19
34.6464 	0.00964446 	0.276165 	1.33605 	-1.00407e-19
34.7165 	0.205948 	0.266111 	1.61978 	1.10198e-19
34.7867 	0.205948 	0.266111 	1.61978 	1.10198e-19
34.8568 	0.205948 	0.266111 	1.61978 	1.10198e-19
34.9269 	0.205948 	0.266111 	1.61978 	1.10198e-19
34.9971 	0.205948 	0.266111 	1.61978 	1.10198e-19
35.0672 	0.205948 	0.266111 	1.61978 	1.10198e-19
35.1373 	0.205948 	0.266111 	1.61978 	1.10198e-19
35.2075 	0.205948 	0.266111 	1.61978 	1.10198e-19
35.2776 	0.205948 	0.266111 	1.61978 	1.10198e-19
35.3477 	0.205948 	0.266111 	1.61978 	1.10198e-19
35.4179 	0.205948 	0.266111 	1.61978 	1.10198e-19
35.488 	0.205948 	0.266111 	1.61978 	1.10198e-19
35.5581 	0.205948 	0.266111 	1.61978 	1.10198e-19
35.6283 	0.205948 	0.266111 	1.61978 	1.10198e-19
35.6984 	0.205948 	0.266111 	1.61978 	1.10198e-19
35.7685 	0.205948 	0.266111 	1.61978 	1.10198e-19
35.8387 	0.205948 	0.266111 	1.61978 	1.10198e-19
35.9088 	0.205948 	0.266111 	1.61978 	1.10198e-19
35.9789 	0.205948 	0.266111 	1.61978 	1.10198e-19
36.0491 	0.179718 	0.24281 	1.58147 	0
36.1192 	0.179718 	0.24281 	1.58147 	0
36.1893 	0.179718 	0.24281 	1.58147 	0
36.2595 	0.179718 	0.24281 	1.58147 	0
36.3296 	0.179718 	0.24281 	1.58147 	0
36.3997 	0.179718 	0.24281 	1.58147 	0
36.4699 	0.179718 	0.24281 	1.58147 	0
36.54 	0.179718 	0.24281 	1.58147 	0
36.6102 	0.179718 	0.24281 	1.58147 	0
36.6803 	0.179718 	0.24281 	1.58147 	0
36.7504 	0.179718 	0.24281 	1.58147 	0
36.8206 	0.179718 	0.24281 	1.58147 	0
36.8907 	0.0526279 	0.191039 	1.45911 	6.20496e-20
36.9608 	0.0526279 	0.191039 	1.45911 	6.20496e-20
37.031 	0.0526279 	0.191039 	1.45911 	6.20496e-20
37.1011 	0.0526279 	0.191039 	1.45911 	6.20496e-20
37.1712 	0.0526279 	0.191039 	1.45911 	6.20496e-20
37.2414 	0.0526279 	0.191039 	1.45911 	6.20496e-20
37.3115 	0.0526279 	0.191039 	1.45911 	6.20496e-20
37.3816 	0.0526279 	0.191039 	1.45911 	6.20496e-20
37.4518 	0.0526279 	0.191039 	1.45911 	6.20496e-20
37.5219 	0.0526279 	0.191039 	1.45911 	6.20496e-20
37.592 	0.0526279 	0.191039 	1.45911 	6.20496e-20
37.6622 	0.0526279 	0.191039 	1.45911 	6.20496e-20
37.7323 	0.0526279 	0.191039 	1.45911 	6.20496e-20
37.8024 	0.0526279 	0.191039 	1.45911 	6.20496e-20
37.8726 	0.0526279 	0.191039 	1.45911 	6.20496e-20
37.9427 	0.0526279 	0.191039 	1.45911 	6.20496e-20
38.0128 	0.0526279 	0.191039 	1.45911 	6.20496e-20
38.083 	0.0526279 	0.191039 	1.45911 	6.20496e-20
38.1531 	0.0526279 	0.191039 	1.45911 	6.20496e-20
38.2232 	0.075325 	0.133888 	1.59893 	-7.11845e-20
38.2934 	0.075325 	0.133888 	1.59893 	-7.11845e-20
38.3635 	0.075325 	0.133888 	1.59893 	-7.11845e-20
38.4336 	0.075325 	0.133888 	1.59893 	-7.11845e-20
38.5038 	0.075325 	0.133888 	1.59893 	-7.11845e-20
38.5739 	0.075325 	0.133888 	1.59893 	-7.11845e-20
38.644 	0.075325 	0.133888 	1.59893 	-7.11845e-20
38.7142 	0.075325 	0.133888 	1.59893 	-7.11845e-20
38.7843 	0.075325 	0.133888 	1.59893 	-7.11845e-20
38.8545 	0.075325 	0.133888 	1.59893 	-7.11845e-20
38.9246 	0.075325 	0.133888 	1.59893 	-7.11845e-20
38.9947 	0.075325 	0.133888 	1.59893 	-7.11845e-20
39.0649 	0.075325 	0.133888 	1.59893 	-7.11845e-20
39.135 	0.075325 	0.133888 	1.59893 	-7.11845e-20
39.2051 	0.036441 	0.116662 	1.57464 	0
39.2753 	0.036441 	0.116662 	1.57464 	0
39.3454 	0.036441 	0.116662 	1.57464 	0
39.4155 	0.036441 	0.116662 	1.57464 	0
39.4857 	0.036441 	0.116662 	1.57464 	0
39.5558 	0.036441 	0.116662 	1.57464 	0
39.6259 	0.036441 	0.116662 	1.57464 	0
39.6961 	0.036441 	0.116662 	1.57464 	0
39.7662 	0.036441 	0.116662 	1.57464 	0
39.8363 	0.036441 	0.116662 	1.57464 	0
39.9065 	0.036441 	0.116662 	1.57464 	0
39.9766 	0.036441 	0.116662 	1.57464 	0
40.0467 	0.036441 	0.116662 	1.57464 	0
40.1169 	0.036441 	0.116662 	1.57464 	0
40.187 	0.036441 	0.116662 	1.57464 	0
40.2571 	0.036441 	0.116662 	1.57464 	0
40.3273 	0.036441 	0.116662 	1.57464 	0
40.3974 	0.036441 	0.116662 	1.57464 	0
40.4675 	0.036441 	0.116662 	1.57464 	0
40.5377 	0.036441 	0.116662 	1.57464 	0
40.6078 	0.036441 	0.116662 	1.57464 	0
40.6779 	0.0217448 	0.113495 	1.52913 	-1.30436e-20
40.7481 	0.0217448 	0.113495 	1.52913 	-1.30436e-20
40.8182 	0.0217448 	0.113495 	1.52913 	-1.30436e-20
40.8883 	0.0217448 	0.113495 	1.52913 	-1.30436e-20
40.9585 	0.0217448 	0.113495 	1.52913 	-1.30436e-20
41.0286 	0.0217448 	0.113495 	1.52913 	-1.30436e-20
41.0988 	0.0217448 	0.113495 	1.52913 	-1.30436e-20
41.1689 	0.0217448 	0.113495 	1.52913 	-1.30436e-20
41.239 	0.0228058 	0.0887672 	1.53911 	2.44534e-20
41.3092 	0.0228058 	0.0887672 	1.53911 	2.44534e-20
41.3793 	0.0228058 	0.0887672 	1.53911 	2.44534e-20
41.4494 	0.0228058 	0.0887672 	1.53911 	2.44534e-20
41.5196 	0.0228058 	0.0887672 	1.53911 	2.44534e-20
41.5897 	0.0228058 	0.0887672 	1.53911 	2.44534e-20
41.6598 	0.0228058 	0.0887672 	1.53911 	2.44534e-20
41.73 	0.0228058 	0.0887672 	1.53911 	2.44534e-20
41.8001 	0.0228058 	0.0887672 	1.53911 	2.44534e-20
41.8702 	0.0228058 	0.0887672 	1.53911 	2.44534e-20
41.9404 	0.0228058 	0.0887672 	1.53911 	2.44534e-20
42.0105 	0.0228058 	0.0887672 	1.53911 	2.44534e-20
42.0806 	0.0228058 	0.0887672 	1.53911 	2.44534e-20
42.1508 	0.0228058 	0.0887672 	1.53911 	2.44534e-20
42.2209 	0.0228058 	0.0887672 	1.53911 	2.44534e-20
42.291 	0.0228058 	0.0887672 	1.53911 	2.44534e-20
42.3612 	0.0228058 	0.0887672 	1.53911 	2.44534e-20
42.4313 	0.0228058 	0.0887672 	1.53911 	2.44534e-20
42.5014 	0.0228058 	0.0887672 	1.53911 	2.44534e-20
42.5716 	0.0228058 	0.0887672 	1.53911 	2.44534e-20
42.6417 	0.0228058 	0.0887672 	1.53911 	2.44534e-20
42.7118 	0.0111632 	0.087502 	1.52963 	0
42.782 	0.0111632 	0.087502 	1.52963 	0
42.8521 	0.0111632 	0.087502 	1.52963 	0
42.9222 	0.0111632 	0.087502 	1.52963 	0
42.9924 	0.0293718 	0.0457973 	1.58247 	0
43.0625 	0.0293718 	0.0457973 	1.58247 	0
43.1327 	0.0293718 	0.0457973 	1.58247 	0
43.2028 	0.0293718 	0.0457973 	1.58247 	0
43.2729 	0.0293718 	0.0457973 	1.58247 	0
43.3431 	0.0293718 	0.0457973 	1.58247 	0
43.4132 	0.0293718 	0.0457973 	1.58247 	0
43.4833 	0.0293718 	0.0457973 	1.58247 	0
43.5535 	0.0293718 	0.0457973 	1.58247 	0
43.6236 	0.0293718 	0.0457973 	1.58247 	0
43.6937 	0.0293718 	0.0457973 	1.58247 	0
43.7639 	0.0293718 	0.0457973 	1.58247 	0