0.490941 	1.367 	0.00590045 	3.00061 	-4.19976e-20
0.561075 	1.367 	0.00590045 	3.00061 	-4.19976e-20
0.63121 	1.367 	0.00590045 	3.00061 	-4.19976e-20
0.701344 	1.367 	0.00590045 	3.00061 	-4.19976e-20
0.771478 	1.367 	0.00590045 	3.00061 	-4.19976e-20
0.841613 	1.367 	0.00590045 	3.00061 	-4.19976e-20
0.911747 	1.367 	0.00590045 	3.00061 	-4.19976e-20
0.981881 	1.367 	0.00590045 	3.00061 	-4.19976e-20
1.05202 	1.367 	0.00590045 	3.00061 	-4.19976e-20
1.12215 	1.367 	0.00590045 	3.00061 	-4.19976e-20
1.19228 	1.367 	0.00590045 	3.00061 	-4.19976e-20
1.26242 	1.367 	0.00590045 	3.00061 	-4.19976e-20
1.33255 	1.32767 	0.0137682 	3.01479 	-4.22725e-20
1.40269 	1.32767 	0.0137682 	3.01479 	-4.22725e-20
1.47282 	1.32767 	0.0137682 	3.01479 	-4.22725e-20
1.54296 	1.32767 	0.0137682 	3.01479 	-4.22725e-20
1.61309 	1.32767 	0.0137682 	3.01479 	-4.22725e-20
1.68323 	1.32767 	0.0137682 	3.01479 	-4.22725e-20
1.75336 	1.32767 	0.0137682 	3.01479 	-4.22725e-20
1.82349 	1.32767 	0.0137682 	3.01479 	-4.22725e-20
1.89363 	1.32767 	0.0137682 	3.01479 	-4.22725e-20
1.96376 	1.32767 	0.0137682 	3.01479 	-4.22725e-20
2.0339 	1.32767 	0.0137682 	3.01479 	-4.22725e-20
2.10403 	1.32767 	0.0137682 	3.01479 	-4.22725e-20
2.17417 	1.26693 	0.0144752 	3.03144 	8.90988e-20
2.2443 	1.26693 	0.0144752 	3.03144 	8.90988e-20
2.31443 	1.26693 	0.0144752 	3.03144 	8.90988e-20
2.38457 	1.26693 	0.0144752 	3.03144 	8.90988e-20
2.4547 	1.26693 	0.0144752 	3.03144 	8.90988e-20
2.52484 	1.26693 	0.0144752 	3.03144 	8.90988e-20
2.59497 	1.26693 	0.0144752 	3.03144 	8.90988e-20
2.66511 	1.26693 	0.0144752 	3.03144 	8.90988e-20
2.73524 	1.26693 	0.0144752 	3.03144 	8.90988e-20
2.80538 	1.26693 	0.0144752 	3.03144 	8.90988e-20
2.87551 	1.26693 	0.0144752 	3.03144 	8.90988e-20
2.94564 	1.26693 	0.0144752 	3.03144 	8.90988e-20
3.01578 	1.19305 	0.0160976 	3.05927 	-1.01378e-20
3.08591 	1.19305 	0.0160976 	3.05927 	-1.01378e-20
3.15605 	1.19305 	0.0160976 	3.05927 	-1.01378e-20
3.22618 	1.19305 	0.0160976 	3.05927 	-1.01378e-20
3.29632 	1.19305 	0.0160976 	3.05927 	-1.01378e-20
3.36645 	1.19305 	0.0160976 	3.05927 	-1.01378e-20
3.43659 	1.19305 	0.0160976 	3.05927 	-1.01378e-20
3.50672 	1.19305 	0.0160976 	3.05927 	-1.01378e-20
3.57685 	1.19305 	0.0160976 	3.05927 	-1.01378e-20
3.64699 	1.19305 	0.0160976 	3.05927 	-1.01378e-20
3.71712 	1.19305 	0.0160976 	3.05927 	-1.01378e-20
3.78726 	1.18579 	0.00728784 	3.05508 	1.98886e-20
3.85739 	1.10687 	-0.000881545 	3.0847 	-1.42767e-19
3.92753 	1.10687 	-0.000881545 	3.0847 	-1.42767e-19
3.99766 	1.10687 	-0.000881545 	3.0847 	-1.42767e-19
4.06779 	1.10687 	-0.000881545 	3.0847 	-1.42767e-19
4.13793 	1.10687 	-0.000881545 	3.0847 	-1.42767e-19
4.20806 	1.10687 	-0.000881545 	3.0847 	-1.42767e-19
4.2782 	1.10687 	-0.000881545 	3.0847 	-1.42767e-19
4.34833 	1.10687 	-0.000881545 	3.0847 	-1.42767e-19
4.41847 	1.10687 	-0.000881545 	3.0847 	-1.42767e-19
4.4886 	1.10687 	-0.000881545 	3.0847 	-1.42767e-19
4.55874 	1.10687 	-0.000881545 	3.0847 	-1.42767e-19
4.62887 	1.10687 	-0.000881545 	3.0847 	-1.42767e-19
4.699 	1.10687 	-0.000881545 	3.0847 	-1.42767e-19
4.76914 	1.02823 	0.00581371 	3.10612 	2.7521e-19
4.83927 	1.02823 	0.00581371 	3.10612 	2.7521e-19
4.90941 	1.02823 	0.00581371 	3.10612 	2.7521e-19
4.97954 	1.02823 	0.00581371 	3.10612 	2.7521e-19
5.04968 	1.02823 	0.00581371 	3.10612 	2.7521e-19
5.11981 	1.02823 	0.00581371 	3.10612 	2.7521e-19
5.18994 	1.02823 	0.00581371 	3.10612 	2.7521e-19
5.26008 	1.02823 	0.00581371 	3.10612 	2.7521e-19
5.33021 	1.02823 	0.00581371 	3.10612 	2.7521e-19
5.40035 	1.02823 	0.00581371 	3.10612 	2.7521e-19
5.47048 	1.02823 	0.00581371 	3.10612 	2.7521e-19
5.54062 	1.02823 	0.00581371 	3.10612 	2.7521e-19
5.61075 	0.953646 	-0.00226795 	3.1341 	-1.32213e-19
5.68089 	0.953646 	-0.00226795 	3.1341 	-1.32213e-19
5.75102 	0.953646 	-0.00226795 	3.1341 	-1.32213e-19
5.82115 	0.953646 	-0.00226795 	3.1341 	-1.32213e-19
5.89129 	0.953646 	-0.00226795 	3.1341 	-1.32213e-19
5.96142 	0.953646 	-0.00226795 	3.1341 	-1.32213e-19
6.03156 	0.953646 	-0.00226795 	3.1341 	-1.32213e-19
6.10169 	0.953646 	-0.00226795 	3.1341 	-1.32213e-19
6.17183 	0.953646 	-0.00226795 	3.1341 	-1.32213e-19
6.24196 	0.953646 	-0.00226795 	3.1341 	-1.32213e-19
6.3121 	0.953646 	-0.00226795 	3.1341 	-1.32213e-19
6.38223 	0.953646 	-0.00226795 	3.1341 	-1.32213e-19
6.45236 	0.882177 	0.00589649 	3.15272 	0
6.5225 	0.882177 	0.00589649 	3.15272 	0
6.59263 	0.882177 	0.00589649 	3.15272 	0
6.66277 	0.882177 	0.00589649 	3.15272 	0
6.7329 	0.882177 	0.00589649 	3.15272 	0
6.80304 	0.882177 	0.00589649 	3.15272 	0
6.87317 	0.882177 	0.00589649 	3.15272 	0
6.9433 	0.882177 	0.00589649 	3.15272 	0
7.01344 	0.882177 	0.00589649 	3.15272 	0
7.08357 	0.882177 	0.00589649 	3.15272 	0
7.15371 	0.882177 	0.00589649 	3.15272 	0
7.22384 	0.882177 	0.00589649 	3.15272 	0
7.29398 	0.814154 	-0.000768391 	3.17855 	0
7.36411 	0.814154 	-0.000768391 	3.17855 	0
7.43425 	0.814154 	-0.000768391 	3.17855 	0
7.50438 	0.814154 	-0.000768391 	3.17855 	0
7.57451 	0.814154 	-0.000768391 	3.17855 	0
7.64465 	0.814154 	-0.000768391 	3.17855 	0
7.71478 	0.814154 	-0.000768391 	3.17855 	0
7.78492 	0.814154 	-0.000768391 	3.17855 	0
7.85505 	0.814154 	-0.000768391 	3.17855 	0
7.92519 	0.814154 	-0.000768391 	3.17855 	0
7.99532 	0.814154 	-0.000768391 	3.17855 	0
8.06545 	0.814154 	-0.000768391 	3.17855 	0
8.13559 	0.814154 	-0.000768391 	3.17855 	0
8.20572 	0.747012 	0.0094046 	3.19535 	3.88529e-22
8.27586 	0.747012 	0.0094046 	3.19535 	3.88529e-22
8.34599 	0.747012 	0.0094046 	3.19535 	3.88529e-22
8.41613 	0.747012 	0.0094046 	3.19535 	3.88529e-22
8.48626 	0.747012 	0.0094046 	3.19535 	3.88529e-22
8.5564 	0.747012 	0.0094046 	3.19535 	3.88529e-22
8.62653 	0.747012 	0.0094046 	3.19535 	3.88529e-22
8.69666 	0.747012 	0.0094046 	3.19535 	3.88529e-22
8.7668 	0.747012 	0.0094046 	3.19535 	3.88529e-22
8.83693 	0.747012 	0.0094046 	3.19535 	3.88529e-22
8.90707 	0.747012 	0.0094046 	3.19535 	3.88529e-22
8.9772 	0.747012 	0.0094046 	3.19535 	3.88529e-22
9.04734 	0.680704 	0.00559787 	3.22053 	1.7273e-19
9.11747 	0.680704 	0.00559787 	3.22053 	1.7273e-19
9.18761 	0.680704 	0.00559787 	3.22053 	1.7273e-19
9.25774 	0.680704 	0.00559787 	3.22053 	1.7273e-19
9.32787 	0.680704 	0.00559787 	3.22053 	1.7273e-19
9.39801 	0.680704 	0.00559787 	3.22053 	1.7273e-19
9.46814 	0.680704 	0.00559787 	3.22053 	1.7273e-19
9.53828 	0.680704 	0.00559787 	3.22053 	1.7273e-19
9.60841 	0.680704 	0.00559787 	3.22053 	1.7273e-19
9.67855 	0.680704 	0.00559787 	3.22053 	1.7273e-19
9.74868 	0.680704 	0.00559787 	3.22053 	1.7273e-19
9.81881 	0.680704 	0.00559787 	3.22053 	1.7273e-19
9.88895 	0.680704 	0.00559787 	3.22053 	1.7273e-19
9.95908 	0.613289 	0.0222823 	3.23699 	-8.42057e-21
10.0292 	0.613289 	0.0222823 	3.23699 	-8.42057e-21
10.0994 	0.613289 	0.0222823 	3.23699 	-8.42057e-21
10.1695 	0.613289 	0.0222823 	3.23699 	-8.42057e-21
10.2396 	0.613289 	0.0222823 	3.23699 	-8.42057e-21
10.3098 	0.613289 	0.0222823 	3.23699 	-8.42057e-21
10.3799 	0.613289 	0.0222823 	3.23699 	-8.42057e-21
10.45 	0.613289 	0.0222823 	3.23699 	-8.42057e-21
10.5202 	0.613289 	0.0222823 	3.23699 	-8.42057e-21
10.5903 	0.613289 	0.0222823 	3.23699 	-8.42057e-21
10.6604 	0.613289 	0.0222823 	3.23699 	-8.42057e-21
10.7306 	0.613289 	0.0222823 	3.23699 	-8.42057e-21
10.8007 	0.543896 	0.0301783 	3.26295 	-1.62217e-19
10.8708 	0.543896 	0.0301783 	3.26295 	-1.62217e-19
10.941 	0.543896 	0.0301783 	3.26295 	-1.62217e-19
11.0111 	0.543896 	0.0301783 	3.26295 	-1.62217e-19
11.0812 	0.543896 	0.0301783 	3.26295 	-1.62217e-19
11.1514 	0.543896 	0.0301783 	3.26295 	-1.62217e-19
11.2215 	0.543896 	0.0301783 	3.26295 	-1.62217e-19
11.2916 	0.543896 	0.0301783 	3.26295 	-1.62217e-19
11.3618 	0.543896 	0.0301783 	3.26295 	-1.62217e-19
11.4319 	0.543896 	0.0301783 	3.26295 	-1.62217e-19
11.502 	0.543896 	0.0301783 	3.26295 	-1.62217e-19
11.5722 	0.543896 	0.0301783 	3.26295 	-1.62217e-19
11.6423 	0.543896 	0.0301783 	3.26295 	-1.62217e-19
11.7124 	0.466334 	0.0658718 	3.28283 	-2.16298e-19
11.7826 	0.466334 	0.0658718 	3.28283 	-2.16298e-19
11.8527 	0.466334 	0.0658718 	3.28283 	-2.16298e-19
11.9228 	0.466334 	0.0658718 	3.28283 	-2.16298e-19
11.993 	0.466334 	0.0658718 	3.28283 	-2.16298e-19
12.0631 	0.466334 	0.0658718 	3.28283 	-2.16298e-19
12.1332 	0.466334 	0.0658718 	3.28283 	-2.16298e-19
12.2034 	0.466334 	0.0658718 	3.28283 	-2.16298e-19
12.2735 	0.466334 	0.0658718 	3.28283 	-2.16298e-19
12.3437 	0.466334 	0.0658718 	3.28283 	-2.16298e-19
12.4138 	0.466334 	0.0658718 	3.28283 	-2.16298e-19
12.4839 	0.466334 	0.0658718 	3.28283 	-2.16298e-19
12.5541 	0.466334 	0.0658718 	3.28283 	-2.16298e-19
12.6242 	0.374294 	0.0953212 	3.31325 	3.86618e-19
12.6943 	0.374294 	0.0953212 	3.31325 	3.86618e-19
12.7645 	0.374294 	0.0953212 	3.31325 	3.86618e-19
12.8346 	0.374294 	0.0953212 	3.31325 	3.86618e-19
12.9047 	0.374294 	0.0953212 	3.31325 	3.86618e-19
12.9749 	0.374294 	0.0953212 	3.31325 	3.86618e-19
13.045 	0.374294 	0.0953212 	3.31325 	3.86618e-19
13.1151 	0.374294 	0.0953212 	3.31325 	3.86618e-19
13.1853 	0.374294 	0.0953212 	3.31325 	3.86618e-19
13.2554 	0.374294 	0.0953212 	3.31325 	3.86618e-19
13.3255 	0.374294 	0.0953212 	3.31325 	3.86618e-19
13.3957 	0.374294 	0.0953212 	3.31325 	3.86618e-19
13.4658 	0.374294 	0.0953212 	3.31325 	3.86618e-19
13.5359 	0.248023 	0.179807 	3.35209 	-1.68497e-19
13.6061 	0.248023 	0.179807 	3.35209 	-1.68497e-19
13.6762 	0.248023 	0.179807 	3.35209 	-1.68497e-19
13.7463 	0.248023 	0.179807 	3.35209 	-1.68497e-19
13.8165 	0.248023 	0.179807 	3.35209 	-1.68497e-19
13.8866 	0.248023 	0.179807 	3.35209 	-1.68497e-19
13.9567 	0.248023 	0.179807 	3.35209 	-1.68497e-19
14.0269 	0.248023 	0.179807 	3.35209 	-1.68497e-19
14.097 	0.248023 	0.179807 	3.35209 	-1.68497e-19
14.1671 	0.248023 	0.179807 	3.35209 	-1.68497e-19
14.2373 	0.248023 	0.179807 	3.35209 	-1.68497e-19
14.3074 	0.248023 	0.179807 	3.35209 	-1.68497e-19
14.3776 	0.124933 	0.207033 	3.38044 	0
14.4477 	-0.0987517 	0.203077 	3.44395 	-8.61263e-20
14.5178 	-0.0987517 	0.203077 	3.44395 	-8.61263e-20
14.588 	-0.0987517 	0.203077 	3.44395 	-8.61263e-20
14.6581 	-0.0987517 	0.203077 	3.44395 	-8.61263e-20
14.7282 	-0.0987517 	0.203077 	3.44395 	-8.61263e-20
14.7984 	-0.0987517 	0.203077 	3.44395 	-8.61263e-20
14.8685 	-0.0768581 	0.230262 	3.43539 	1.69168e-19
14.9386 	-0.0768581 	0.230262 	3.43539 	1.69168e-19
15.0088 	-0.0768581 	0.230262 	3.43539 	1.69168e-19
15.0789 	-0.0768581 	0.230262 	3.43539 	1.69168e-19
15.149 	-0.0768581 	0.230262 	3.43539 	1.69168e-19
15.2192 	-0.337273 	0.299643 	3.50885 	-5.47179e-19
15.2893 	-0.337273 	0.299643 	3.50885 	-5.47179e-19
15.3594 	-0.337273 	0.299643 	3.50885 	-5.47179e-19
15.4296 	-0.206366 	0.379206 	3.46445 	2.34856e-19
15.4997 	-0.206366 	0.379206 	3.46445 	2.34856e-19
15.5698 	-0.206366 	0.379206 	3.46445 	2.34856e-19
15.64 	-0.206366 	0.379206 	3.46445 	2.34856e-19
15.7101 	-0.206366 	0.379206 	3.46445 	2.34856e-19
15.7802 	-0.206366 	0.379206 	3.46445 	2.34856e-19
15.8504 	-0.206366 	0.379206 	3.46445 	2.34856e-19
15.9205 	-0.495009 	0.378665 	3.56315 	1.07728e-19
15.9906 	-0.495009 	0.378665 	3.56315 	1.07728e-19
16.0608 	-0.495009 	0.378665 	3.56315 	1.07728e-19
16.1309 	-0.267142 	0.473304 	3.47281 	-9.90127e-20
16.201 	-0.267142 	0.473304 	3.47281 	-9.90127e-20
16.2712 	-0.267142 	0.473304 	3.47281 	-9.90127e-20
16.3413 	-0.267142 	0.473304 	3.47281 	-9.90127e-20
16.4114 	-0.267142 	0.473304 	3.47281 	-9.90127e-20
16.4816 	-0.267142 	0.473304 	3.47281 	-9.90127e-20
16.5517 	-0.267142 	0.473304 	3.47281 	-9.90127e-20
16.6219 	-0.483652 	0.580958 	3.55727 	0
16.692 	-0.483652 	0.580958 	3.55727 	0
16.7621 	-0.483652 	0.580958 	3.55727 	0
16.8323 	-0.483652 	0.580958 	3.55727 	0
16.9024 	-0.483652 	0.580958 	3.55727 	0
16.9725 	-0.220716 	0.58435 	3.44325 	-6.51948e-20
17.0427 	-0.220716 	0.58435 	3.44325 	-6.51948e-20
17.1128 	-0.220716 	0.58435 	3.44325 	-6.51948e-20
17.1829 	-0.220716 	0.58435 	3.44325 	-6.51948e-20
17.2531 	-0.397614 	0.688195 	3.5144 	-4.10605e-19
17.3232 	-0.397614 	0.688195 	3.5144 	-4.10605e-19
17.3933 	-0.397614 	0.688195 	3.5144 	-4.10605e-19
17.4635 	-0.397614 	0.688195 	3.5144 	-4.10605e-19
17.5336 	-0.397614 	0.688195 	3.5144 	-4.10605e-19
17.6037 	-0.397614 	0.688195 	3.5144 	-4.10605e-19
17.6739 	-0.397614 	0.688195 	3.5144 	-4.10605e-19
17.744 	-0.397614 	0.688195 	3.5144 	-4.10605e-19
17.8141 	-0.397614 	0.688195 	3.5144 	-4.10605e-19
17.8843 	-0.397614 	0.688195 	3.5144 	-4.10605e-19
17.9544 	-0.295267 	0.706123 	3.40445 	0
18.0245 	-0.295267 	0.706123 	3.40445 	0
18.0947 	-0.295267 	0.706123 	3.40445 	0
18.1648 	-0.295267 	0.706123 	3.40445 	0
18.2349 	-0.295267 	0.706123 	3.40445 	0
18.3051 	-0.295267 	0.706123 	3.40445 	0
18.3752 	-0.295267 	0.706123 	3.40445 	0
18.4453 	-0.295267 	0.706123 	3.40445 	0
18.5155 	-0.295267 	0.706123 	3.40445 	0
18.5856 	-0.411011 	0.816317 	3.46707 	0
18.6557 	-0.411011 	0.816317 	3.46707 	0
18.7259 	-0.411011 	0.816317 	3.46707 	0
18.796 	-0.411011 	0.816317 	3.46707 	0
18.8662 	-0.411011 	0.816317 	3.46707 	0
18.9363 	-0.411011 	0.816317 	3.46707 	0
19.0064 	-0.411011 	0.816317 	3.46707 	0
19.0766 	-0.411011 	0.816317 	3.46707 	0
19.1467 	-0.411011 	0.816317 	3.46707 	0
19.2168 	-0.475882 	0.877722 	3.45191 	2.49366e-19
19.287 	-0.192711 	0.789356 	3.14746 	1.18628e-19
19.3571 	-0.192711 	0.789356 	3.14746 	1.18628e-19
19.4272 	-0.192711 	0.789356 	3.14746 	1.18628e-19
19.4974 	-0.192711 	0.789356 	3.14746 	1.18628e-19
19.5675 	-0.192711 	0.789356 	3.14746 	1.18628e-19
19.6376 	-0.192711 	0.789356 	3.14746 	1.18628e-19
19.7078 	-0.192711 	0.789356 	3.14746 	1.18628e-19
19.7779 	-0.192711 	0.789356 	3.14746 	1.18628e-19
19.848 	-0.192711 	0.789356 	3.14746 	1.18628e-19
19.9182 	-0.246629 	0.876061 	3.26018 	2.36797e-19
19.9883 	-0.246629 	0.876061 	3.26018 	2.36797e-19
20.0584 	-0.246629 	0.876061 	3.26018 	2.36797e-19
20.1286 	-0.246629 	0.876061 	3.26018 	2.36797e-19
20.1987 	-0.246629 	0.876061 	3.26018 	2.36797e-19
20.2688 	-0.246629 	0.876061 	3.26018 	2.36797e-19
20.339 	-0.246629 	0.876061 	3.26018 	2.36797e-19
20.4091 	-0.246629 	0.876061 	3.26018 	2.36797e-19
20.4792 	-0.246629 	0.876061 	3.26018 	2.36797e-19
20.5494 	-0.246629 	0.876061 	3.26018 	2.36797e-19
20.6195 	-0.306932 	0.936094 	3.29802 	1.71976e-19
20.6896 	-0.306932 	0.936094 	3.29802 	1.71976e-19
20.7598 	-0.306932 	0.936094 	3.29802 	1.71976e-19
20.8299 	-0.306932 	0.936094 	3.29802 	1.71976e-19
20.9 	-0.182197 	0.792522 	2.54301 	1.64495e-19
20.9702 	-0.182197 	0.792522 	2.54301 	1.64495e-19
21.0403 	-0.182197 	0.792522 	2.54301 	1.64495e-19
21.1105 	-0.182197 	0.792522 	2.54301 	1.64495e-19
21.1806 	-0.182197 	0.792522 	2.54301 	1.64495e-19
21.2507 	-0.182197 	0.792522 	2.54301 	1.64495e-19
21.3209 	-0.235766 	0.865295 	2.73542 	0
21.391 	-0.235766 	0.865295 	2.73542 	0
21.4611 	-0.235766 	0.865295 	2.73542 	0
21.5313 	-0.235766 	0.865295 	2.73542 	0
21.6014 	-0.235766 	0.865295 	2.73542 	0
21.6715 	-0.235766 	0.865295 	2.73542 	0
21.7417 	-0.235766 	0.865295 	2.73542 	0
21.8118 	-0.235766 	0.865295 	2.73542 	0
21.8819 	-0.235766 	0.865295 	2.73542 	0
21.9521 	-0.235766 	0.865295 	2.73542 	0
22.0222 	-0.235766 	0.865295 	2.73542 	0
22.0923 	-0.29007 	0.945354 	2.88569 	2.03036e-19
22.1625 	-0.29007 	0.945354 	2.88569 	2.03036e-19
22.2326 	-0.29007 	0.945354 	2.88569 	2.03036e-19
22.3027 	-0.29007 	0.945354 	2.88569 	2.03036e-19
22.3729 	-0.29007 	0.945354 	2.88569 	2.03036e-19
22.443 	-0.29007 	0.945354 	2.88569 	2.03036e-19
22.5131 	-0.29007 	0.945354 	2.88569 	2.03036e-19
22.5833 	-0.29007 	0.945354 	2.88569 	2.03036e-19
22.6534 	-0.29007 	0.945354 	2.88569 	2.03036e-19
22.7235 	-0.29007 	0.945354 	2.88569 	2.03036e-19
22.7937 	-0.29007 	0.945354 	2.88569 	2.03036e-19
22.8638 	-0.343321 	1.00769 	2.98686 	-5.34114e-19
22.9339 	-0.343321 	1.00769 	2.98686 	-5.34114e-19
23.0041 	-0.343321 	1.00769 	2.98686 	-5.34114e-19
23.0742 	-0.233089 	0.753448 	1.91445 	-5.99726e-20
23.1443 	-0.233089 	0.753448 	1.91445 	-5.99726e-20
23.2145 	-0.233089 	0.753448 	1.91445 	-5.99726e-20
23.2846 	-0.233089 	0.753448 	1.91445 	-5.99726e-20
23.3548 	-0.233089 	0.753448 	1.91445 	-5.99726e-20
23.4249 	-0.233089 	0.753448 	1.91445 	-5.99726e-20
23.495 	-0.233089 	0.753448 	1.91445 	-5.99726e-20
23.5652 	-0.233089 	0.753448 	1.91445 	-5.99726e-20
23.6353 	-0.233089 	0.753448 	1.91445 	-5.99726e-20
23.7054 	-0.268419 	0.814888 	2.01714 	2.71681e-20
23.7756 	-0.268419 	0.814888 	2.01714 	2.71681e-20
23.8457 	-0.268419 	0.814888 	2.01714 	2.71681e-20
23.9158 	-0.268419 	0.814888 	2.01714 	2.71681e-20
23.986 	-0.268419 	0.814888 	2.01714 	2.71681e-20
24.0561 	-0.268419 	0.814888 	2.01714 	2.71681e-20
24.1262 	-0.268419 	0.814888 	2.01714 	2.71681e-20
24.1964 	-0.268419 	0.814888 	2.01714 	2.71681e-20
24.2665 	-0.268419 	0.814888 	2.01714 	2.71681e-20
24.3366 	-0.268419 	0.814888 	2.01714 	2.71681e-20
24.4068 	-0.268419 	0.814888 	2.01714 	2.71681e-20
24.4769 	-0.268419 	0.814888 	2.01714 	2.71681e-20
24.547 	-0.268419 	0.814888 	2.01714 	2.71681e-20
24.6172 	-0.291336 	0.862604 	2.09415 	-4.15895e-19
24.6873 	-0.291336 	0.862604 	2.09415 	-4.15895e-19
24.7574 	-0.291336 	0.862604 	2.09415 	-4.15895e-19
24.8276 	-0.291336 	0.862604 	2.09415 	-4.15895e-19
24.8977 	-0.291336 	0.862604 	2.09415 	-4.15895e-19
24.9678 	-0.291336 	0.862604 	2.09415 	-4.15895e-19
25.038 	-0.291336 	0.862604 	2.09415 	-4.15895e-19
25.1081 	-0.291336 	0.862604 	2.09415 	-4.15895e-19
25.1782 	-0.291336 	0.862604 	2.09415 	-4.15895e-19
25.2484 	-0.291336 	0.862604 	2.09415 	-4.15895e-19
25.3185 	-0.291336 	0.862604 	2.09415 	-4.15895e-19
25.3886 	-0.291336 	0.862604 	2.09415 	-4.15895e-19
25.4588 	-0.312926 	0.92637 	2.13757 	4.28743e-19
25.5289 	-0.312926 	0.92637 	2.13757 	4.28743e-19
25.5991 	-0.312926 	0.92637 	2.13757 	4.28743e-19
25.6692 	-0.312926 	0.92637 	2.13757 	4.28743e-19
25.7393 	-0.312926 	0.92637 	2.13757 	4.28743e-19
25.8095 	-0.312926 	0.92637 	2.13757 	4.28743e-19
25.8796 	-0.312926 	0.92637 	2.13757 	4.28743e-19
25.9497 	-0.312926 	0.92637 	2.13757 	4.28743e-19
26.0199 	-0.312926 	0.92637 	2.13757 	4.28743e-19
26.09 	-0.367503 	0.652157 	1.52162 	9.85781e-20
26.1601 	-0.367503 	0.652157 	1.52162 	9.85781e-20
26.2303 	-0.367503 	0.652157 	1.52162 	9.85781e-20
26.3004 	-0.367503 	0.652157 	1.52162 	9.85781e-20
26.3705 	-0.367503 	0.652157 	1.52162 	9.85781e-20
26.4407 	-0.401894 	0.649392 	1.54619 	-1.02628e-19
26.5108 	-0.401894 	0.649392 	1.54619 	-1.02628e-19
26.5809 	-0.401894 	0.649392 	1.54619 	-1.02628e-19
26.6511 	-0.401894 	0.649392 	1.54619 	-1.02628e-19
26.7212 	-0.401894 	0.649392 	1.54619 	-1.02628e-19
26.7913 	-0.401894 	0.649392 	1.54619 	-1.02628e-19
26.8615 	-0.401894 	0.649392 	1.54619 	-1.02628e-19
26.9316 	-0.401894 	0.649392 	1.54619 	-1.02628e-19
27.0017 	-0.401894 	0.649392 	1.54619 	-1.02628e-19
27.0719 	-0.401894 	0.649392 	1.54619 	-1.02628e-19
27.142 	-0.401894 	0.649392 	1.54619 	-1.02628e-19
27.2121 	-0.401894 	0.649392 	1.54619 	-1.02628e-19
27.2823 	-0.401894 	0.649392 	1.54619 	-1.02628e-19
27.3524 	-0.408774 	0.620848 	1.54946 	0
27.4225 	-0.408774 	0.620848 	1.54946 	0
27.4927 	-0.408774 	0.620848 	1.54946 	0
27.5628 	-0.408774 	0.620848 	1.54946 	0
27.6329 	-0.408774 	0.620848 	1.54946 	0
27.7031 	-0.408774 	0.620848 	1.54946 	0
27.7732 	-0.408774 	0.620848 	1.54946 	0
27.8434 	-0.408774 	0.620848 	1.54946 	0
27.9135 	-0.408774 	0.620848 	1.54946 	0
27.9836 	-0.408774 	0.620848 	1.54946 	0
28.0538 	-0.408774 	0.620848 	1.54946 	0
28.1239 	-0.408774 	0.620848 	1.54946 	0
28.194 	-0.408774 	0.620848 	1.54946 	0
28.2642 	-0.408774 	0.620848 	1.54946 	0
28.3343 	-0.408774 	0.620848 	1.54946 	0
28.4044 	-0.397246 	0.579152 	1.52346 	0
28.4746 	-0.397246 	0.579152 	1.52346 	0
28.5447 	-0.397246 	0.579152 	1.52346 	0
28.6148 	-0.397246 	0.579152 	1.52346 	0
28.685 	-0.397246 	0.579152 	1.52346 	0
28.7551 	-0.397246 	0.579152 	1.52346 	0
28.8252 	-0.397246 	0.579152 	1.52346 	0
28.8954 	-0.397246 	0.579152 	1.52346 	0
28.9655 	-0.397246 	0.579152 	1.52346 	0
29.0356 	-0.397246 	0.579152 	1.52346 	0
29.1058 	-0.397246 	0.579152 	1.52346 	0
29.1759 	-0.397246 	0.579152 	1.52346 	0
29.246 	-0.397246 	0.579152 	1.52346 	0
29.3162 	-0.397246 	0.579152 	1.52346 	0
29.3863 	-0.397246 	0.579152 	1.52346 	0
29.4564 	-0.358729 	0.555246 	1.48404 	-1.38576e-19
29.5266 	-0.358729 	0.555246 	1.48404 	-1.38576e-19
29.5967 	-0.358729 	0.555246 	1.48404 	-1.38576e-19
29.6668 	-0.358729 	0.555246 	1.48404 	-1.38576e-19
29.737 	-0.358729 	0.555246 	1.48404 	-1.38576e-19
29.8071 	-0.358729 	0.555246 	1.48404 	-1.38576e-19
29.8773 	-0.358729 	0.555246 	1.48404 	-1.38576e-19
29.9474 	-0.358729 	0.555246 	1.48404 	-1.38576e-19
30.0175 	-0.358729 	0.555246 	1.48404 	-1.38576e-19
30.0877 	-0.358729 	0.555246 	1.48404 	-1.38576e-19
30.1578 	-0.358729 	0.555246 	1.48404 	-1.38576e-19
30.2279 	-0.358729 	0.555246 	1.48404 	-1.38576e-19
30.2981 	-0.358729 	0.555246 	1.48404 	-1.38576e-19
30.3682 	-0.358729 	0.555246 	1.48404 	-1.38576e-19
30.4383 	-0.358729 	0.555246 	1.48404 	-1.38576e-19
30.5085 	-0.358729 	0.555246 	1.48404 	-1.38576e-19
30.5786 	-0.296987 	0.576047 	1.45649 	4.27925e-20
30.6487 	-0.296987 	0.576047 	1.45649 	4.27925e-20
30.7189 	-0.296987 	0.576047 	1.45649 	4.27925e-20
30.789 	-0.296987 	0.576047 	1.45649 	4.27925e-20
30.8591 	-0.296987 	0.576047 	1.45649 	4.27925e-20
30.9293 	-0.296987 	0.576047 	1.45649 	4.27925e-20
30.9994 	-0.296987 	0.576047 	1.45649 	4.27925e-20
31.0695 	-0.296987 	0.576047 	1.45649 	4.27925e-20
31.1397 	-0.296987 	0.576047 	1.45649 	4.27925e-20
31.2098 	-0.296987 	0.576047 	1.45649 	4.27925e-20
31.2799 	-0.296987 	0.576047 	1.45649 	4.27925e-20
31.3501 	-0.296987 	0.576047 	1.45649 	4.27925e-20
31.4202 	-0.296987 	0.576047 	1.45649 	4.27925e-20
31.4903 	-0.296987 	0.576047 	1.45649 	4.27925e-20
31.5605 	-0.40665 	0.591144 	1.42901 	-2.30101e-19
31.6306 	-0.40665 	0.591144 	1.42901 	-2.30101e-19
31.7007 	-0.40495 	0.612874 	1.40665 	1.39295e-19
31.7709 	-0.40495 	0.612874 	1.40665 	1.39295e-19
31.841 	-0.40495 	0.612874 	1.40665 	1.39295e-19
31.9111 	-0.40495 	0.612874 	1.40665 	1.39295e-19
31.9813 	-0.40495 	0.612874 	1.40665 	1.39295e-19
32.0514 	-0.40495 	0.612874 	1.40665 	1.39295e-19
32.1216 	-0.40495 	0.612874 	1.40665 	1.39295e-19
32.1917 	-0.40495 	0.612874 	1.40665 	1.39295e-19
32.2618 	-0.40495 	0.612874 	1.40665 	1.39295e-19
32.332 	-0.40495 	0.612874 	1.40665 	1.39295e-19
32.4021 	-0.40495 	0.612874 	1.40665 	1.39295e-19
32.4722 	-0.40495 	0.612874 	1.40665 	1.39295e-19
32.5424 	-0.40495 	0.612874 	1.40665 	1.39295e-19
32.6125 	-0.40495 	0.612874 	1.40665 	1.39295e-19
32.6826 	-0.40495 	0.612874 	1.40665 	1.39295e-19
32.7528 	-0.40495 	0.612874 	1.40665 	1.39295e-19
32.8229 	-0.40495 	0.612874 	1.40665 	1.39295e-19
32.893 	-0.40495 	0.612874 	1.40665 	1.39295e-19
32.9632 	-0.42872 	0.67196 	1.34099 	4.4111e-20
33.0333 	-0.42872 	0.67196 	1.34099 	4.4111e-20
33.1034 	-0.42872 	0.67196 	1.34099 	4.4111e-20
33.1736 	-0.42872 	0.67196 	1.34099 	4.4111e-20
33.2437 	-0.42872 	0.67196 	1.34099 	4.4111e-20
33.3138 	-0.42872 	0.67196 	1.34099 	4.4111e-20
33.384 	-0.42872 	0.67196 	1.34099 	4.4111e-20
33.4541 	-0.42872 	0.67196 	1.34099 	4.4111e-20
33.5242 	-0.42872 	0.67196 	1.34099 	4.4111e-20
33.5944 	-0.42872 	0.67196 	1.34099 	4.4111e-20
33.6645 	-0.42872 	0.67196 	1.34099 	4.4111e-20
33.7346 	-0.42872 	0.67196 	1.34099 	4.4111e-20
33.8048 	-0.42872 	0.67196 	1.34099 	4.4111e-20
33.8749 	-0.42872 	0.67196 	1.34099 	4.4111e-20
33.945 	-0.42872 	0.67196 	1.34099 	4.4111e-20
34.0152 	-0.42872 	0.67196 	1.34099 	4.4111e-20
34.0853 	-0.42872 	0.67196 	1.34099 	4.4111e-20
34.1554 	-0.42872 	0.67196 	1.34099 	4.4111e-20
34.2256 	-0.498791 	0.695695 	1.25866 	-3.84736e-20
34.2957 	-0.498791 	0.695695 	1.25866 	-3.84736e-20
34.3659 	-0.498791 	0.695695 	1.25866 	-3.84736e-20
34.436 	-0.498791 	0.695695 	1.25866 	-3.84736e-20
34.5061 	-0.498791 	0.695695 	1.25866 	-3.84736e-20
34.5763 	-0.498791 	0.695695 	1.25866 	-3.84736e-20
34.6464 	-0.498791 	0.695695 	1.25866 	-3.84736e-20
34.7165 	-0.498791 	0.695695 	1.25866 	-3.84736e-20
34.7867 	-0.498791 	0.695695 	1.25866 	-3.84736e-20
34.8568 	-0.498791 	0.695695 	1.25866 	-3.84736e-20
34.9269 	-0.498791 	0.695695 	1.25866 	-3.84736e-20
34.9971 	-0.498791 	0.695695 	1.25866 	-3.84736e-20
35.0672 	-0.498791 	0.695695 	1.25866 	-3.84736e-20
35.1373 	-0.498791 	0.695695 	1.25866 	-3.84736e-20
35.2075 	-0.498791 	0.695695 	1.25866 	-3.84736e-20
35.2776 	-0.498791 	0.695695 	1.25866 	-3.84736e-20
35.3477 	-0.498791 	0.695695 	1.25866 	-3.84736e-20
35.4179 	-0.498791 	0.695695 	1.25866 	-3.84736e-20
35.488 	-0.498791 	0.695695 	1.25866 	-3.84736e-20
35.5581 	-0.498791 	0.695695 	1.25866 	-3.84736e-20
35.6283 	-0.658474 	0.617839 	1.18106 	-1.26327e-20
35.6984 	-0.658474 	0.617839 	1.18106 	-1.26327e-20
35.7685 	-0.658474 	0.617839 	1.18106 	-1.26327e-20
35.8387 	-0.658474 	0.617839 	1.18106 	-1.26327e-20
35.9088 	-0.658474 	0.617839 	1.18106 	-1.26327e-20
35.9789 	-0.658474 	0.617839 	1.18106 	-1.26327e-20
36.0491 	-0.658474 	0.617839 	1.18106 	-1.26327e-20
36.1192 	-0.658474 	0.617839 	1.18106 	-1.26327e-20
36.1893 	-0.658474 	0.617839 	1.18106 	-1.26327e-20
36.2595 	-0.658474 	0.617839 	1.18106 	-1.26327e-20
36.3296 	-0.658474 	0.617839 	1.18106 	-1.26327e-20
36.3997 	-0.658474 	0.617839 	1.18106 	-1.26327e-20
36.4699 	-0.658474 	0.617839 	1.18106 	-1.26327e-20
36.54 	-0.658474 	0.617839 	1.18106 	-1.26327e-20
36.6102 	-0.658474 	0.617839 	1.18106 	-1.26327e-20
36.6803 	-0.658474 	0.617839 	1.18106 	-1.26327e-20
36.7504 	-0.658474 	0.617839 	1.18106 	-1.26327e-20
36.8206 	-0.658474 	0.617839 	1.18106 	-1.26327e-20
36.8907 	-0.658474 	0.617839 	1.18106 	-1.26327e-20
36.9608 	-0.658474 	0.617839 	1.18106 	-1.26327e-20
37.031 	-0.658474 	0.617839 	1.18106 	-1.26327e-20
37.1011 	-0.829177 	0.403688 	1.10163 	0
37.1712 	-0.829177 	0.403688 	1.10163 	0
37.2414 	-0.829177 	0.403688 	1.10163 	0
37.3115 	-0.829177 	0.403688 	1.10163 	0
37.3816 	-0.829177 	0.403688 	1.10163 	0
37.4518 	-0.829177 	0.403688 	1.10163 	0
37.5219 	-0.829177 	0.403688 	1.10163 	0
37.592 	-0.829177 	0.403688 	1.10163 	0
37.6622 	-0.829177 	0.403688 	1.10163 	0
37.7323 	-0.829177 	0.403688 	1.10163 	0
37.8024 	-0.829177 	0.403688 	1.10163 	0
37.8726 	-0.829177 	0.403688 	1.10163 	0
37.9427 	-0.829177 	0.403688 	1.10163 	0
38.0128 	-0.829177 	0.403688 	1.10163 	0
38.083 	-0.829177 	0.403688 	1.10163 	0
38.1531 	-0.829177 	0.403688 	1.10163 	0
38.2232 	-0.829177 	0.403688 	1.10163 	0
38.2934 	-0.880475 	0.125136 	1.08385 	0
38.3635 	-0.880475 	0.125136 	1.08385 	0
38.4336 	-0.880475 	0.125136 	1.08385 	0
38.5038 	-0.880475 	0.125136 	1.08385 	0
38.5739 	-0.880475 	0.125136 	1.08385 	0
38.644 	-0.880475 	0.125136 	1.08385 	0
38.7142 	-0.880475 	0.125136 	1.08385 	0
38.7843 	-0.880475 	0.125136 	1.08385 	0
38.8545 	-0.880475 	0.125136 	1.08385 	0
38.9246 	-0.880475 	0.125136 	1.08385 	0
38.9947 	-0.880475 	0.125136 	1.08385 	0
39.0649 	-0.880475 	0.125136 	1.08385 	0
39.135 	-0.880475 	0.125136 	1.08385 	0
39.2051 	-0.880475 	0.125136 	1.08385 	0
39.2753 	-0.880475 	0.125136 	1.08385 	0
39.3454 	-0.880475 	0.125136 	1.08385 	0
39.4155 	-0.880475 	0.125136 	1.08385 	0
39.4857 	-0.880475 	0.125136 	1.08385 	0
39.5558 	-0.798155 	-0.170448 	1.14614 	0
39.6259 	-0.798155 	-0.170448 	1.14614 	0
39.6961 	-0.798155 	-0.170448 	1.14614 	0
39.7662 	-0.798155 	-0.170448 	1.14614 	0
39.8363 	-0.798155 	-0.170448 	1.14614 	0
39.9065 	-0.798155 	-0.170448 	1.14614 	0
39.9766 	-0.798155 	-0.170448 	1.14614 	0
40.0467 	-0.798155 	-0.170448 	1.14614 	0
40.1169 	-0.798155 	-0.170448 	1.14614 	0
40.187 	-0.798155 	-0.170448 	1.14614 	0
40.2571 	-0.798155 	-0.170448 	1.14614 	0
40.3273 	-0.798155 	-0.170448 	1.14614 	0
40.3974 	-0.798155 	-0.170448 	1.14614 	0
40.4675 	-0.798155 	-0.170448 	1.14614 	0
40.5377 	-0.798155 	-0.170448 	1.14614 	0
40.6078 	-0.798155 	-0.170448 	1.14614 	0
40.6779 	-0.798155 	-0.170448 	1.14614 	0
40.7481 	-0.637534 	-0.394812 	1.24726 	0
40.8182 	-0.637534 	-0.394812 	1.24726 	0
40.8883 	-0.637534 	-0.394812 	1.24726 	0
40.9585 	-0.637534 	-0.394812 	1.24726 	0
41.0286 	-0.637534 	-0.394812 	1.24726 	0
41.0988 	-0.637534 	-0.394812 	1.24726 	0
41.1689 	-0.637534 	-0.394812 	1.24726 	0
41.239 	-0.637534 	-0.394812 	1.24726 	0
41.3092 	-0.637534 	-0.394812 	1.24726 	0
41.3793 	-0.637534 	-0.394812 	1.24726 	0
41.4494 	-0.637534 	-0.394812 	1.24726 	0
41.5196 	-0.637534 	-0.394812 	1.24726 	0
41.5897 	-0.637534 	-0.394812 	1.24726 	0
41.6598 	-0.637534 	-0.394812 	1.24726 	0
41.73 	-0.637534 	-0.394812 	1.24726 	0
41.8001 	-0.637534 	-0.394812 	1.24726 	0
41.8702 	-0.637534 	-0.394812 	1.24726 	0
41.9404 	-0.637534 	-0.394812 	1.24726 	0
42.0105 	-0.442224 	-0.516821 	1.36469 	0
42.0806 	-0.442224 	-0.516821 	1.36469 	0
42.1508 	-0.442224 	-0.516821 	1.36469 	0
42.2209 	-0.442224 	-0.516821 	1.36469 	0
42.291 	-0.442224 	-0.516821 	1.36469 	0
42.3612 	-0.442224 	-0.516821 	1.36469 	0
42.4313 	-0.442224 	-0.516821 	1.36469 	0
42.5014 	-0.442224 	-0.516821 	1.36469 	0
42.5716 	-0.442224 	-0.516821 	1.36469 	0
42.6417 	-0.442224 	-0.516821 	1.36469 	0
42.7118 	-0.442224 	-0.516821 	1.36469 	0
42.782 	-0.442224 	-0.516821 	1.36469 	0
42.8521 	-0.442224 	-0.516821 	1.36469 	0
42.9222 	-0.442224 	-0.516821 	1.36469 	0
42.9924 	-0.442224 	-0.516821 	1.36469 	0
43.0625 	-0.442224 	-0.516821 	1.36469 	0
43.1327 	-0.442224 	-0.516821 	1.36469 	0
43.2028 	-0.25962 	-0.548472 	1.48014 	0
43.2729 	-0.25962 	-0.548472 	1.48014 	0
43.3431 	-0.25962 	-0.548472 	1.48014 	0
43.4132 	-0.25962 	-0.548472 	1.48014 	0
43.4833 	-0.25962 	-0.548472 	1.48014 	0
43.5535 	-0.25962 	-0.548472 	1.48014 	0
43.6236 	-0.25962 	-0.548472 	1.48014 	0
43.6937 	-0.25962 	-0.548472 	1.48014 	0
43.7639 	-0.25962 	-0.548472 	1.48014 	0
43.834 	-0.25962 	-0.548472 	1.48014 	0
43.9041 	-0.25962 	-0.548472 	1.48014 	0
43.9743 	-0.25962 	-0.548472 	1.48014 	0
44.0444 	-0.25962 	-0.548472 	1.48014 	0
44.1145 	-0.25962 	-0.548472 	1.48014 	0