/*--------------------------------*- C++ -*----------------------------------*\
| =========                 |                                                 |
| \\      /  F ield         | OpenFOAM: The Open Source CFD Toolbox           |
|  \\    /   O peration     | Version:  2306                                  |
|   \\  /    A nd           | Website:  www.openfoam.com                      |
|    \\/     M anipulation  |                                                 |
\*---------------------------------------------------------------------------*/
FoamFile
{
    version     2.0;
    format      ascii;
    arch        "LSB;label=32;scalar=64";
    class       volScalarField;
    location    "59";
    object      p;
}
// * * * * * * * * * * * * * * * * * * * * * * * * * * * * * * * * * * * * * //

dimensions      [0 2 -2 0 0 0 0];

internalField   nonuniform List<scalar> 
8800
(
0.813294
0.765243
0.726867
0.698226
0.677601
0.662848
0.652246
0.644744
0.63991
0.637855
0.639148
0.643374
0.65006
0.65941
0.672175
0.689771
0.71422
0.747836
0.790285
0.847411
0.645823
0.65303
0.661468
0.664884
0.662969
0.657445
0.650733
0.644571
0.639816
0.636967
0.636702
0.639238
0.643771
0.649786
0.656708
0.663337
0.667475
0.666966
0.660907
0.651933
0.622527
0.628704
0.632903
0.636263
0.638764
0.639561
0.638452
0.636307
0.634275
0.633375
0.63436
0.636778
0.63963
0.641862
0.642407
0.640885
0.638045
0.634412
0.62988
0.626096
0.617385
0.620085
0.622806
0.625116
0.626761
0.628087
0.628996
0.629201
0.628941
0.628916
0.629688
0.630867
0.631676
0.63163
0.630847
0.629661
0.627919
0.625425
0.623003
0.621473
0.612181
0.613603
0.615402
0.617457
0.619209
0.620514
0.62154
0.622415
0.623098
0.623707
0.624375
0.624854
0.624904
0.624569
0.623886
0.622692
0.621003
0.61913
0.61781
0.616987
0.607159
0.608072
0.609308
0.610889
0.612542
0.614066
0.615338
0.616418
0.617422
0.618359
0.619069
0.619397
0.619357
0.618939
0.618083
0.616878
0.615535
0.614275
0.613456
0.612912
0.602273
0.602938
0.603895
0.605194
0.606609
0.608083
0.609531
0.610857
0.612072
0.613209
0.614061
0.614455
0.614396
0.613904
0.613097
0.612146
0.611139
0.610221
0.609639
0.609239
0.597497
0.598009
0.598789
0.599916
0.601192
0.602571
0.60403
0.605516
0.60696
0.608324
0.609368
0.609872
0.609869
0.609494
0.608897
0.608179
0.607415
0.606735
0.606305
0.605991
0.592766
0.593174
0.593827
0.594831
0.596035
0.597363
0.598815
0.600386
0.602031
0.603662
0.604947
0.605638
0.605823
0.605668
0.605298
0.604791
0.604229
0.603741
0.603421
0.603166
0.587999
0.588331
0.588896
0.58982
0.590975
0.592289
0.593774
0.595441
0.597272
0.599192
0.600793
0.601774
0.602235
0.602333
0.602191
0.601905
0.601535
0.601207
0.600971
0.600757
0.583107
0.583383
0.583887
0.584764
0.585901
0.587239
0.588797
0.590602
0.592659
0.594911
0.59691
0.598269
0.59906
0.599444
0.599551
0.599488
0.599309
0.599121
0.598952
0.598767
0.578003
0.578235
0.5787
0.579561
0.58072
0.582125
0.583798
0.585795
0.588143
0.590807
0.593295
0.595107
0.596283
0.596996
0.59738
0.597548
0.59756
0.597499
0.597385
0.597221
0.572597
0.572794
0.57324
0.574114
0.575336
0.576852
0.578696
0.580951
0.583671
0.586854
0.589934
0.592283
0.59391
0.594996
0.595693
0.596103
0.596323
0.596382
0.596315
0.596164
0.566788
0.566957
0.5674
0.568317
0.569643
0.571322
0.573403
0.575998
0.57919
0.583015
0.586813
0.589803
0.591959
0.593476
0.594525
0.59523
0.595653
0.595827
0.5958
0.595658
0.560459
0.560604
0.56106
0.56205
0.563526
0.565427
0.567822
0.57085
0.57464
0.579255
0.583922
0.587679
0.590461
0.592482
0.593934
0.594955
0.595613
0.595908
0.595917
0.59578
0.553475
0.553594
0.554078
0.555171
0.55685
0.559043
0.56184
0.565419
0.569949
0.575532
0.581249
0.585924
0.589449
0.592065
0.593992
0.59538
0.596296
0.596714
0.596758
0.596621
0.545653
0.545752
0.546278
0.547512
0.549451
0.552014
0.555324
0.559597
0.565046
0.57181
0.578796
0.584566
0.588968
0.592285
0.594779
0.596594
0.5978
0.598348
0.598424
0.598284
0.536771
0.536873
0.537452
0.538843
0.541111
0.544157
0.54812
0.553265
0.559855
0.568063
0.576572
0.583643
0.58908
0.59322
0.596384
0.5987
0.600232
0.600919
0.601024
0.600878
0.526518
0.526602
0.527272
0.528888
0.531588
0.535252
0.540043
0.546285
0.554294
0.564269
0.574603
0.583204
0.589857
0.594965
0.598899
0.601802
0.603705
0.604539
0.60467
0.604514
0.514526
0.514593
0.515364
0.517294
0.520552
0.525009
0.530858
0.53849
0.548265
0.560393
0.572903
0.583301
0.591369
0.597605
0.602434
0.60602
0.608328
0.609309
0.609462
0.609292
0.500247
0.500304
0.501218
0.503562
0.507556
0.513057
0.520286
0.5297
0.541688
0.556433
0.571519
0.584005
0.593692
0.601226
0.607091
0.611444
0.614185
0.615311
0.615477
0.615289
0.48292
0.482966
0.484092
0.48702
0.492021
0.498934
0.508002
0.519738
0.534516
0.552435
0.570532
0.5854
0.596918
0.605913
0.612932
0.618138
0.621326
0.622578
0.622746
0.622538
0.461395
0.461439
0.46291
0.466714
0.473167
0.48207
0.493661
0.508466
0.526765
0.548498
0.570058
0.587584
0.60113
0.611739
0.620002
0.626129
0.629739
0.631079
0.631231
0.631001
0.433931
0.433995
0.436055
0.441275
0.449973
0.461803
0.476951
0.495834
0.518531
0.544772
0.570235
0.590664
0.606388
0.618723
0.628331
0.635362
0.639318
0.640685
0.640799
0.640547
0.39751
0.397676
0.400943
0.408771
0.421259
0.437563
0.457782
0.482025
0.510102
0.541535
0.57128
0.594773
0.612762
0.626877
0.637861
0.645694
0.649849
0.651151
0.651203
0.650933
0.346346
0.347334
0.353834
0.367026
0.386103
0.409321
0.436532
0.467542
0.501962
0.539165
0.573426
0.600042
0.620295
0.636146
0.64843
0.656863
0.660994
0.662127
0.662102
0.66182
0.271733
0.279019
0.29399
0.317117
0.346024
0.378494
0.414237
0.453027
0.494474
0.53794
0.577064
0.607058
0.629775
0.647535
0.661103
0.669965
0.673944
0.674885
0.674812
0.674567
0.191812
0.208564
0.232803
0.266632
0.305799
0.347653
0.391996
0.438765
0.487659
0.538097
0.583008
0.617228
0.64302
0.663089
0.678188
0.687309
0.690857
0.691532
0.691479
0.691324
0.124558
0.144449
0.176454
0.219419
0.267676
0.318386
0.371096
0.425716
0.481921
0.539125
0.589557
0.627726
0.656371
0.678465
0.694572
0.703566
0.706758
0.707346
0.707346
0.707244
0.0694453
0.0911939
0.128663
0.178089
0.233501
0.291676
0.351799
0.413633
0.476719
0.540391
0.596088
0.63797
0.669213
0.693053
0.710115
0.719277
0.722435
0.723074
0.723101
0.723027
0.0236838
0.0466587
0.0878975
0.142445
0.20359
0.267922
0.334401
0.402657
0.472065
0.541805
0.602501
0.647911
0.681625
0.707182
0.725268
0.734924
0.738329
0.738893
0.738948
0.738906
-0.015156
0.00852321
0.0526305
0.111223
0.177206
0.246784
0.318781
0.392735
0.46789
0.543279
0.608711
0.657504
0.693624
0.72088
0.740042
0.750374
0.75402
0.754632
0.754701
0.754686
-0.0490937
-0.0249541
0.0214337
0.0833643
0.153437
0.227581
0.304471
0.383564
0.464006
0.544686
0.614617
0.666646
0.705074
0.733998
0.754155
0.765137
0.769118
0.769837
0.769932
0.769933
-0.0796185
-0.0550789
-0.00683163
0.0579541
0.131549
0.2097
0.29099
0.374784
0.460137
0.545808
0.620025
0.67515
0.715753
0.746188
0.767351
0.778908
0.783218
0.784105
0.784209
0.784217
-0.1077
-0.0828005
-0.0329596
0.0342825
0.110981
0.192689
0.277938
0.366042
0.455991
0.54642
0.624774
0.68287
0.725531
0.757341
0.779371
0.791459
0.796043
0.797059
0.797153
0.797148
-0.134129
-0.108827
-0.057496
0.0118251
0.0913081
0.176187
0.265013
0.357086
0.451357
0.546356
0.628758
0.689749
0.734382
0.767487
0.790223
0.80268
0.807454
0.808555
0.808642
0.80862
-0.159289
-0.13357
-0.0810183
-0.00973554
0.0722245
0.159943
0.252015
0.347746
0.446082
0.5455
0.631907
0.695799
0.742343
0.776645
0.799949
0.812659
0.817525
0.818663
0.818724
0.818679
-0.1836
-0.157335
-0.10378
-0.0306327
0.0535203
0.143785
0.238806
0.337904
0.440059
0.543756
0.63418
0.701034
0.749519
0.784944
0.808739
0.821521
0.826412
0.827533
0.827578
0.827508
-0.207195
-0.180519
-0.125829
-0.0510438
0.0350649
0.127617
0.225303
0.327491
0.433223
0.541065
0.635546
0.70549
0.756015
0.792555
0.816717
0.829482
0.834301
0.835386
0.83541
0.835314
-0.230219
-0.203024
-0.147298
-0.0710635
0.0167985
0.111395
0.211473
0.316476
0.425539
0.537372
0.635959
0.709197
0.761944
0.799662
0.824111
0.836718
0.841365
0.842362
0.842336
0.842221
-0.252783
-0.225012
-0.168288
-0.0907253
-0.00130675
0.09511
0.197327
0.304872
0.417
0.53264
0.63537
0.712154
0.767411
0.806424
0.831068
0.843357
0.84769
0.848534
0.848455
0.848319
-0.27492
-0.246487
-0.188831
-0.110033
-0.019226
0.0787874
0.182903
0.292715
0.407629
0.526843
0.633719
0.714324
0.772472
0.81302
0.837796
0.849517
0.853347
0.853967
0.853836
0.85369
-0.296473
-0.267417
-0.208864
-0.128965
-0.0369321
0.0624861
0.168256
0.280073
0.397479
0.519997
0.630937
0.715629
0.777125
0.81963
0.844597
0.855463
0.858469
0.858736
0.858547
0.858404
-0.317421
-0.287773
-0.228375
-0.147481
-0.0543729
0.0462613
0.153473
0.267021
0.386623
0.512125
0.626972
0.715949
0.78129
0.82636
0.851883
0.861717
0.863381
0.862938
0.862643
0.862552
-0.337832
-0.307516
-0.247344
-0.165551
-0.0714894
0.0301931
0.138637
0.253657
0.375148
0.503287
0.621774
0.715136
0.784788
0.833134
0.860029
0.869168
0.868976
0.866984
0.866247
0.866411
-0.357536
-0.326635
-0.265713
-0.183115
-0.0882252
0.0143633
0.123843
0.240089
0.363167
0.493575
0.615322
0.713018
0.787347
0.839598
0.869023
0.878824
0.877208
0.872777
0.870055
0.8696
-0.376624
-0.345126
-0.283496
-0.200205
-0.104614
-0.00126882
0.109036
0.226261
0.350614
0.482918
0.607476
0.709327
0.78867
0.845226
0.878223
0.89095
0.89048
0.883969
0.87524
0.866403
-0.395022
-0.362971
-0.300821
-0.217018
-0.120941
-0.0170303
0.0938069
0.211699
0.336958
0.470691
0.597604
0.703289
0.788232
0.849322
0.885938
0.903396
0.904837
0.893265
0.873058
0.867131
-0.412556
-0.38018
-0.317508
-0.233368
-0.13689
-0.0325994
0.0783733
0.196723
0.3225
0.457146
0.585771
0.694364
0.785226
0.85073
0.887988
0.905478
0.909579
0.884642
0.818886
0.790091
-0.428757
-0.398015
-0.333175
-0.248761
-0.151641
-0.0474639
0.0630453
0.181587
0.307488
0.442428
0.571954
0.682178
0.778352
0.848677
0.879729
0.891696
0.879883
0.825323
0.756968
0.715596
-0.478512
-0.414723
-0.347388
-0.264129
-0.166523
-0.062906
0.0478483
0.166067
0.291603
0.426106
0.555581
0.66617
0.76366
0.840383
0.851197
0.8469
0.796999
0.726958
0.650558
0.608428
-0.445541
-0.428692
-0.368738
-0.284497
-0.188983
-0.0854935
0.0243465
0.141877
0.266391
0.399392
0.526987
0.635884
0.724752
0.807613
0.794262
0.680233
0.576794
0.504018
0.43144
0.462814
-0.476809
-0.446658
-0.38546
-0.302135
-0.20649
-0.103113
0.00692673
0.123803
0.247251
0.378463
0.503289
0.608265
0.687315
0.732193
0.683501
0.534664
0.409266
0.319334
0.222601
0.272589
-0.500537
-0.467984
-0.405067
-0.321631
-0.225911
-0.122601
-0.0126674
0.103374
0.225414
0.354212
0.475248
0.574032
0.643865
0.652712
0.546401
0.376723
0.228101
0.111899
-0.0150108
0.0202525
-0.523788
-0.489857
-0.425628
-0.341323
-0.245542
-0.142387
-0.0329738
0.082092
0.202516
0.3285
0.444791
0.535661
0.589996
0.5673
0.409027
0.216628
0.0334253
-0.128952
-0.311869
-0.321321
-0.54655
-0.512151
-0.447012
-0.361965
-0.266032
-0.163102
-0.054342
0.0596158
0.17816
0.300931
0.411753
0.494842
0.529311
0.470197
0.278286
0.0701582
-0.138699
-0.315572
-0.560218
-0.820371
-0.569652
-0.535204
-0.469535
-0.383997
-0.287871
-0.185104
-0.0769302
0.0358859
0.152439
0.271743
0.376763
0.451404
0.46438
0.354378
0.163747
-0.0464838
-0.248773
-0.411736
-0.488576
-0.595197
-0.594058
-0.559484
-0.493523
-0.407731
-0.311553
-0.209044
-0.101549
0.00995066
0.124187
0.239496
0.338344
0.401818
0.389857
0.245496
0.0610165
-0.132693
-0.299117
-0.389994
-0.413088
-0.429285
-0.620034
-0.585301
-0.519139
-0.433252
-0.337208
-0.235131
-0.128557
-0.0186784
0.092812
0.203461
0.29569
0.344761
0.31457
0.143866
-0.0325105
-0.201521
-0.328879
-0.367238
-0.37918
-0.380415
-0.647791
-0.61282
-0.546445
-0.460557
-0.364786
-0.263367
-0.157971
-0.05005
0.0582495
0.163622
0.24834
0.282606
0.23132
0.0503371
-0.117108
-0.26698
-0.34314
-0.360443
-0.361327
-0.361093
-0.677387
-0.642103
-0.575458
-0.489643
-0.394301
-0.29374
-0.189793
-0.0841781
0.0205085
0.120057
0.196275
0.21843
0.131691
-0.0349917
-0.194267
-0.316
-0.35328
-0.351078
-0.350527
-0.349912
-0.708529
-0.672973
-0.606076
-0.520421
-0.425663
-0.326193
-0.223991
-0.121035
-0.0203696
0.072875
0.140388
0.145814
0.0409935
-0.114378
-0.25526
-0.329772
-0.340603
-0.343326
-0.34386
-0.343598
-0.740672
-0.70497
-0.638051
-0.552659
-0.458681
-0.360562
-0.260406
-0.160487
-0.0641896
0.0224125
0.0811661
0.0718786
-0.0409937
-0.181833
-0.297555
-0.336015
-0.339904
-0.339759
-0.339407
-0.339153
-0.773335
-0.737502
-0.670938
-0.58595
-0.493006
-0.396519
-0.298746
-0.202244
-0.110667
-0.0305913
0.0173841
0.000368613
-0.115946
-0.235932
-0.326508
-0.337056
-0.335466
-0.336104
-0.336273
-0.33605
-0.805635
-0.769852
-0.70381
-0.619706
-0.528085
-0.43358
-0.338543
-0.245813
-0.159348
-0.0854618
-0.0480385
-0.0668081
-0.18199
-0.275057
-0.329608
-0.340268
-0.337378
-0.336327
-0.335706
-0.335426
-0.835974
-0.800916
-0.735685
-0.65298
-0.563137
-0.47103
-0.379124
-0.290465
-0.209436
-0.141692
-0.108335
-0.142125
-0.238137
-0.310544
-0.320137
-0.333705
-0.33733
-0.336551
-0.336211
-0.335944
-0.862727
-0.828788
-0.765453
-0.684562
-0.597095
-0.507915
-0.4196
-0.33528
-0.259727
-0.198484
-0.165985
-0.214891
-0.293165
-0.332328
-0.351813
-0.349245
-0.344285
-0.341221
-0.340906
-0.340647
-0.883773
-0.851503
-0.791075
-0.713031
-0.628668
-0.543052
-0.45885
-0.379163
-0.308921
-0.254358
-0.225529
-0.278093
-0.350449
-0.384139
-0.394947
-0.385112
-0.371941
-0.365961
-0.364163
-0.362887
-0.896834
-0.867247
-0.810508
-0.736482
-0.656338
-0.575093
-0.495603
-0.420847
-0.355755
-0.307224
-0.282765
-0.333063
-0.415863
-0.471048
-0.440241
-0.436674
-0.437493
-0.43124
-0.422349
-0.419769
-0.899234
-0.873657
-0.821858
-0.753092
-0.678384
-0.602633
-0.528484
-0.458971
-0.398829
-0.354987
-0.328698
-0.372273
-0.46117
-0.597461
-0.530302
-0.475121
-0.44659
-0.431444
-0.42431
-0.42311
-0.888892
-0.868203
-0.82297
-0.761245
-0.693335
-0.624174
-0.556168
-0.49215
-0.436579
-0.395773
-0.360487
-0.366671
-0.385884
-0.528439
-0.476277
-0.389462
-0.355639
-0.351416
-0.352237
-0.351445
-0.863434
-0.847875
-0.811995
-0.759749
-0.700264
-0.638756
-0.577485
-0.519159
-0.467584
-0.428645
-0.377013
-0.296077
-0.129436
-0.00913712
-0.0781682
-0.191309
-0.258348
-0.283983
-0.29252
-0.293527
-0.825583
-0.815507
-0.789708
-0.748786
-0.699194
-0.646197
-0.592035
-0.539076
-0.49118
-0.452664
-0.403544
-0.26176
-0.000674578
0.272777
0.0515288
-0.166351
-0.291687
-0.342615
-0.360481
-0.366384
-0.782172
-0.776428
-0.761018
-0.731215
-0.692118
-0.647398
-0.600126
-0.552254
-0.507388
-0.470013
-0.437315
-0.433265
-0.527858
-0.642667
-0.696907
-0.685908
-0.667516
-0.654313
-0.650985
-0.654445
-0.743119
-0.739681
-0.732244
-0.712549
-0.682032
-0.644514
-0.602842
-0.559157
-0.515964
-0.484003
-0.463369
-0.63442
-1.02348
-1.47344
-1.62257
-1.53446
-1.39037
-1.20208
-1.07034
-1.04578
-0.715455
-0.713332
-0.709594
-0.697408
-0.673227
-0.640403
-0.602187
-0.559324
-0.51537
-0.473851
-0.454409
-0.492646
-0.722949
-1.03015
-1.29452
-1.32749
-1.24247
-1.09316
-0.938909
-0.881109
-0.69523
-0.694466
-0.69331
-0.687181
-0.668403
-0.638059
-0.599622
-0.555388
-0.50531
-0.449796
-0.414106
-0.395862
-0.370427
-0.250882
-0.08868
0.094389
0.195305
0.262131
0.311573
0.337539
-0.683963
-0.683635
-0.683025
-0.680255
-0.666784
-0.637728
-0.597223
-0.549196
-0.492777
-0.431251
-0.368225
-0.306259
-0.119155
0.252767
0.618046
0.933794
1.1192
1.20142
1.23461
1.24211
-0.677188
-0.67685
-0.676033
-0.675188
-0.667431
-0.639842
-0.596064
-0.541946
-0.480007
-0.402535
-0.312935
-0.214757
0.0407828
0.452078
0.874953
1.25218
1.46693
1.55111
1.56817
1.56837
-0.675046
-0.675011
-0.674963
-0.675772
-0.671449
-0.644783
-0.596431
-0.537326
-0.465891
-0.37758
-0.278943
-0.170004
0.067266
0.430725
0.778455
1.07982
1.26583
1.34779
1.37631
1.38388
-0.672339
-0.673419
-0.676084
-0.67974
-0.676792
-0.649021
-0.599488
-0.536443
-0.45724
-0.363401
-0.259502
-0.16586
0.0359224
0.343438
0.617092
0.840312
0.983836
1.06312
1.10906
1.12697
-0.667529
-0.667829
-0.665819
-0.661246
-0.65733
-0.642493
-0.605834
-0.541887
-0.456775
-0.358351
-0.258073
-0.17155
-0.0166762
0.240728
0.490649
0.692678
0.838581
0.927923
0.975409
0.991536
-0.690346
-0.686329
-0.668388
-0.638433
-0.625976
-0.641945
-0.624869
-0.556099
-0.461794
-0.357132
-0.258467
-0.173622
-0.0525901
0.181211
0.394084
0.569592
0.712832
0.802019
0.843436
0.854709
-0.762133
-0.758577
-0.754275
-0.752816
-0.748736
-0.744686
-0.682945
-0.580285
-0.467267
-0.355158
-0.260092
-0.178572
-0.084131
0.100718
0.282701
0.433663
0.551401
0.623269
0.654635
0.662134
-0.888963
-0.903228
-0.942151
-0.973148
-0.967065
-0.912729
-0.766729
-0.608422
-0.470208
-0.350746
-0.255783
-0.177038
-0.100868
0.0311924
0.177271
0.294724
0.388194
0.443753
0.467422
0.471729
-0.967167
-0.990541
-1.02897
-1.05576
-1.04603
-0.971628
-0.790584
-0.606144
-0.457512
-0.338676
-0.248746
-0.174614
-0.112403
-0.0151695
0.0968715
0.183345
0.251397
0.290232
0.305167
0.307549
-0.85659
-0.879206
-0.914647
-0.943885
-0.936763
-0.852497
-0.692526
-0.541166
-0.413943
-0.311656
-0.233881
-0.173493
-0.121954
-0.0597462
0.0215022
0.0883244
0.140383
0.168225
0.179138
0.178879
-0.557594
-0.574442
-0.603618
-0.632798
-0.637385
-0.590027
-0.505338
-0.418023
-0.340002
-0.269797
-0.211281
-0.166018
-0.130201
-0.0887617
-0.0347135
0.0118422
0.047728
0.0671292
0.0727822
0.0723645
-0.222885
-0.231351
-0.249702
-0.276557
-0.301111
-0.307892
-0.3018
-0.282505
-0.255244
-0.220518
-0.185597
-0.156575
-0.134922
-0.109805
-0.0751438
-0.0446024
-0.023534
-0.013957
-0.0115442
-0.0127748
0.00140026
-0.00240977
-0.0146917
-0.0402086
-0.0780939
-0.119954
-0.153193
-0.174136
-0.180771
-0.174609
-0.1611
-0.147184
-0.137074
-0.126484
-0.10787
-0.0910103
-0.0805729
-0.0777894
-0.0772164
-0.0782447
0.0951373
0.0929351
0.0837401
0.0613265
0.0236627
-0.0225867
-0.0667854
-0.102665
-0.126627
-0.138046
-0.139566
-0.136832
-0.13267
-0.130398
-0.125602
-0.121171
-0.119866
-0.120681
-0.121738
-0.122492
0.111496
0.109899
0.103069
0.0860288
0.0565891
0.0185531
-0.0220308
-0.0595362
-0.089976
-0.111765
-0.124855
-0.131565
-0.134012
-0.13697
-0.13751
-0.139012
-0.14209
-0.145109
-0.146565
-0.147223
0.0971429
0.0960045
0.0912559
0.079379
0.0584188
0.02998
-0.00288449
-0.0361462
-0.067146
-0.0946949
-0.117562
-0.135881
-0.147215
-0.150943
-0.150665
-0.152238
-0.154405
-0.156652
-0.157659
-0.158242
0.0751682
0.0744069
0.0712321
0.063242
0.048784
0.0282941
0.00296466
-0.0247501
-0.0531777
-0.0823443
-0.112315
-0.143334
-0.162697
-0.160941
-0.156363
-0.155652
-0.157322
-0.159468
-0.160352
-0.160769
0.0543495
0.0538711
0.0518013
0.046533
0.0367417
0.0222999
0.00349875
-0.0185188
-0.0431619
-0.0713957
-0.103795
-0.14041
-0.162003
-0.155749
-0.149126
-0.14846
-0.15103
-0.153426
-0.154266
-0.15449
0.0373621
0.0370485
0.03575
0.0323413
0.0258099
0.0157771
0.0021331
-0.0146707
-0.0345567
-0.0584549
-0.0871156
-0.118864
-0.133908
-0.127899
-0.125587
-0.128682
-0.133305
-0.136459
-0.137337
-0.13742
0.0246065
0.0244091
0.0236018
0.0214529
0.017198
0.0104377
0.000921881
-0.01118
-0.0257287
-0.0429249
-0.0626351
-0.0820338
-0.0894086
-0.0859286
-0.0900195
-0.0975686
-0.104437
-0.108217
-0.109227
-0.109327
0.0153926
0.0152983
0.0148272
0.0135698
0.0109631
0.00662674
0.000347132
-0.00775575
-0.0173149
-0.0275338
-0.0354646
-0.0393181
-0.0351548
-0.0401987
-0.0511611
-0.0621911
-0.0698661
-0.0733734
-0.0743847
-0.0745881
0.00897661
0.00893998
0.00870075
0.00804223
0.0065909
0.00403623
0.000218918
-0.00466422
-0.00992793
-0.0136718
-0.0113905
-0.00129001
0.0102331
0.000173923
-0.0159025
-0.0283911
-0.0357302
-0.0385454
-0.0395974
-0.0399654
0.00466995
0.00466768
0.00456789
0.00431176
0.00363595
0.00232399
0.000284633
-0.00225667
-0.00453452
-0.00415048
0.00415005
0.0211611
0.0350183
0.0227391
0.00638311
-0.00443297
-0.00841966
-0.0105248
-0.0115644
-0.0121077
0.0018519
0.00186322
0.00186212
0.00183833
0.0016355
0.00111888
0.000249296
-0.000772038
-0.00140748
0.00014447
0.00858899
0.0245028
0.0369486
0.0242772
0.0127249
0.0066834
0.00470097
0.00461134
0.00388213
0.00314021
0.000134662
0.000159657
0.000143901
0.000208951
0.000305945
0.000359362
0.000260907
3.83635e-05
-0.000161032
-3.35384e-05
0.00122127
0.00501191
0.0103593
0.0104371
0.00699909
0.00582167
0.00494329
0.00338261
0.00170507
0.00142464
-0.125648
0.0616432
0.261563
0.429285
0.562901
0.667953
0.755168
0.828556
0.858766
0.842623
0.197995
0.320862
0.449346
0.560163
0.653344
0.730469
0.792552
0.836104
0.858731
0.871636
0.41645
0.499649
0.586978
0.664577
0.731097
0.786658
0.830685
0.863131
0.887003
0.90492
0.575481
0.634629
0.695745
0.752459
0.801576
0.843199
0.877425
0.905105
0.927627
0.945916
0.700081
0.742434
0.789288
0.832259
0.870642
0.904174
0.932929
0.957181
0.976973
0.994935
0.803517
0.836445
0.874766
0.910049
0.942411
0.971539
0.997078
1.01875
1.03578
1.05338
0.89582
0.924621
0.958555
0.990659
1.0205
1.04763
1.07143
1.09125
1.10585
1.1233
0.984244
1.01361
1.04751
1.0796
1.10916
1.13573
1.15862
1.17705
1.18968
1.20714
1.07947
1.11301
1.14938
1.18305
1.21305
1.23917
1.26105
1.27811
1.28955
1.30734
1.19429
1.23282
1.27101
1.30519
1.33441
1.35905
1.37932
1.395
1.40631
1.42465
1.33895
1.37841
1.41394
1.44431
1.46986
1.49189
1.51088
1.52639
1.53903
1.55715
1.51364
1.54568
1.57145
1.59377
1.6138
1.63253
1.65015
1.66669
1.68242
1.70062
1.70122
1.71877
1.73429
1.75087
1.76701
1.78155
1.79457
1.80853
1.82561
1.84529
1.8828
1.89376
1.9059
1.91669
1.92594
1.93549
1.94637
1.95795
1.9679
1.98307
2.0938
2.09582
2.08066
2.06543
2.05904
2.0647
2.08331
2.11372
2.14585
2.1766
2.39972
2.26267
2.18637
2.14426
2.12682
2.13086
2.15821
2.21435
2.3178
2.53309
0.709584
0.706209
0.700283
0.690478
0.677537
0.665117
0.654811
0.646873
0.64123
0.637964
0.637615
0.640376
0.645513
0.652778
0.662227
0.673923
0.687059
0.699053
0.706511
0.711233
0.627592
0.633478
0.640383
0.645623
0.648471
0.648145
0.645245
0.64133
0.637775
0.635502
0.635361
0.637581
0.641286
0.645655
0.649612
0.65162
0.650512
0.646425
0.640534
0.63349
0.619926
0.622273
0.625623
0.628531
0.630749
0.632552
0.633516
0.633266
0.632246
0.631363
0.631547
0.63299
0.634821
0.636112
0.636166
0.635
0.633197
0.630858
0.627705
0.624742
0.614768
0.615854
0.61772
0.620102
0.622063
0.623456
0.624556
0.625421
0.625899
0.626159
0.626667
0.627469
0.628028
0.628007
0.627493
0.626626
0.625226
0.623173
0.621064
0.61965
0.609652
0.610307
0.611415
0.613136
0.614942
0.616559
0.617828
0.618861
0.619792
0.620628
0.621379
0.621919
0.622079
0.621887
0.621336
0.620313
0.618879
0.61731
0.615989
0.615206
0.604702
0.605157
0.60594
0.607235
0.608729
0.610263
0.611732
0.613024
0.614167
0.615244
0.616178
0.61675
0.616898
0.616638
0.615951
0.614953
0.613816
0.612681
0.611773
0.611253
0.599877
0.600217
0.600826
0.601891
0.60318
0.604559
0.606009
0.607463
0.608839
0.610129
0.611255
0.611962
0.612154
0.611887
0.611284
0.610503
0.609654
0.608792
0.608124
0.607743
0.595134
0.595398
0.595889
0.596796
0.597962
0.599257
0.600656
0.602153
0.603704
0.605236
0.606601
0.607487
0.6078
0.607683
0.607291
0.606735
0.606091
0.605455
0.604967
0.604676
0.590396
0.590606
0.591015
0.591811
0.592897
0.594144
0.59553
0.597071
0.598754
0.600525
0.602177
0.603321
0.603869
0.603993
0.603834
0.603498
0.603059
0.602614
0.602265
0.602037
0.585578
0.585747
0.586097
0.58682
0.587859
0.589085
0.590499
0.592122
0.593959
0.595984
0.597977
0.599475
0.600344
0.600755
0.600846
0.600737
0.600509
0.600235
0.600001
0.59982
0.580591
0.580728
0.581037
0.581715
0.582737
0.583987
0.585467
0.587215
0.589261
0.591593
0.594003
0.595943
0.597198
0.597939
0.598314
0.598447
0.598427
0.598319
0.598183
0.598037
0.575348
0.575458
0.57574
0.576398
0.577439
0.578757
0.580347
0.582274
0.584595
0.587319
0.590242
0.592713
0.594423
0.595546
0.596242
0.596639
0.596831
0.596893
0.596842
0.596723
0.569753
0.569841
0.570106
0.57077
0.571865
0.573293
0.575048
0.577223
0.579897
0.583117
0.586673
0.589781
0.592026
0.593592
0.594648
0.595353
0.595787
0.596002
0.596027
0.595929
0.5637
0.563767
0.564026
0.564718
0.565904
0.56749
0.569474
0.571975
0.575102
0.578943
0.58327
0.587143
0.590026
0.59211
0.593581
0.594628
0.595324
0.59571
0.595806
0.595726
0.55706
0.557107
0.557368
0.55811
0.559429
0.561229
0.563516
0.566434
0.570134
0.574742
0.580009
0.584803
0.588444
0.59114
0.593097
0.594527
0.595529
0.596096
0.596263
0.596197
0.54968
0.54971
0.549975
0.550791
0.552287
0.554367
0.557039
0.560488
0.564906
0.570457
0.576866
0.582768
0.587309
0.590728
0.593262
0.595148
0.596494
0.597258
0.597495
0.597439
0.541366
0.541383
0.541652
0.542564
0.544294
0.546718
0.549888
0.554011
0.559324
0.566037
0.57383
0.581058
0.586668
0.590936
0.59415
0.596584
0.59832
0.599299
0.599607
0.599559
0.531814
0.531801
0.532131
0.533183
0.535193
0.538073
0.541878
0.546851
0.553283
0.56143
0.570902
0.579704
0.586576
0.591843
0.595854
0.598928
0.601114
0.60233
0.602711
0.602668
0.520733
0.520695
0.52107
0.522317
0.524697
0.528164
0.532778
0.538828
0.546665
0.55658
0.568077
0.578747
0.587092
0.593531
0.598478
0.602286
0.604993
0.606464
0.606915
0.606872
0.507644
0.507581
0.508033
0.509532
0.512399
0.516632
0.522292
0.529724
0.539333
0.551428
0.565362
0.578228
0.588285
0.596075
0.602116
0.60677
0.610057
0.611795
0.612311
0.612264
0.491904
0.491813
0.492389
0.494239
0.497755
0.50301
0.510061
0.519298
0.531166
0.545955
0.562798
0.578222
0.590237
0.599563
0.606848
0.612459
0.616382
0.618388
0.618956
0.618898
0.472575
0.472458
0.473236
0.475597
0.480028
0.486706
0.495653
0.5073
0.522083
0.540204
0.560486
0.578828
0.593043
0.604081
0.612735
0.619413
0.624001
0.626254
0.626851
0.626774
0.448244
0.448113
0.449225
0.452381
0.458192
0.466951
0.478591
0.493517
0.512064
0.534259
0.558545
0.580158
0.596781
0.609693
0.619815
0.627644
0.632877
0.63532
0.635913
0.63581
0.416614
0.416508
0.418226
0.422751
0.430859
0.442857
0.458448
0.477878
0.501243
0.528334
0.55718
0.582361
0.601545
0.616431
0.628114
0.637095
0.642872
0.645406
0.645948
0.645812
0.373543
0.373604
0.37665
0.384031
0.396408
0.413697
0.435135
0.460633
0.489997
0.522797
0.556675
0.585622
0.607433
0.624324
0.637557
0.647617
0.653731
0.656193
0.656633
0.656462
0.3113
0.312497
0.319922
0.333744
0.353922
0.379622
0.409286
0.442502
0.478956
0.51812
0.557315
0.590089
0.614499
0.63332
0.647978
0.658853
0.665031
0.667189
0.667465
0.667273
0.237223
0.239277
0.253583
0.277341
0.308341
0.343966
0.382589
0.424019
0.468061
0.514238
0.559605
0.597125
0.624921
0.646224
0.662659
0.674365
0.680478
0.682416
0.68265
0.682552
0.161011
0.167381
0.188651
0.222565
0.263974
0.309255
0.356816
0.406532
0.458276
0.511598
0.56331
0.60572
0.636986
0.660878
0.679201
0.691576
0.697256
0.698746
0.698913
0.698884
0.0987832
0.107282
0.133069
0.174031
0.2236
0.277119
0.332762
0.390248
0.449347
0.509543
0.567342
0.614375
0.64886
0.675043
0.694727
0.707486
0.713085
0.714425
0.714639
0.714665
0.0480561
0.057167
0.0864887
0.13267
0.188373
0.248511
0.310983
0.375332
0.44116
0.507819
0.571409
0.622832
0.660327
0.688623
0.709736
0.723046
0.728573
0.730154
0.730451
0.730521
0.005607
0.014989
0.0467461
0.0969274
0.157663
0.223301
0.291557
0.361903
0.433783
0.506402
0.575438
0.631041
0.671425
0.701796
0.724289
0.738334
0.744306
0.746142
0.746463
0.746546
-0.0309597
-0.0214701
0.0121145
0.0655022
0.130412
0.20075
0.274048
0.349698
0.427042
0.505164
0.579332
0.638924
0.682092
0.714476
0.738333
0.753305
0.759802
0.76179
0.76215
0.762229
-0.0633146
-0.0537854
-0.018796
0.0373068
0.10571
0.1801
0.257865
0.338297
0.42066
0.503914
0.582937
0.646333
0.692155
0.726437
0.751602
0.767401
0.774461
0.776633
0.777011
0.777068
-0.0927286
-0.0831504
-0.0470076
0.0114425
0.0828348
0.160779
0.242523
0.327302
0.4143
0.502381
0.586037
0.65308
0.701436
0.737476
0.763853
0.780384
0.787968
0.790302
0.790695
0.790737
-0.120071
-0.110442
-0.0732703
-0.0128143
0.0612474
0.142345
0.227644
0.316378
0.407681
0.500341
0.588473
0.659058
0.709838
0.747535
0.774952
0.792088
0.800079
0.802547
0.802949
0.802967
-0.145912
-0.136206
-0.0980684
-0.0359322
0.0405493
0.124459
0.212958
0.305303
0.400612
0.49763
0.590127
0.66422
0.717365
0.756637
0.784979
0.80258
0.810804
0.813339
0.813749
0.813742
-0.17073
-0.160863
-0.121873
-0.0581698
0.0204764
0.106888
0.198279
0.293922
0.392959
0.49413
0.590916
0.668542
0.724072
0.764853
0.794048
0.811967
0.820238
0.822812
0.823211
0.823183
-0.194784
-0.184694
-0.144973
-0.0797168
0.000844013
0.0894827
0.183485
0.282139
0.384631
0.489761
0.590785
0.672015
0.730022
0.772332
0.802256
0.820371
0.828627
0.831163
0.831534
0.831476
-0.21818
-0.207886
-0.167377
-0.100726
-0.0184697
0.0721734
0.168514
0.269898
0.375582
0.484461
0.589675
0.674642
0.735285
0.779217
0.809839
0.828036
0.836161
0.838593
0.838914
0.838833
-0.241079
-0.230496
-0.189214
-0.121284
-0.0375094
0.0549196
0.153347
0.257194
0.365801
0.478206
0.587534
0.676399
0.739931
0.785657
0.816969
0.835101
0.842977
0.84523
0.845471
0.845361
-0.26345
-0.252588
-0.210568
-0.14143
-0.0562822
0.0377294
0.138012
0.244054
0.355306
0.470982
0.584316
0.677236
0.74399
0.791782
0.823825
0.841723
0.849145
0.851119
0.851251
0.851112
-0.285352
-0.274175
-0.231375
-0.16115
-0.0747732
0.0206312
0.122545
0.230533
0.344144
0.462808
0.579981
0.677083
0.747436
0.797702
0.830643
0.848124
0.854793
0.856315
0.856315
0.856159
-0.306607
-0.295193
-0.251623
-0.180407
-0.0929377
0.00369238
0.10701
0.216699
0.332388
0.453738
0.574505
0.675856
0.750187
0.803462
0.837696
0.854707
0.86023
0.860959
0.860731
0.860572
-0.327351
-0.315595
-0.271301
-0.199184
-0.110748
-0.0130501
0.0914977
0.202633
0.32012
0.443848
0.567892
0.673447
0.752094
0.808983
0.845196
0.862067
0.866121
0.86539
0.864584
0.864436
-0.347428
-0.335355
-0.290383
-0.217434
-0.128126
-0.0295129
0.0760877
0.188451
0.307449
0.433202
0.560178
0.669753
0.752961
0.814026
0.853089
0.87084
0.873785
0.870837
0.868401
0.867564
-0.36689
-0.354517
-0.308813
-0.235107
-0.145037
-0.045628
0.0608644
0.174233
0.294483
0.421934
0.55143
0.664666
0.752557
0.818192
0.860839
0.88109
0.884754
0.880353
0.873993
0.86522
-0.385658
-0.373046
-0.326673
-0.25236
-0.161694
-0.0616669
0.0454976
0.159585
0.280782
0.409551
0.541131
0.657632
0.750422
0.821142
0.867771
0.892107
0.899347