/*--------------------------------*- C++ -*----------------------------------*\
| =========                 |                                                 |
| \\      /  F ield         | OpenFOAM: The Open Source CFD Toolbox           |
|  \\    /   O peration     | Version:  2306                                  |
|   \\  /    A nd           | Website:  www.openfoam.com                      |
|    \\/     M anipulation  |                                                 |
\*---------------------------------------------------------------------------*/
FoamFile
{
    version     2.0;
    format      ascii;
    arch        "LSB;label=32;scalar=64";
    class       surfaceScalarField;
    location    "59";
    object      phi;
}
// * * * * * * * * * * * * * * * * * * * * * * * * * * * * * * * * * * * * * //

dimensions      [0 3 -1 0 0 0 0];

oriented        oriented;

internalField   nonuniform List<scalar> 
17370
(
-0.0910986
0.0935449
0.286565
-0.074954
0.0569539
0.364776
-0.0409372
0.0299536
0.427152
-0.0211994
0.0155999
0.504851
-0.0113508
0.00865193
0.602101
-0.00651987
0.00506714
0.72051
-0.00384796
0.00297627
0.863778
-0.00220834
0.00163278
1.03603
-0.00110293
0.000682857
1.24292
-0.000272492
-0.000121244
1.49158
0.000507157
-0.00092048
1.4916
0.00132404
-0.00182721
1.24319
0.00237514
-0.00311279
1.03638
0.00396075
-0.00516118
0.864107
0.00660335
-0.00872773
0.721182
0.0114198
-0.0156598
0.603455
0.0212501
-0.0299937
0.508183
0.0409671
-0.0569749
0.432176
0.0749704
-0.0935544
0.36536
0.0911119
0.197899
-0.127347
0.0881453
0.0392021
-0.364737
0.353791
-0.0726279
0.0835745
-0.446566
0.45437
-0.0817082
0.0739045
-0.520972
0.529526
-0.0657952
0.0572413
-0.612851
0.621017
-0.0494896
0.041323
-0.727002
0.733791
-0.0343953
0.0276066
-0.867515
0.872453
-0.0222636
0.0173257
-1.03855
1.04191
-0.0136046
0.0102502
-1.24471
1.24713
-0.00769315
0.00527937
-1.49284
1.49486
-0.0033103
0.00129169
-1.49269
1.49451
0.000529748
-0.00235229
-1.2441
1.24602
0.00432935
-0.00624484
-1.0376
1.04008
0.00858754
-0.0110726
-0.866159
0.869807
0.0143446
-0.0179933
-0.724479
0.72977
0.0228617
-0.0281523
-0.608887
0.615772
0.034892
-0.0417772
-0.514989
0.522695
0.0498967
-0.0576034
-0.439772
0.447828
0.0661019
-0.0741581
-0.375154
0.377
0.0818971
-0.0837423
-0.256915
0.223417
0.0727449
-0.0392471
-0.0686548
0.0589257
0.00972917
-0.052072
0.058767
-0.374544
0.367849
-0.0578796
0.0540517
-0.453831
0.457659
-0.0486923
0.044352
-0.527746
0.532087
-0.0401281
0.0363453
-0.621108
0.624891
-0.0321209
0.0280475
-0.734882
0.738956
-0.0235713
0.0195746
-0.874053
0.87805
-0.0154329
0.0119121
-1.0434
1.04693
-0.00833975
0.00527133
-1.24867
1.25174
-0.00203227
-0.000971824
-1.49695
1.49995
0.00395429
-0.007132
-1.49743
1.50061
0.0101106
-0.0135611
-1.25009
1.25355
0.0169589
-0.0209593
-1.04572
1.04972
0.0248306
-0.0291816
-0.877315
0.881666
0.0331546
-0.0372816
-0.739309
0.743436
0.0409832
-0.0451252
-0.626339
0.630481
0.0493958
-0.0546872
-0.534933
0.540224
0.0584406
-0.059234
-0.457916
0.45871
0.0524205
-0.0320421
-0.33639
0.316012
0.00978766
-0.068499
0.0587113
-0.0531676
0.0491191
0.00404848
-0.0331607
0.0436504
-0.358381
0.347891
-0.0473646
0.0467754
-0.459517
0.460107
-0.0437962
0.0405244
-0.536032
0.539303
-0.0368117
0.0334745
-0.628455
0.631792
-0.0299067
0.0267522
-0.74227
0.745424
-0.0233966
0.0202227
-0.88159
0.884764
-0.0166175
0.0132313
-1.05041
1.0538
-0.00948784
0.00604214
-1.25504
1.25848
-0.00220923
-0.00144512
-1.50334
1.50699
0.00506807
-0.00880928
-1.50414
1.50788
0.0121295
-0.0157015
-1.25716
1.26073
0.0189125
-0.0223157
-1.05349
1.05689
0.0253101
-0.0284861
-0.885276
0.888452
0.0314961
-0.0349227
-0.746926
0.750353
0.0381419
-0.0417326
-0.634493
0.638084
0.0448987
-0.0477585
-0.54445
0.54731
0.0482228
-0.0443332
-0.456874
0.452985
0.0336331
-0.016267
-0.296637
0.279271
0.0041194
-0.0528898
0.0487703
-0.0459986
0.0434747
0.00252392
-0.0229179
0.0332801
-0.337255
0.326893
-0.0390569
0.0400385
-0.459821
0.458839
-0.0388177
0.0365151
-0.54198
0.544282
-0.0338711
0.0313056
-0.634793
0.637358
-0.0282952
0.0254323
-0.748494
0.751357
-0.0221924
0.0191906
-0.887769
0.890771
-0.0158659
0.0127492
-1.05697
1.06009
-0.00919467
0.00578047
-1.2619
1.26532
-0.00184507
-0.00198039
-1.51075
1.51458
0.00576536
-0.00957707
-1.51169
1.5155
0.012825
-0.016155
-1.26419
1.26752
0.019043
-0.0221043
-1.06005
1.06311
0.0248694
-0.0278683
-0.891595
0.894594
0.0305332
-0.0333486
-0.753539
0.756354
0.0357519
-0.038232
-0.641083
0.643563
0.040394
-0.0414295
-0.549122
0.550158
0.0402543
-0.0341947
-0.447782
0.441722
0.0235235
-0.0102965
-0.264081
0.250854
0.00261113
-0.0455709
0.0429597
-0.041378
0.0395931
0.00178487
-0.0168505
0.0261212
-0.317031
0.30776
-0.0327255
0.0348565
-0.45726
0.455129
-0.0344291
0.0327427
-0.546289
0.547976
-0.0305369
0.0284274
-0.639664
0.641773
-0.0259984
0.0236131
-0.753978
0.756363
-0.0207777
0.0180142
-0.893635
0.896399
-0.0148151
0.0117741
-1.06312
1.06616
-0.00830702
0.00499095
-1.26864
1.27196
-0.00114887
-0.00260495
-1.51836
1.52212
0.00630615
-0.00999323
-1.51925
1.52293
0.0130998
-0.0162832
-1.27078
1.27396
0.019034
-0.0218966
-1.06613
1.06899
0.0243542
-0.0268761
-0.897391
0.899913
0.0290046
-0.0311827
-0.758802
0.76098
0.0330855
-0.0350803
-0.645753
0.647748
0.0365617
-0.0367368
-0.55071
0.550886
0.0343087
-0.0272914
-0.435094
0.428077
0.0176055
-0.00744049
-0.239304
0.229139
0.00189138
-0.0407667
0.0388753
-0.0380557
0.0367138
0.00134197
-0.0128755
0.0208517
-0.299141
0.291165
-0.0276147
0.0305394
-0.45257
0.449645
-0.0307468
0.0296251
-0.549411
0.550533
-0.0276291
0.0257075
-0.643822
0.645744
-0.0235018
0.0213642
-0.758601
0.760739
-0.0188563
0.0163816
-0.898959
0.901434
-0.0134486
0.0105809
-1.06907
1.07194
-0.00723876
0.00401472
-1.27519
1.27842
-0.000278574
-0.00335064
-1.52578
1.52941
0.00691463
-0.0104563
-1.52654
1.53008
0.0134188
-0.0164068
-1.27707
1.28006
0.0189107
-0.0214207
-1.07172
1.07423
0.0235121
-0.0256268
-0.90222
0.904334
0.0274402
-0.0293266
-0.762997
0.764884
0.0309864
-0.0327291
-0.649595
0.651337
0.0335509
-0.032991
-0.550695
0.550135
0.029642
-0.0223139
-0.420847
0.413519
0.0138048
-0.00575961
-0.220135
0.212089
0.00147162
-0.0372204
0.0357488
-0.0355414
0.0345072
0.00103416
-0.0100657
0.0168146
-0.283827
0.277078
-0.0233201
0.0267028
-0.446472
0.443089
-0.0274881
0.0267945
-0.551434
0.552128
-0.0250328
0.0232505
-0.647638
0.649421
-0.0211863
0.019177
-0.762811
0.76482
-0.0168126
0.0144923
-0.903763
0.906083
-0.0117619
0.00908188
-1.07465
1.07733
-0.00592609
0.00284547
-1.28153
1.28461
0.000751212
-0.00424731
-1.53294
1.53644
0.00766273
-0.0110194
-1.53352
1.53688
0.0137763
-0.0164944
-1.28293
1.28565
0.0187266
-0.0209362
-1.07661
1.07882
0.0227824
-0.0246587
-0.906344
0.90822
0.0262654
-0.0279325
-0.766658
0.768325
0.02939
-0.0308022
-0.652932
0.654344
0.0311233
-0.0298375
-0.549226
0.54794
0.0258707
-0.018622
-0.406205
0.398956
0.011204
-0.00464379
-0.204857
0.198297
0.00119185
-0.0344338
0.033242
-0.0335988
0.0327927
0.000806082
-0.00798281
0.0136592
-0.270894
0.265218
-0.0196848
0.0232696
-0.439596
0.436011
-0.0245363
0.0240916
-0.552731
0.553176
-0.0226012
0.0209296
-0.651199
0.652871
-0.0189627
0.0170429
-0.766781
0.768701
-0.0147778
0.012551
-0.908291
0.910518
-0.00992846
0.00736488
-1.07987
1.08243
-0.00436055
0.00142635
-1.28756
1.2905
0.00200234
-0.00533185
-1.53983
1.54316
0.00856381
-0.0116986
-1.54011
1.54324
0.0142359
-0.0167065
-1.28825
1.29072
0.0187221
-0.0207046
-1.08096
1.08294
0.022348
-0.0240133
-0.910014
0.911679
0.0254387
-0.0269172
-0.769896
0.771375
0.0281846
-0.0292229
-0.655546
0.656584
0.0291737
-0.027224
-0.546326
0.544377
0.022859
-0.0158807
-0.391839
0.384861
0.00937379
-0.00387059
-0.192316
0.186813
0.000997748
-0.0321603
0.0311626
-0.0320842
0.0314544
0.000629751
-0.00637781
0.0111382
-0.260028
0.255267
-0.0165778
0.0201682
-0.432423
0.428833
-0.0217635
0.0215475
-0.553544
0.55376
-0.0202932
0.0186836
-0.654561
0.65617
-0.0167751
0.0149072
-0.770588
0.772456
-0.0127043
0.0105401
-0.912637
0.914801
-0.00799246
0.00550538
-1.08488
1.08737
-0.00259967
-0.000215667
-1.29332
1.29613
0.00349494
-0.00665317
-1.54636
1.54952
0.00969011
-0.0126059
-1.54625
1.54916
0.0149459
-0.0172039
-1.29309
1.29535
0.0190245
-0.0207915
-1.08488
1.08664
0.0222412
-0.0237092
-0.913271
0.914739
0.0249708
-0.026279
-0.772765
0.774074
0.0274039
-0.0280286
-0.657402
0.658027
0.0276118
-0.0251052
-0.542164
0.539658
0.0204995
-0.0138593
-0.378064
0.371423
0.00807469
-0.00332929
-0.181729
0.176983
0.000862556
-0.0302437
0.0293812
-0.0309042
0.030417
0.000487161
-0.00508763
0.00905874
-0.250928
0.246957
-0.0138679
0.0173154
-0.425322
0.421875
-0.0190997
0.0190784
-0.553922
0.553943
-0.0180234
0.0164509
-0.657828
0.659401
-0.0145675
0.0127177
-0.774304
0.776154
-0.0105372
0.00840115
-0.916863
0.918999
-0.00589598
0.00346074
-1.08974
1.09218
-0.000626016
-0.00211006
-1.29884
1.30158
0.00525991
-0.00826372
-1.55256
1.55556
0.0111207
-0.0138335
-1.55195
1.55467
0.0159853
-0.0180342
-1.29751
1.29956
0.0196622
-0.0212186
-1.08838
1.08993
0.0224841
-0.0237703
-0.916145
0.917431
0.0248844
-0.0260381
-0.775298
0.776451
0.0269768
-0.0272287
-0.658453
0.658705
0.0264177
-0.0234418
-0.536933
0.533958
0.0186962
-0.012389
-0.364971
0.358664
0.00715839
-0.00295411
-0.172543
0.168338
0.000770309
-0.0285753
0.027805
-0.0299974
0.0296306
0.000366795
-0.0040084
0.00728684
-0.243356
0.240078
-0.0114542
0.0146494
-0.418569
0.415374
-0.0164976
0.0166353
-0.553937
0.553799
-0.0156661
0.0141698
-0.66101
0.662506
-0.0122847
0.0104215
-0.777994
0.779858
-0.00822689
0.00608525
-0.921038
0.92318
-0.00358651
0.0011683
-1.09451
1.09693
0.00162284
-0.00429772
-1.30422
1.30689
0.00735139
-0.0102272
-1.55846
1.56133
0.0129247
-0.0154467
-1.55726
1.55978
0.017415
-0.0192583
-1.30151
1.30336
0.020698
-0.0220481
-1.09148
1.09283
0.023133
-0.0242424
-0.918664
0.919773
0.0252109
-0.026195
-0.777514
0.778498
0.0268792
-0.0268387
-0.65883
0.658789
0.0256137
-0.0222248
-0.530793
0.527404
0.0173859
-0.0113594
-0.352524
0.346497
0.00653481
-0.00270551
-0.164352
0.160523
0.000711287
-0.0270747
0.0263634
-0.0293242
0.0290645
0.000259616
-0.00306378
0.00571771
-0.237134
0.23448
-0.00924397
0.0121044
-0.412367
0.409507
-0.0139032
0.0141283
-0.553675
0.55345
-0.0132066
0.0117575
-0.664061
0.66551
-0.00984947
0.00794506
-0.781717
0.783622
-0.00570222
0.00352185
-0.925228
0.927408
-0.000991657
-0.00143928
-1.09923
1.10167
0.00422653
-0.0068718
-1.30948
1.31212
0.00985549
-0.0126253
-1.5641
1.56687
0.0151796
-0.0175203
-1.56218
1.56452
0.0193101
-0.0209507
-1.3051
1.30674
0.0222025
-0.023343
-1.09418
1.09532
0.0242427
-0.0251729
-0.920837
0.921767
0.0259967
-0.026809
-0.779387
0.780199
0.0272075
-0.0269029
-0.658611
0.658306
0.0252341
-0.0214526
-0.523839
0.520058
0.0165241
-0.010697
-0.340607
0.33478
0.00614609
-0.00255754
-0.156845
0.153257
0.00067869
-0.0256798
0.0250011
-0.028862
0.0287041
0.000157922
-0.00218998
0.00425825
-0.23214
0.230072
-0.00713908
0.00959521
-0.406874
0.404418
-0.0112375
0.0114718
-0.55329
0.553055
-0.0105651
0.00912589
-0.667051
0.668491
-0.00716869
0.00519401
-0.785527
0.787501
-0.00286793
0.000616398
-0.929495
0.931747
0.00198312
-0.00446147
-1.10401
1.10648
0.00728069
-0.00992501
-1.31468
1.31733
0.0128659
-0.0155475
-1.56954
1.57223
0.0179691
-0.0201339
-1.56673
1.5689
0.0217471
-0.023184
-1.30828
1.30972
0.0242427
-0.0251606
-1.09649
1.09741
0.0258592
-0.0265931
-0.922647
0.923381
0.0272642
-0.0279339
-0.780904
0.781574
0.0280258
-0.0273539
-0.657778
0.657106
0.0252516
-0.0210839
-0.516126
0.511958
0.0160458
-0.010331
-0.329055
0.32334
0.00594207
-0.00248801
-0.149768
0.146314
0.000666624
-0.0243408
0.0236742
-0.0286027
0.0285475
5.52344e-05
-0.00133843
0.00283601
-0.228308
0.226811
-0.00505788
0.00704667
-0.402224
0.400235
-0.00842964
0.00859214
-0.552939
0.552777
-0.00765532
0.00619146
-0.670058
0.671522
-0.0041474
0.00207143
-0.789479
0.791555
0.000373898
-0.00273582
-0.933905
0.936267
0.00544383
-0.00800769
-1.10888
1.11144
0.0108947
-0.0135696
-1.31989
1.32257
0.0164966
-0.0191097
-1.57481
1.57742
0.021409
-0.0234
-1.57093
1.57293
0.0248331
-0.0260583
-1.31104
1.31227
0.0269143
-0.0275978
-1.09837
1.09905
0.0280839
-0.0286067
-0.924073
0.924596
0.0291141
-0.0295805
-0.782061
0.782528
0.0293875
-0.0282902
-0.65619
0.655093
0.0257191
-0.0211385
-0.507653
0.503072
0.0159403
-0.0102354
-0.317688
0.311983
0.00590232
-0.00248809
-0.142916
0.139502
0.000673004
-0.0230181
0.0223451
-0.028549
0.0286033
-5.43211e-05
-0.00046237
0.0013842
-0.225619
0.224697
-0.00292014
0.00437754
-0.398542
0.397084
-0.00539915
0.00540517
-0.552793
0.552787
-0.0043813
0.00283829
-0.673162
0.674705
-0.00067591
-0.00154171
-0.793635
0.795852
0.00415509
-0.00666409
-0.938535
0.941044
0.0095245
-0.0122113
-1.11392
1.11661
0.0152063
-0.0179443
-1.32517
1.32791
0.0208857
-0.0234471
-1.57994
1.58251
0.0256306
-0.0274445
-1.57478
1.57659
0.0286869
-0.0296854
-1.31336
1.31436
0.0303246
-0.0307644
-1.0998
1.10024
0.031027
-0.031322
-0.925079
0.925374
0.0316409
-0.0318381
-0.782697
0.782895
0.0313694
-0.0297448
-0.653746
0.652122
0.0266637
-0.0216248
-0.498366
0.493327
0.0161959
-0.0103909
-0.306296
0.300491
0.00601187
-0.00255086
-0.136104
0.132643
0.000695867
-0.0216757
0.0209798
-0.028713
0.0288822
-0.000169236
0.000457169
-0.000143586
-0.224095
0.223781
-0.000657578
0.00150336
-0.395954
0.395109
-0.00205512
0.00182282
-0.553029
0.553261
-0.000653003
-0.00103791
-0.67648
0.678171
0.003377
-0.0057824
-0.79808
0.800486
0.00861112
-0.0113142
-0.943464
0.946167
0.0143776
-0.0172318
-1.11922
1.12207
0.020379
-0.0232135
-1.33058
1.33341
0.0261972
-0.0287208
-1.58497
1.5875
0.0307892
-0.0324148
-1.57826
1.57989
0.0334547
-0.0342061
-1.31521
1.31596
0.0346116
-0.0347902
-1.10074
1.10092
0.0348137
-0.0348619
-0.925624
0.925673
0.0349817
-0.034837
-0.782708
0.782563
0.0340105
-0.0317864
-0.650295
0.648071
0.0281333
-0.0225617
-0.488156
0.482585
0.0168102
-0.0107854
-0.294654
0.288629
0.00626012
-0.00267078
-0.12916
0.125571
0.000733493
-0.0202814
0.0195479
-0.0291317
0.029443
-0.000311243
0.00145818
-0.00178891
-0.223821
0.224151
0.00182917
-0.00170197
-0.394587
0.39446
0.00174986
-0.00233183
-0.553861
0.554443
0.00372757
-0.00561135
-0.680151
0.682034
0.0081805
-0.0108234
-0.802896
0.805539
0.0139247
-0.0168754
-0.948784
0.951735
0.0201989
-0.0232687
-1.12486
1.12793
0.0266138
-0.0295784
-1.33618
1.33915
0.0326291
-0.0351234
-1.58992
1.59242
0.0370703
-0.0384832
-1.58134
1.58276
0.0392973
-0.0397778
-1.31652
1.317
0.0399295
-0.0398233
-1.10112
1.10101
0.0395828
-0.0393628
-0.925646
0.925426
0.0392751
-0.0386744
-0.781955
0.781355
0.0373989
-0.0344971
-0.645693
0.642791
0.0301845
-0.0239748
-0.476864
0.470654
0.0177874
-0.0114129
-0.28252
0.276145
0.00664034
-0.00284397
-0.121925
0.118129
0.000784616
-0.0188066
0.0180219
-0.0298259
0.0303127
-0.000486894
0.00273623
-0.0038135
-0.22487
0.225948
0.00471814
-0.00538534
-0.394668
0.395336
0.00615241
-0.00719406
-0.555517
0.556558
0.00890373
-0.0110546
-0.684272
0.686423
0.0139337
-0.0168831
-0.80819
0.811139
0.0203299
-0.0235915
-0.954605
0.957867
0.0272391
-0.0305766
-1.13094
1.13428
0.0341666
-0.0372913
-1.34205
1.34517
0.0404236
-0.042883
-1.59481
1.59727
0.044686
-0.0458576
-1.58399
1.58516
0.0463936
-0.0465828
-1.31725
1.31744
0.0464538
-0.0460306
-1.10088
1.10045
0.0454985
-0.0449869
-0.925078
0.924566
0.0445869
-0.043536
-0.78029
0.77924
0.0416844
-0.0379761
-0.639756
0.636048
0.0328808
-0.0258923
-0.464264
0.457276
0.0191336
-0.0122682
-0.269631
0.262765
0.00714508
-0.00306533
-0.114243
0.110163
0.000847199
-0.0172253
0.0163781
-0.0308709
0.0315763
-0.000705338
0.00422346
-0.00618632
-0.227445
0.229408
0.00815392
-0.00972195
-0.396407
0.397975
0.0113108
-0.0129324
-0.558257
0.559879
0.0150953
-0.0176093
-0.689009
0.691523
0.0209019
-0.0242399
-0.814103
0.817442
0.0281181
-0.0317644
-0.961058
0.964704
0.0358091
-0.0394697
-1.13756
1.14123
0.0433486
-0.0466548
-1.34823
1.35154
0.0498695
-0.0522733
-1.5996
1.602
0.0538951
-0.054778
-1.58612
1.587
0.05499
-0.0548378
-1.31732
1.31717
0.0543855
-0.0536057
-1.09994
1.09916
0.0527495
-0.0519054
-0.923857
0.923013
0.0510997
-0.0495445
-0.77772
0.776165
0.0469798
-0.0423107
-0.63223
0.627561
0.0362769
-0.0283338
-0.450066
0.442123
0.0208465
-0.0133385
-0.255699
0.248191
0.00776136
-0.00332682
-0.105963
0.101528
0.000918339
-0.0155158
0.0145974
-0.0323478
0.0333405
-0.000992682
0.00610204
-0.00911806
-0.231797
0.234813
0.0123428
-0.0149676
-0.400069
0.402693
0.0175231
-0.0198521
-0.562359
0.564688
0.0226085
-0.0256081
-0.694562
0.697561
0.0294411
-0.0332704
-0.820807
0.824636
0.0376832
-0.0417979
-0.968292
0.972406
0.046316
-0.0503502
-1.14484
1.14887
0.0545479
-0.0580368
-1.35477
1.35826
0.0613048
-0.0635991
-1.60425
1.60654
0.0649705
-0.0654827
-1.58763
1.58815
0.0653152
-0.0647492
-1.3166
1.31604
0.0639342
-0.062747
-1.0982
1.09702
0.0615282
-0.0603455
-0.92189
0.920708
0.059007
-0.0568449
-0.774125
0.771963
0.0534226
-0.0475881
-0.622786
0.616951
0.0404121
-0.0312966
-0.433911
0.424796
0.0229017
-0.0145931
-0.240424
0.232115
0.00846365
-0.0036141
-0.0969479
0.0920983
0.000993095
-0.0136636
0.0126705
-0.0343856
0.0357747
-0.00138903
0.00855487
-0.0129209
-0.238248
0.242614
0.0176321
-0.0214896
-0.406024
0.409882
0.025177
-0.0283648
-0.568153
0.571341
0.0318936
-0.0355378
-0.701198
0.704843
0.0400744
-0.0445247
-0.8285
0.83295
0.0495864
-0.0542515
-0.976474
0.981139
0.0593056
-0.0637404
-1.15285
1.15729
0.0682501
-0.0718811
-1.36163
1.36526
0.0751216
-0.0772044
-1.60861
1.6107
0.0782131
-0.0782408
-1.58834
1.58837
0.0776114
-0.0765088
-1.31492
1.31382
0.075269
-0.0736423
-1.09555
1.09393
0.0720392
-0.0704334
-0.919145
0.917539
0.0685305
-0.065612
-0.76928
0.766361
0.0611192
-0.053851
-0.611001
0.603732
0.0452796
-0.0347354
-0.415364
0.40482
0.0252384
-0.015974
-0.223495
0.21423
0.0092086
-0.0039045
-0.0870889
0.0817848
0.00106405
-0.0116647
0.0106007
-0.0371802
0.0391311
-0.00195092
0.0119689
-0.0180492
-0.247321
0.253402
0.0245571
-0.0298592
-0.414768
0.42007
0.0348883
-0.0391258
-0.576034
0.580271
0.0436393
-0.0481291
-0.709256
0.713746
0.0535688
-0.0587826
-0.837435
0.842649
0.0646086
-0.0698898
-0.985764
0.991045
0.0755039
-0.0803139
-1.16164
1.16645
0.0850564
-0.0887159
-1.36871
1.37237
0.0917663
-0.093463
-1.61247
1.61416
0.0939358
-0.0933174
-1.588
1.58738
0.0920983
-0.0903509
-1.31211
1.31036
0.0885901
-0.0864932
-1.09186
1.08976
0.0844878
-0.0822999
-0.915417
0.91323
0.0798556
-0.075934
-0.762802
0.758881
0.0701065
-0.0610755
-0.596321
0.58729
0.0508057
-0.0385411
-0.39392
0.381656
0.0277412
-0.0173843
-0.204622
0.194265
0.00992918
-0.0041653
-0.0763246
0.0705607
0.00112115
-0.00953146
0.0084103
-0.0410515
0.0438762
-0.00282462
0.0169378
-0.0252729
-0.259747
0.268082
0.0340095
-0.0410493
-0.42697
0.43401
0.0477126
-0.0532279
-0.586484
0.591999
0.0590005
-0.0645857
-0.719153
0.724738
0.0711447
-0.0772432
-0.847878
0.853977
0.0838889
-0.0897667
-0.996266
1.00214
0.0958481
-0.10089
-1.17109
1.17613
0.105654
-0.109112
-1.37572
1.37918
0.111692
-0.112735
-1.6154
1.61644
0.112425
-0.110939
-1.58624
1.58476
0.108965
-0.106459
-1.30795
1.30544
0.104079
-0.101432
-1.08703
1.08438
0.0989863
-0.0961165
-0.910336
0.907467
0.0930305
-0.0878229
-0.754181
0.748973
0.0803262
-0.0691254
-0.578053
0.566852
0.0568039
-0.0425076
-0.369027
0.35473
0.030218
-0.0186765
-0.183575
0.172034
0.0105292
-0.00435222
-0.0646749
0.058498
0.00115136
-0.00729712
0.00614576
-0.0465763
0.0508759
-0.0042996
0.0246268
-0.0360289
-0.276689
0.288091
0.0476569
-0.0570107
-0.443653
0.453007
0.0656895
-0.0726955
-0.600106
0.607112
0.0800103
-0.0870821
-0.73127
0.738342
0.0948103
-0.10171
-0.860026
0.866926
0.109004
-0.115253
-1.00785
1.0141
0.121481
-0.126414
-1.18083
1.18577
0.130785
-0.133646
-1.38211
1.38498
0.135316
-0.135316
-1.61682
1.61682
0.133886
-0.131259
-1.5826
1.57997
0.128345
-0.124931
-1.30218
1.29876
0.12185
-0.118591
-1.0809
1.07764
0.115621
-0.112004
-0.903719
0.900103
0.107987
-0.101097
-0.742797
0.735906
0.0915004
-0.0776539
-0.555317
0.541471
0.0629129
-0.0463044
-0.340121
0.323513
0.0323922
-0.0196559
-0.160264
0.147527
0.0108878
-0.00441221
-0.0522818
0.0458062
0.0011391
-0.00502022
0.00388112
-0.0548192
0.0621919
-0.00737263
0.0380883
-0.0539657
-0.300293
0.31617
0.069658
-0.0822256
-0.466482
0.479049
0.0930911
-0.101464
-0.617346
0.625718
0.110292
-0.11862
-0.745985
0.754313
0.127236
-0.134513
-0.873583
0.88086
0.141867
-0.147885
-1.01991
1.02593
0.153583
-0.15777
-1.19004
1.19423
0.161083
-0.162735
-1.387
1.38865
0.16291
-0.161394
-1.61587
1.61436
0.15847
-0.154399
-1.57652
1.57245
0.150307
-0.145786
-1.29448
1.28996
0.141889
-0.137974
-1.07329
1.06937
0.134354
-0.129905
-0.895369
0.89092
0.124531
-0.115381
-0.72772
0.71857
0.103076
-0.0859929
-0.527019
0.509936
0.0685233
-0.049488
-0.306734
0.287699
0.0339671
-0.0201701
-0.134845
0.121048
0.0109295
-0.00431897
-0.0394602
0.0328496
0.00107253
-0.00278837
0.00171583
-0.0690586
0.0731462
-0.00408764
0.029119
-0.0429188
-0.334543
0.348343
0.0568569
-0.0684172
-0.496893
0.508453
0.0787163
-0.0882951
-0.63778
0.647359
0.0989295
-0.108673
-0.762174
0.771917
0.11947
-0.129046
-0.887233
0.896809
0.139208
-0.148201
-1.031
1.04
0.157522
-0.165419
-1.19731
1.20521
0.173124
-0.179091
-1.38912
1.39509
0.184118
-0.187
-1.6116
1.61448
0.187702
-0.186794
-1.56733
1.56642
0.184821
-0.181988
-1.28448
1.28164
0.179487
-0.176531
-1.06397
1.06101
0.173831
-0.16947
-0.884701
0.88034
0.162045
-0.148543
-0.707631
0.694129
0.130172
-0.105689
-0.491991
0.467508
0.0819011
-0.0570846
-0.268607
0.24379
0.0379601
-0.0218126
-0.107888
0.0917402
0.0114644
-0.00439897
-0.0267459
0.0196804
0.00106888
-0.000705428
-0.000363448
-0.0804408
0.0784624
0.00197841
0.00742451
-0.0165276
-0.364878
0.373981
0.0271334
-0.0353273
-0.524662
0.532856
0.0435651
-0.0515971
-0.659472
0.667504
0.061381
-0.07048
-0.781273
0.790372
0.0801481
-0.0889425
-0.90581
0.914605
0.0982375
-0.106115
-1.04869
1.05656
0.114448
-0.121125
-1.21288
1.21956
0.127553
-0.132201
-1.40069
1.40534
0.135476
-0.136767
-1.61647
1.61776
0.135877
-0.133346
-1.5647
1.56217
0.12975
-0.125184
-1.27809
1.27353
0.120991
-0.116396
-1.05594
1.05135
0.11204
-0.106306
-0.871101
0.865367
0.0984372
-0.0864823
-0.676729
0.664775
0.0725102
-0.0557621
-0.441533
0.424785
0.0410504
-0.0273487
-0.219365
0.205663
0.0176612
-0.00998407
-0.0766184
0.0689413
0.0052555
-0.00206898
-0.0130045
0.00981801
0.000435163
0.00148043
-0.0019156
-0.0818513
0.0789222
0.00292914
-0.00172684
-0.003525
-0.385383
0.390635
0.0107355
-0.0166519
-0.545171
0.551087
0.0227309
-0.0297738
-0.677737
0.68478
0.0382397
-0.0461366
-0.798575
0.806472
0.0547434
-0.0624071
-0.922638
0.930302
0.0702505
-0.0772464
-1.06424
1.07124
0.0844171
-0.0902201
-1.22576
1.23157
0.0953085
-0.0987004
-1.40925
1.41264
0.100886
-0.100941
-1.61824
1.6183
0.098828
-0.0950739
-1.55891
1.55516
0.0904946
-0.0850674
-1.26858
1.26316
0.0796556
-0.0738711
-1.04505
1.03926
0.0683936
-0.0618518
-0.855688
0.849146
0.0547062
-0.0449546
-0.649607
0.639856
0.0349636
-0.0243442
-0.406361
0.395742
0.0164939
-0.0103047
-0.191435
0.185246
0.00651577
-0.00383117
-0.0612149
0.0585303
0.00214281
-0.0008669
-0.00661338
0.00533748
0.000180588
0.00255318
-0.00273377
-0.0805773
0.077805
0.00277229
-0.00536268
0.00285292
-0.399049
0.401559
0.00178384
-0.00625939
-0.560291
0.564767
0.0114067
-0.0173179
-0.692801
0.698712
0.024544
-0.0312949
-0.813723
0.820474
0.0386354
-0.0451938
-0.937423
0.943981
0.0522768
-0.0581761
-1.07779
1.08368
0.0643866
-0.068925
-1.23692
1.24146
0.0731379
-0.0757584
-1.41575
1.41837
0.0769477
-0.0759082
-1.61782
1.61678
0.0731356
-0.0687507
-1.55075
1.54637
0.0636139
-0.0572243
-1.25731
1.25092
0.0512283
-0.044684
-1.03221
1.02567
0.0383552
-0.0316123
-0.839359
0.832617
0.0250975
-0.0176068
-0.627005
0.619514
0.0109929
-0.00549737
-0.384059
0.378564
0.00254549
-0.00098683
-0.177787
0.176228
0.000430682
-0.000372128
-0.0548786
0.05482
0.000308148
-0.000127001
-0.0037962
0.00361505
7.6229e-06
0.0031937
-0.00320132
-0.0790483
0.0765944
0.00245393
-0.00649333
0.00559879
-0.408131
0.409025
-0.00221668
-0.000970768
-0.572428
0.575616
0.00517051
-0.0105513
-0.705422
0.710803
0.0166192
-0.0225342
-0.82652
0.832435
0.0288768
-0.0345542
-0.95007
0.955747
0.0405999
-0.0458133
-1.08943
1.09464
0.0510139
-0.0551058
-1.24582
1.24991
0.0585837
-0.06058
-1.42057
1.42257
0.061135
-0.0595568
-1.61549
1.61391
0.0563208
-0.0513199
-1.54122
1.53622
0.0458504
-0.0392576
-1.24437
1.23777
0.0329267
-0.0258215
-1.01818
1.01108
0.0193007
-0.0123982
-0.823316
0.816413
0.00656366
-0.000699485
-0.609385
0.60352
-0.00342535
0.0056976
-0.370903
0.368631
-0.00590721
0.0049889
-0.172624
0.173542
-0.00372191
0.00228769
-0.0539849
0.0554191
-0.00123188
0.000504389
-0.00333711
0.0040646
-0.000147439
0.00346174
-0.0033143
-0.0776257
0.075521
0.0021047
-0.00638872
0.00600928
-0.414325
0.414704
-0.00400763
0.00145377
-0.581724
0.584278
0.00259146
-0.00718923
-0.716107
0.720705
0.0123981
-0.0175264
-0.837555
0.842683
0.0231577
-0.0282186
-0.961061
0.966122
0.0337257
-0.03826
-1.09956
1.10409
0.0428869
-0.0465005
-1.25369
1.2573
0.0494496
-0.0510148
-1.42425
1.42582
0.0511381
-0.0496029
-1.61218
1.61065
0.0460926
-0.0410611
-1.53074
1.52571
0.0354594
-0.0287395
-1.23094
1.22422
0.0225314
-0.0151968
-1.00347
0.996131
0.00855393
-0.00180273
-0.807745
0.800994
-0.00337919
0.00801889
-0.595128
0.590488
-0.0109298
0.0118438
-0.363494
0.36258
-0.0106042
0.00851859
-0.172445
0.17453
-0.00646111
0.00414482
-0.0562047
0.058521
-0.00235132
0.000966148
-0.00472998
0.00611515
-0.000266537
0.00331173
-0.00304519
-0.0765321
0.0748864
0.00164567
-0.00552878
0.00549081
-0.418894
0.418932
-0.00389476
0.0019882
-0.589798
0.591705
0.00177503
-0.0059284
-0.725326
0.729479
0.0108623
-0.0152676
-0.847402
0.851808
0.0202014
-0.0246727
-0.971135
0.975606
0.0298752
-0.0339672
-1.10865
1.11274
0.0380362
-0.0414075
-1.26071
1.26408
0.0444416
-0.0457799
-1.42737
1.42871
0.0458586
-0.0441609
-1.60868
1.60698
0.0409372
-0.0357075
-1.52045
1.51522
0.030361
-0.0239373
-1.21733
1.21091
0.0177486
-0.0108099
-0.988659
0.981721
0.004322
0.00228538
-0.792781
0.786173
-0.00704064
0.0110958
-0.582963
0.578908
-0.0135472
0.0139666
-0.358784
0.358365
-0.0126051
0.0102269
-0.174651
0.177029
-0.00785469
0.00516849
-0.0601953
0.0628815
-0.00301944
0.00126384
-0.00732136
0.00907696
-0.000361551
0.00285934
-0.00249778
-0.0759386
0.074644
0.00129454
-0.00446947
0.00456376
-0.422492
0.422398
-0.00317258
0.00135892
-0.596802
0.598616
0.00225649
-0.00595235
-0.733585
0.737281
0.0101692
-0.0144057
-0.856144
0.86038
0.0189464
-0.0235364
-0.979866
0.984456
0.0279877
-0.0318732
-1.11691
1.1208
0.0360408
-0.0391374
-1.26731
1.27041
0.0416543
-0.0433608
-1.42993
1.43164
0.0435604
-0.0420828
-1.60532
1.60384
0.0389571
-0.0342474
-1.51019
1.50549
0.0291919
-0.0230847
-1.20422
1.19811
0.0172827
-0.0106666
-0.974586
0.96797
0.00451489
0.00168182
-0.778605
0.772409
-0.00658666
0.0102495
-0.571956
0.568293
-0.0123676
0.0131345
-0.355272
0.354505
-0.0122265
0.0100786
-0.177273
0.17942
-0.00787469
0.005297
-0.0646891
0.0672668
-0.00317943
0.00137843
-0.0104635
0.0122645
-0.000406253
0.00222566
-0.0018194
-0.0758691
0.0747926
0.00107653
-0.00320813
0.0030768
-0.425704
0.425835
-0.00195725
0.000209738
-0.603224
0.604972
0.00328845
-0.0068582
-0.74124
0.74481
0.0108894
-0.0147074
-0.864384
0.868202
0.0193473
-0.0231319
-0.98845
0.992234
0.0275331
-0.0312202
-1.12482
1.12851
0.035251
-0.0385201
-1.27347
1.27674
0.0412968
-0.0427602
-1.43309
1.43455
0.04327
-0.042166
-1.60228
1.60118
0.0396636
-0.0352675
-1.5007
1.4963
0.0306679
-0.0249978
-1.19218
1.18651
0.0196272
-0.0133901
-0.96114
0.954903
0.00774768
-0.00174958
-0.765346
0.759347
-0.00304992
0.00685208
-0.561707
0.557905
-0.00902611
0.00997694
-0.351546
0.350595
-0.0097562
0.00832218
-0.179309
0.180743
-0.00667211
0.0045943
-0.0687991
0.070877
-0.00282363
0.00127632
-0.0135421
0.0150894
-0.000378531
0.00152015
-0.00114161
-0.0760824
0.0753363
0.000746129
-0.00206566
0.0014941
-0.428995
0.429567
-0.000549918
-0.0014975
-0.608779
0.610827
0.00456235
-0.00796547
-0.748374
0.751778
0.0118153
-0.0157517
-0.871863
0.8758
0.0197614
-0.023695
-0.996209
1.00014
0.028046
-0.0315138
-1.13261
1.13608
0.0356223
-0.0388347
-1.27979
1.28301
0.041658
-0.0436405
-1.43641
1.4384
0.0446302
-0.0438125
-1.60012
1.5993
0.0415727
-0.0379229
-1.49212
1.48847
0.0339018
-0.0286546
-1.1808
1.17555
0.0236184
-0.0180636
-0.948645
0.943091
0.0124902
-0.00700839
-0.752684
0.747203
0.00227176
0.00194106
-0.55197
0.547757
-0.0042646
0.00565464
-0.347143
0.345753
-0.00601453
0.00551017
-0.18023
0.180734
-0.00456059
0.00325329
-0.0717873
0.0730946
-0.00207485
0.00097222
-0.016016
0.0171187
-0.000295323
0.000886361
-0.000591038
-0.0767171
0.0761387
0.000578433
-0.00109802
0.000626135
-0.432511
0.432983
0.000970969
-0.00290139
-0.614549
0.616479
0.00610762
-0.00937186
-0.754968
0.758232
0.0130626
-0.0165883
-0.879386
0.882912
0.0207129
-0.024325
-1.00406
1.00768
0.0286188
-0.0325174
-1.13999
1.14388
0.0362618
-0.0398002
-1.28625
1.28979
0.0430429
-0.0451187
-1.44027
1.44235
0.0464887
-0.0464664
-1.59871
1.59868
0.044696
-0.0417024
-1.48473
1.48174
0.0379402
-0.0332374
-1.17043
1.16573
0.0287321
-0.0234996
-0.937195
0.931963
0.0184521
-0.0131703
-0.740875
0.735593
0.00851751
-0.00397615
-0.541955
0.537414
0.00103414
0.000908116
-0.341919
0.339977
-0.00202389
0.00234667
-0.179549
0.179226
-0.00216683
0.00166387
-0.0732206
0.0737235
-0.00113048
0.000566102
-0.0175673
0.0181316
-0.000178531
0.000418776
-0.000240245
-0.0776313
0.0772431
0.000388292
-9.1034e-05
-0.000649267
-0.436136
0.436876
0.00217571
-0.00441406
-0.619936
0.622174
0.00752825
-0.0106231
-0.761323
0.764418
0.0143981
-0.0177703
-0.886402
0.889774
0.0217326
-0.0254636
-1.01175
1.01548
0.0296597
-0.0335232
-1.14762
1.15149
0.0374904
-0.0410582
-1.29324
1.2968
0.0444922
-0.0473225
-1.4447
1.44753
0.0491476
-0.0494359
-1.5986
1.59889
0.0483693
-0.0457239
-1.47867
1.47602
0.0425651
-0.0384982
-1.16106
1.15699
0.0341841
-0.0293374
-0.926533
0.921687
0.0245971
-0.0193462
-0.729634
0.724383
0.0147724