/*--------------------------------*- C++ -*----------------------------------*\
| =========                 |                                                 |
| \\      /  F ield         | OpenFOAM: The Open Source CFD Toolbox           |
|  \\    /   O peration     | Version:  2306                                  |
|   \\  /    A nd           | Website:  www.openfoam.com                      |
|    \\/     M anipulation  |                                                 |
\*---------------------------------------------------------------------------*/
FoamFile
{
    version     2.0;
    format      ascii;
    arch        "LSB;label=32;scalar=64";
    class       volScalarField;
    location    "31";
    object      p;
}
// * * * * * * * * * * * * * * * * * * * * * * * * * * * * * * * * * * * * * //

dimensions      [0 2 -2 0 0 0 0];

internalField   nonuniform List<scalar> 
8800
(
1.56941
1.52136
1.48297
1.45432
1.43369
1.41891
1.40827
1.40073
1.39583
1.39368
1.39486
1.39898
1.40559
1.41487
1.42759
1.44516
1.46959
1.50319
1.54562
1.60275
1.40195
1.40915
1.41759
1.42099
1.41907
1.41353
1.4068
1.4006
1.39579
1.39285
1.39248
1.3949
1.39933
1.40527
1.41213
1.41872
1.42283
1.4223
1.41623
1.40724
1.37868
1.38485
1.38905
1.3924
1.39488
1.39566
1.39452
1.39233
1.39022
1.38921
1.39007
1.39237
1.39513
1.39729
1.39777
1.39621
1.39334
1.38968
1.38514
1.38135
1.37358
1.37628
1.37899
1.3813
1.38293
1.38423
1.3851
1.38525
1.38491
1.38477
1.3854
1.38645
1.38715
1.38701
1.38616
1.38492
1.38314
1.38061
1.37817
1.37664
1.36843
1.36986
1.37165
1.3737
1.37544
1.37672
1.37771
1.37852
1.37911
1.37958
1.38008
1.38041
1.38033
1.37989
1.37912
1.37786
1.37611
1.37419
1.37285
1.37203
1.36349
1.3644
1.36564
1.36722
1.36886
1.37037
1.3716
1.37261
1.37351
1.37429
1.3748
1.37494
1.37475
1.3742
1.37323
1.37193
1.37051
1.36919
1.36834
1.3678
1.35871
1.35937
1.36034
1.36164
1.36305
1.36451
1.36593
1.36719
1.36829
1.36924
1.36985
1.37002
1.36976
1.36909
1.36813
1.36705
1.36594
1.36494
1.36433
1.36393
1.35407
1.35458
1.35537
1.35651
1.3578
1.35917
1.3606
1.36203
1.36335
1.3645
1.36526
1.36548
1.36521
1.3646
1.3638
1.36291
1.36201
1.36123
1.36076
1.36046
1.34952
1.34993
1.3506
1.35163
1.35285
1.35418
1.35561
1.35711
1.35861
1.35999
1.36094
1.36127
1.36113
1.36068
1.36006
1.35933
1.35858
1.35797
1.35761
1.35736
1.34501
1.34533
1.34592
1.34688
1.34806
1.34938
1.35082
1.35238
1.35402
1.35565
1.35684
1.3574
1.35748
1.35723
1.35679
1.35623
1.35562
1.35514
1.35486
1.35466
1.34046
1.34072
1.34125
1.34217
1.34335
1.3447
1.34621
1.34788
1.34971
1.35159
1.35311
1.35398
1.35431
1.35428
1.354
1.35359
1.35312
1.35274
1.35253
1.35237
1.33583
1.33603
1.33652
1.33745
1.33866
1.34007
1.34171
1.34357
1.34564
1.34787
1.34978
1.35101
1.35163
1.35181
1.35172
1.35145
1.35109
1.35081
1.35065
1.35052
1.33106
1.33123
1.33169
1.33264
1.33391
1.33542
1.33719
1.33927
1.3417
1.34438
1.34678
1.34841
1.34936
1.34984
1.34997
1.34986
1.34963
1.34943
1.34932
1.34921
1.32612
1.32624
1.32669
1.32765
1.329
1.33063
1.33257
1.3349
1.33766
1.34086
1.34388
1.3461
1.34753
1.34836
1.34877
1.34888
1.34879
1.34869
1.34863
1.34854
1.32092
1.321
1.32145
1.32246
1.32393
1.32574
1.32795
1.33068
1.33399
1.33789
1.34166
1.3445
1.3464
1.3476
1.34831
1.34864
1.34872
1.34872
1.34871
1.34865
1.31541
1.31547
1.31588
1.31692
1.31849
1.32047
1.32296
1.3261
1.33003
1.33477
1.33947
1.34312
1.34572
1.34746
1.34857
1.34923
1.34956
1.34971
1.34975
1.34969
1.30927
1.30932
1.30975
1.31082
1.31251
1.31475
1.31764
1.32136
1.32608
1.33188
1.33772
1.34236
1.3457
1.34806
1.34971
1.35077
1.3514
1.35171
1.3518
1.35174
1.3022
1.30224
1.30271
1.30385
1.30576
1.30834
1.31175
1.31624
1.32201
1.32915
1.33637
1.34217
1.34644
1.34953
1.35174
1.35325
1.35422
1.3547
1.35483
1.35476
1.29375
1.29378
1.29432
1.29564
1.29784
1.30091
1.30502
1.31048
1.31754
1.32632
1.33527
1.34249
1.34787
1.3518
1.35469
1.35672
1.35805
1.3587
1.35886
1.35878
1.28347
1.28351
1.28416
1.28575
1.28844
1.29221
1.2973
1.30408
1.31283
1.32368
1.3347
1.34359
1.35022
1.35512
1.35875
1.36132
1.363
1.36382
1.36401
1.36392
1.27083
1.27087
1.27169
1.27369
1.27706
1.28181
1.28821
1.2967
1.30761
1.32102
1.33454
1.34541
1.35353
1.35954
1.36401
1.3672
1.36928
1.37026
1.37049
1.37038
1.25507
1.25513
1.25619
1.25879
1.26313
1.26924
1.27744
1.28823
1.30193
1.3185
1.335
1.34816
1.35797
1.36526
1.3707
1.3746
1.3771
1.37826
1.37852
1.37839
1.23506
1.23514
1.23658
1.24009
1.24589
1.25393
1.26465
1.27852
1.29576
1.31619
1.33618
1.35197
1.36371
1.37245
1.379
1.3837
1.38668
1.38802
1.38831
1.38816
1.20904
1.20917
1.21125
1.21621
1.22429
1.23525
1.24955
1.26754
1.28925
1.31428
1.33826
1.357
1.37091
1.38127
1.38907
1.39469
1.39816
1.39969
1.40002
1.39982
1.17412
1.17439
1.17773
1.18535
1.19721
1.2127
1.23209
1.25549
1.28267
1.31303
1.34146
1.36342
1.37967
1.39186
1.40105
1.40764
1.41163
1.41336
1.41368
1.41345
1.12471
1.12586
1.13255
1.14554
1.1639
1.18628
1.21266
1.24287
1.27648
1.31278
1.34596
1.37131
1.39006
1.40417
1.41482
1.42246
1.42706
1.42896
1.42925
1.42896
1.05222
1.05984
1.07519
1.09804
1.12593
1.15738
1.19225
1.23028
1.27106
1.31388
1.35231
1.38146
1.40307
1.41943
1.43191
1.44092
1.44637
1.44866
1.44905
1.44883
0.975031
0.992107
1.01683
1.05006
1.08781
1.12843
1.17186
1.21796
1.2664
1.31658
1.36139
1.39547
1.42088
1.44024
1.45516
1.46621
1.47294
1.47565
1.47629
1.47626
0.910854
0.930957
0.963582
1.00538
1.05168
1.10086
1.15254
1.20652
1.26244
1.31974
1.37057
1.40914
1.43791
1.45986
1.47673
1.48911
1.49684
1.50027
1.50081
1.50086
0.858657
0.880738
0.918487
0.96632
1.01931
1.07558
1.13449
1.19566
1.25858
1.32257
1.37897
1.42152
1.45309
1.47705
1.49543
1.50906
1.51794
1.52153
1.52218
1.52231
0.815474
0.838687
0.879888
0.932518
0.99082
1.05289
1.11795
1.18544
1.25468
1.32481
1.38624
1.43227
1.46618
1.4918
1.51142
1.52589
1.53532
1.53938
1.54028
1.54045
0.778572
0.802442
0.846407
0.902702
0.965426
1.0324
1.10275
1.17581
1.25073
1.32642
1.39238
1.44146
1.47735
1.50428
1.52476
1.53986
1.54965
1.55413
1.55528
1.55546
0.745987
0.770308
0.816364
0.875777
0.94224
1.01347
1.08849
1.16653
1.24659
1.32738
1.39751
1.44933
1.48692
1.51489
1.536
1.5515
1.56155
1.56629
1.56752
1.56768
0.716292
0.741024
0.788821
0.850879
0.920576
0.995531
1.07473
1.1573
1.2421
1.32766
1.40172
1.45612
1.49524
1.52409
1.54562
1.56135
1.57146
1.57631
1.57762
1.57773
0.688616
0.713713
0.763091
0.827389
0.899937
0.978197
1.06115
1.14784
1.23707
1.32718
1.40507
1.46198
1.50262
1.53228
1.55423
1.57009
1.58027
1.58519
1.58656
1.58664
0.662251
0.687759
0.738579
0.804848
0.87996
0.961176
1.04751
1.13799
1.23137
1.32585
1.40755
1.46706
1.50926
1.53982
1.56223
1.5783
1.58849
1.59332
1.59474
1.59486
0.636909
0.66286
0.714731
0.782984
0.86039
0.944261
1.03365
1.12762
1.22488
1.32362
1.40917
1.47141
1.51536
1.54696
1.56993
1.58623
1.59648
1.60126
1.60258
1.60264
0.612234
0.638762
0.691637
0.761625
0.84107
0.927328
1.0195
1.11665
1.21756
1.32042
1.40991
1.47511
1.52103
1.55384
1.57749
1.59413
1.60445
1.60915
1.61034
1.61032
0.588145
0.615107
0.669118
0.740646
0.82192
0.910322
1.005
1.10507
1.20938
1.31623
1.40975
1.47816
1.5263
1.56052
1.585
1.60203
1.6124
1.61698
1.61804
1.61793
0.564552
0.59207
0.647056
0.719987
0.802913
0.893231
0.990152
1.09287
1.20032
1.31099
1.40858
1.48044
1.53114
1.56704
1.59249
1.60995
1.62033
1.62471
1.62559
1.62541
0.541388
0.569513
0.625433
0.69965
0.784048
0.876077
0.974996
1.08008
1.19039
1.30468
1.40632
1.48189
1.53551
1.5734
1.59998
1.61788
1.62817
1.63224
1.63293
1.63269
0.518654
0.547444
0.604278
0.679663
0.765377
0.858907
0.959588
1.06676
1.17964
1.29726
1.40288
1.48235
1.53928
1.57959
1.60755
1.62584
1.63585
1.63949
1.63996
1.63966
0.496523
0.525927
0.583635
0.660068
0.746948
0.841796
0.944001
1.05299
1.16813
1.28877
1.39821
1.48168
1.54229
1.58557
1.61533
1.634
1.64339
1.64634
1.64653
1.64621
0.475032
0.505018
0.563537
0.640922
0.728826
0.824813
0.928332
1.03887
1.15597
1.27927
1.39224
1.47971
1.54429
1.59118
1.62348
1.64279
1.65108
1.65275
1.65253
1.65222
0.45412
0.484761
0.544022
0.622269
0.71108
0.808046
0.912675
1.02451
1.14324
1.26882
1.38496
1.4763
1.54502
1.59607
1.63199
1.65291
1.65992
1.65924
1.65792
1.65776
0.433963
0.465173
0.525156
0.604179
0.693772
0.791579
0.897129
1.01001
1.13007
1.25754
1.37637
1.47134
1.54414
1.59966
1.64036
1.66483
1.67197
1.66831
1.66403
1.66288
0.414477
0.44626
0.506923
0.586626
0.676872
0.775368
0.881637
0.995328
1.1164
1.24535
1.36635
1.46456
1.54135
1.60119
1.64739
1.6779
1.68888
1.68582
1.67486
1.66279
0.395736
0.428033
0.489193
0.569418
0.660086
0.759073
0.865779
0.979957
1.10167
1.2316
1.35419
1.45509
1.53597
1.59948
1.65043
1.68808
1.70402
1.69637
1.67881
1.66677
0.377912
0.410476
0.472137
0.552782
0.643686
0.743025
0.849777
0.964235
1.08619
1.21657
1.3401
1.44258
1.52752
1.59356
1.64439
1.68233
1.70154
1.6821
1.61348
1.58121
0.361455
0.392401
0.456142
0.537301
0.628394
0.727732
0.833923
0.948412
1.07023
1.20044
1.3241
1.42679
1.51509
1.58355
1.6253
1.65483
1.65715
1.60766
1.53615
1.49261
0.311288
0.375656
0.441462
0.522039
0.613019
0.71197
0.818238
0.932276
1.05348
1.18283
1.30573
1.4075
1.49534
1.57071
1.58077
1.59052
1.55598
1.49238
1.41556
1.37272
0.344454
0.361235
0.419911
0.50001
0.590299
0.688918
0.794255
0.907362
1.02718
1.15443
1.27448
1.37343
1.45202
1.52855
1.52676
1.42181
1.32083
1.25008
1.17747
1.2143
0.313015
0.343073
0.402958
0.482531
0.572824
0.671079
0.776483
0.888816
1.00738
1.13254
1.24938
1.3443
1.4149
1.45532
1.41175
1.26851
1.1431
1.05345
0.955026
1.01087
0.289173
0.321673
0.383245
0.463071
0.553385
0.651488
0.756686
0.868059
0.985049
1.10757
1.22038
1.30963
1.37027
1.37815
1.27532
1.10293
0.950828
0.831946
0.702077
0.742492
0.265905
0.299758
0.362608
0.443209
0.533677
0.631624
0.736251
0.846535
0.96176
1.08129
1.18932
1.27214
1.31772
1.29303
1.13543
0.936766
0.74639
0.573523
0.380987
0.381429
0.243234
0.277455
0.341187
0.422469
0.51314
0.61088
0.714819
0.823907
0.937133
1.05335
1.15604
1.23165
1.25963
1.19943
1.002
0.784748
0.56434
0.374632
0.112118
-0.169157
0.220314
0.254514
0.318714
0.400469
0.491353
0.588939
0.692262
0.800137
0.911287
1.024
1.12117
1.18851
1.19848
1.08707
0.885022
0.664369
0.448756
0.274199
0.193453
0.0620288
0.196262
0.230474
0.294887
0.376882
0.467844
0.565188
0.667806
0.774306
0.883076
0.991815
1.083
1.14038
1.125
0.976433
0.780496
0.576147
0.398308
0.300748
0.276611
0.258415
0.17079
0.205016
0.26956
0.351638
0.442505
0.539451
0.641136
0.745966
0.851945
0.956076
1.04084
1.08588
1.04895
0.872663
0.686041
0.506996
0.36944
0.329757
0.315307
0.313555
0.143698
0.178002
0.242696
0.324771
0.415416
0.511757
0.612275
0.715113
0.817864
0.916786
0.994464
1.02565
0.96949
0.775325
0.598108
0.439431
0.350658
0.334485
0.333407
0.333391
0.11498
0.149442
0.214296
0.29632
0.386604
0.482164
0.581269
0.681788
0.780874
0.874067
0.943622
0.962236
0.871898
0.686045
0.51617
0.384925
0.345937
0.342944
0.342799
0.343364
0.0849513
0.119593
0.184505
0.266414
0.356206
0.450782
0.548216
0.646095
0.741065
0.828072
0.888852
0.890755
0.773092
0.601354
0.450513
0.360537
0.350442
0.349098
0.348625
0.348984
0.0542003
0.0888987
0.153611
0.235318
0.324465
0.41784
0.513349
0.60826
0.698728
0.779051
0.831394
0.814211
0.680752
0.523645
0.396067
0.367874
0.352799
0.351077
0.351953
0.352524
0.0231779
0.0578073
0.122188
0.203476
0.291779
0.383743
0.477054
0.568686
0.654331
0.727608
0.771222
0.736704
0.587333
0.449088
0.358071
0.325844
0.340249
0.349995
0.352776
0.353421
-0.00727634
0.0270841
0.0910384
0.171521
0.258734
0.349066
0.439916
0.527995
0.608556
0.674709
0.708414
0.659871
0.490877
0.372221
0.318476
0.330471
0.328621
0.332446
0.337699
0.340502
-0.035586
-0.00219436
0.0609969
0.140345
0.226229
0.314611
0.402765
0.487086
0.562368
0.621327
0.646912
0.582822
0.393641
0.257439
0.262882
0.263621
0.269143
0.274371
0.281345
0.286175
-0.0604644
-0.0280281
0.0330043
0.111174
0.195313
0.281452
0.366674
0.447152
0.517121
0.56886
0.590183
0.508107
0.309086
0.0980392
0.0820249
0.126456
0.183329
0.205163
0.208497
0.210774
-0.0799612
-0.0493884
0.00942806
0.0853544
0.167255
0.25086
0.332984
0.409631
0.474699
0.519096
0.538564
0.444291
0.272947
0.00243466
-0.173725
-0.0320276
0.0327931
0.0541512
0.0675963
0.0769933
-0.0922837
-0.0642844
-0.00851733
0.0645793
0.143675
0.224346
0.303235
0.376223
0.437177
0.474714
0.49309
0.400393
0.312032
0.266614
0.101718
0.0390392
-0.0768676
-0.079701
-0.0640794
-0.0585184
-0.095123
-0.0708296
-0.0191211
0.0504315
0.126206
0.203514
0.279148
0.348923
0.406298
0.439781
0.450198
0.372672
0.377355
0.719284
0.808979
0.362844
0.0252846
-0.0270432
-0.0450643
-0.0491579
-0.0871678
-0.0671447
-0.0205768
0.0442959
0.116168
0.189925
0.262569
0.329837
0.384573
0.41648
0.410398
0.28565
0.104211
-0.00158763
-0.237578
-0.582303
-0.534889
-0.326012
-0.201926
-0.208688
-0.0664839
-0.0508015
-0.0116074
0.0471226
0.114468
0.184713
0.254904
0.320998
0.376107
0.406991
0.38975
0.150078
-0.492023
-1.48529
-2.06195
-2.30224
-2.122
-1.66965
-1.28113
-1.11189
-0.0347573
-0.0239725
0.00732546
0.0586413
0.121187
0.188219
0.256968
0.323884
0.383774
0.42255
0.412927
0.174099
-0.436142
-1.22778
-1.79054
-1.97016
-1.80266
-1.49395
-1.1886
-1.03507
0.00375019
0.0101644
0.0329458
0.0768617
0.134717
0.199416
0.268428
0.339084
0.4067
0.469011
0.502107
0.470745
0.337478
0.314906
0.374866
0.614208
0.899951
1.13352
1.29222
1.3642
0.0431102
0.0466463
0.0608017
0.0975778
0.151963
0.215894
0.286627
0.36362
0.444823
0.533851
0.632202
0.780557
1.06076
1.56505
2.15841
2.70234
3.09765
3.31672
3.40764
3.43138
0.0775355
0.079541
0.087473
0.11692
0.168419
0.233583
0.307656
0.390829
0.486223
0.594124
0.723983
0.859924
1.15953
1.73374
2.36986
2.92356
3.31883
3.54631
3.64622
3.67278
0.11118
0.111845
0.114547
0.134781
0.182258
0.248839
0.326113
0.413056
0.510119
0.620451
0.734563
0.856118
1.02441
1.49009
2.01105
2.44016
2.75438
2.9381
3.02224
3.04755
0.139255
0.14039
0.141096
0.153112
0.195584
0.262759
0.341735
0.428837
0.52219
0.627934
0.732648
0.835271
0.942784
1.22164
1.61377
1.93132
2.16643
2.30864
2.37457
2.39236
0.155095
0.155528
0.154504
0.164089
0.208394
0.279255
0.359582
0.444116
0.533102
0.630637
0.722535
0.803949
0.875605
1.05114
1.3099
1.53384
1.70019
1.79634
1.83916
1.85048
0.174062
0.17095
0.167774
0.1794
0.22975
0.304932
0.384574
0.463529
0.544357
0.630239
0.709604
0.776066
0.838666
0.948704
1.12278
1.26736
1.37217
1.43242
1.45833
1.46355
0.240255
0.235105
0.230939
0.243697
0.288864
0.354378
0.422677
0.489874
0.558308
0.630433
0.69849
0.754347
0.806162
0.876394
0.989525
1.08169
1.14571
1.18283
1.19687
1.19769
0.366142
0.362586
0.359668
0.367216
0.393655
0.43227
0.476538
0.52409
0.57566
0.632544
0.687435
0.732173
0.774364
0.81776
0.886678
0.946913
0.988745
1.01181
1.02181
1.02197
0.501036
0.499597
0.497449
0.497051
0.502411
0.51445
0.534077
0.560592
0.594458
0.635587
0.676946
0.71152
0.745546
0.772486
0.813367
0.852261
0.880665
0.897551
0.904139
0.903454
0.596087
0.595549
0.59319
0.587531
0.58065
0.577551
0.581217
0.592616
0.611952
0.638876
0.666265
0.690408
0.714557
0.732848
0.75801
0.784855
0.805806
0.817992
0.822775
0.821696
0.645352
0.644925
0.642522
0.636175
0.626653
0.618241
0.6144
0.616879
0.62615
0.64115
0.656587
0.668791
0.67862
0.688203
0.710383
0.734076
0.751338
0.761279
0.764913
0.7637
0.664892
0.664396
0.662294
0.657164
0.649146
0.640949
0.635144
0.633581
0.636798
0.643607
0.648311
0.647627
0.64384
0.648193
0.669623
0.693336
0.710904
0.720558
0.72416
0.722999
0.669994
0.669501
0.667843
0.664188
0.658645
0.652463
0.647274
0.644695
0.644955
0.646777
0.644519
0.632193
0.615197
0.620845
0.646393
0.670163
0.686205
0.694868
0.698011
0.697109
0.669173
0.668771
0.667571
0.664992
0.661346
0.657256
0.653683
0.651755
0.651798
0.652918
0.648449
0.631673
0.609877
0.618856
0.646337
0.667949
0.680742
0.68687
0.689036
0.688486
0.665528
0.665296
0.664593
0.662877
0.660472
0.658043
0.656338
0.656186
0.658028
0.661099
0.660853
0.650371
0.637646
0.650625
0.672081
0.687898
0.696927
0.701538
0.703026
0.702227
0.658861
0.658846
0.658683
0.657875
0.656573
0.6556
0.655789
0.6582
0.66242
0.67144
0.67959
0.682519
0.68535
0.698484
0.712024
0.721204
0.728388
0.733102
0.734698
0.733765
0.647533
0.647727
0.648048
0.648137
0.648139
0.648802
0.651332
0.6566
0.666366
0.681375
0.699324
0.716283
0.733379
0.747933
0.75195
0.757153
0.762443
0.767685
0.769358
0.768188
0.629758
0.630161
0.630976
0.631913
0.633285
0.635966
0.641064
0.650097
0.66506
0.687171
0.713088
0.739741
0.768039
0.775057
0.776011
0.782535
0.79056
0.796734
0.797075
0.795129
0.604211
0.604809
0.605965
0.607648
0.610298
0.614883
0.622698
0.635627
0.65562
0.683924
0.714747
0.745701
0.768603
0.775585
0.780672
0.790165
0.799986
0.804614
0.804256
0.803365
0.568384
0.56925
0.570849
0.573269
0.577035
0.58314
0.593033
0.608907
0.632881
0.666211
0.701891
0.729762
0.742115
0.747359
0.766417
0.789883
0.804321
0.810141
0.808591
0.807798
0.519785
0.52091
0.522884
0.525893
0.5304
0.537158
0.547376
0.563306
0.587979
0.623956
0.667347
0.698099
0.699686
0.709729
0.747026
0.787374
0.80935
0.81417
0.811445
0.811724
0.456114
0.457395
0.459525
0.462746
0.467134
0.472651
0.479643
0.489453
0.506044
0.53908
0.598681
0.643508
0.646429
0.666001
0.736288
0.794076
0.834994
0.840318
0.836325
0.836164
0.377166
0.378354
0.380225
0.382903
0.385554
0.386576
0.384148
0.37716
0.369424
0.39318
0.481368
0.558394
0.570434
0.619641
0.716648
0.800274
0.845984
0.850654
0.846056
0.844058
0.286793
0.287549
0.288677
0.289833
0.28862
0.280982
0.260773
0.221396
0.172724
0.180098
0.310999
0.435437
0.479098
0.557444
0.668579
0.766129
0.805272
0.797232
0.790173
0.787067
0.194152
0.19415
0.194257
0.19338
0.187155
0.168075
0.122823
0.0366962
-0.0731025
-0.0720181
0.114143
0.279741
0.356192
0.471208
0.582912
0.648476
0.662781
0.660811
0.657364
0.655203
0.112806
0.111871
0.110864
0.108689
0.0988463
0.0709515
0.00404246
-0.120679
-0.265304
-0.274484
-0.0541337
0.140997
0.232005
0.370236
0.473925
0.512499
0.497975
0.490722
0.487755
0.486356
0.0519634
0.0510309
0.0510032
0.0494563
0.0417239
0.0173343
-0.0473274
-0.1743
-0.307791
-0.310354
-0.12307
0.027892
0.125433
0.266077
0.333238
0.331148
0.315269
0.303592
0.298049
0.29573
0.0150259
0.0146144
0.0154186
0.0168902
0.0167336
0.0130148
-0.00173227
-0.0388962
-0.0850151
-0.109969
-0.0705708
0.00303117
0.00965549
0.0287289
0.0506046
0.0992538
0.0804065
0.0683501
0.0628055
0.0609039
0.585142
0.786508
1.0032
1.1825
1.32674
1.44184
1.53833
1.61898
1.65179
1.63587
0.936109
1.06848
1.20615
1.32521
1.42592
1.50981
1.57742
1.62481
1.64963
1.66222
1.17154
1.26079
1.35391
1.43699
1.50849
1.56826
1.61557
1.65037
1.67565
1.69328
1.3407
1.4032
1.46886
1.52912
1.5814
1.62566
1.66193
1.69109
1.71448
1.73259
1.47206
1.51691
1.56591
1.61134
1.65174
1.68691
1.71697
1.74217
1.76252
1.78037
1.57937
1.61372
1.65377
1.69051
1.72415
1.75432
1.78069
1.80296
1.82037
1.83792
1.67415
1.70384
1.7389
1.77193
1.80256
1.83036
1.85469
1.8749
1.88977
1.90721
1.76416
1.79408
1.82867
1.86133
1.89139
1.91839
1.94163
1.96032
1.97314
1.99061
1.86038
1.89418
1.93099
1.96505
1.99538
2.02178
2.04389
2.06112
2.07268
2.0905
1.9759
2.01447
2.05292
2.08739
2.11682
2.14163
2.16204
2.17783
2.18923
2.20759
2.12105
2.16069
2.19618
2.22665
2.25232
2.27445
2.29352
2.30909
2.32178
2.33992
2.29568
2.32796
2.35385
2.37619
2.39627
2.41506
2.43272
2.4493
2.46507
2.48327
2.48337
2.50101
2.51664
2.53328
2.54946
2.56403
2.57708
2.59107
2.60818
2.62786
2.66521
2.67609
2.68825
2.69907
2.70834
2.71792
2.72883
2.74044
2.7504
2.76558
2.87614
2.87818
2.86304
2.84782
2.84146
2.84714
2.86576
2.89618
2.92833
2.95908
3.18206
3.04501
2.96873
2.92669
2.90926
2.9133
2.94067
2.99682
3.10028
3.31556
1.4657
1.46232
1.45639
1.44658
1.43363
1.42119
1.41087
1.40289
1.39719
1.39385
1.39339
1.39603
1.40108
1.40827
1.41766
1.42932
1.44243
1.4544
1.46185
1.46656
1.38372
1.38961
1.39651
1.40174
1.40458
1.40424
1.40132
1.39737
1.39375
1.39139
1.39114
1.39324
1.39684
1.40113
1.40503
1.40699
1.40585
1.40174
1.39582
1.38877
1.3761
1.37844
1.38179
1.38469
1.3869
1.38868
1.38962
1.38933
1.38825
1.38727
1.38732
1.38864
1.39036
1.39155
1.39154
1.39032
1.38847
1.3861
1.38293
1.37995
1.37099
1.37207
1.37394
1.37631
1.37826
1.37964
1.38071
1.38153
1.38193
1.38209
1.38245
1.3831
1.38353
1.3834
1.38281
1.38187
1.38042
1.37832
1.37618
1.37476
1.36594
1.36659
1.3677
1.36942
1.37122
1.37282
1.37406
1.37504
1.37589
1.37661
1.37719
1.37755
1.37756
1.37723
1.37658
1.37546
1.37396
1.37233
1.37097
1.37017
1.36108
1.36153
1.36232
1.36362
1.36511
1.36663
1.36808
1.36932
1.37037
1.37131
1.37204
1.3724
1.37235
1.37193
1.3711
1.36998
1.36875
1.36753
1.36657
1.36605
1.35637
1.35671
1.35732
1.3584
1.3597
1.36108
1.36251
1.36392
1.36521
1.36634
1.36724
1.36768
1.36762
1.36713
1.36634
1.3654
1.36441
1.36344
1.36271
1.36232
1.35179
1.35205
1.35255
1.35347
1.35466
1.35596
1.35735
1.35881
1.36026
1.36162
1.3627
1.36327
1.36327
1.36287
1.36223
1.36147
1.36065
1.35987
1.3593
1.35901
1.34727
1.34747
1.34788
1.34871
1.34983
1.35109
1.35246
1.35394
1.35551
1.35708
1.35841
1.35915
1.35931
1.3591
1.35865
1.35805
1.35738
1.35676
1.35632
1.35608
1.34274
1.3429
1.34326
1.34402
1.3451
1.34635
1.34774
1.34928
1.35095
1.35271
1.3543
1.35534
1.35578
1.3558
1.35553
1.3551
1.35458
1.35409
1.35375
1.35356
1.33816
1.33828
1.33859
1.33931
1.34039
1.34167
1.34314
1.3448
1.34666
1.34868
1.35061
1.352
1.35274
1.35299
1.35291
1.35263
1.35225
1.35187
1.35161
1.35147
1.33347
1.33356
1.33383
1.33454
1.33566
1.33701
1.33858
1.34041
1.34253
1.34488
1.34724
1.34906
1.35014
1.35066
1.3508
1.3507
1.35045
1.35016
1.34998
1.34987
1.32862
1.32868
1.32893
1.32964
1.3308
1.33223
1.33392
1.33592
1.33832
1.3411
1.34401
1.34634
1.34784
1.34874
1.34919
1.34931
1.34922
1.34905
1.34893
1.34886
1.32355
1.32359
1.32382
1.32454
1.32576
1.32732
1.32919
1.33148
1.33423
1.3375
1.34105
1.34408
1.34616
1.34746
1.34821
1.34858
1.34868
1.34864
1.3486
1.34856
1.31823
1.31823
1.31844
1.31917
1.32047
1.32218
1.32427
1.3269
1.33017
1.33415
1.33854
1.34232
1.345
1.34682
1.34796
1.3486
1.34895
1.34908
1.34912
1.34911
1.31243
1.31243
1.31264
1.31337
1.31472
1.31656
1.31891
1.32193
1.32576
1.33052
1.33591
1.34073
1.34425
1.34672
1.34838
1.34949
1.35017
1.35052
1.35066
1.35066
1.30588
1.30585
1.30608
1.30685
1.30831
1.31038
1.31312
1.31671
1.32136
1.3272
1.33385
1.33983
1.34427
1.34746
1.34973
1.35132
1.35237
1.35296
1.3532
1.35321
1.29817
1.29813
1.29839
1.29925
1.30088
1.30326
1.30649
1.31079
1.31642
1.32356
1.33178
1.33923
1.34483
1.34894
1.35191
1.35404
1.35552
1.35638
1.35672
1.35673
1.28886
1.2888
1.28911
1.29013
1.29206
1.29492
1.29885
1.30413
1.31108
1.3199
1.33003
1.33923
1.34617
1.3513
1.35507
1.35783
1.35975
1.36086
1.36128
1.3613
1.27745
1.27738
1.27778
1.27905
1.28142
1.28497
1.28988
1.29647
1.30511
1.31605
1.32854
1.33982
1.34835
1.35467
1.35934
1.36278
1.36517
1.36655
1.36706
1.36709
1.26332
1.26323
1.26377
1.2654
1.26841
1.27294
1.27917
1.28752
1.29838
1.31198
1.32734
1.3411
1.35146
1.35915
1.36487
1.36908
1.37203
1.3737
1.37429
1.37431
1.24554
1.24543
1.2462
1.24838
1.25231
1.25821
1.26631
1.27705
1.29083
1.30777
1.32659
1.34323
1.3557
1.36495
1.37185
1.37696
1.38052
1.38249
1.38317
1.3832
1.22268
1.22257
1.2237
1.22671
1.23206
1.24002
1.25081
1.26485
1.28243
1.30351
1.3264
1.34635
1.3612
1.37222
1.38048
1.38659
1.39084
1.39312
1.39391
1.39393
1.19251
1.19243
1.1942
1.19863
1.20632
1.21754
1.23231
1.25089
1.27335
1.29942
1.327
1.35064
1.36812
1.38111
1.39087
1.39814
1.40308
1.40571
1.40659
1.40659
1.15104
1.15114
1.15432
1.16167
1.1736
1.19013
1.21075
1.23543
1.26396
1.29586
1.32865
1.35627
1.37657
1.39169
1.4031
1.4116
1.4173
1.42027
1.42121
1.42118
1.0908
1.09207
1.09978
1.11357
1.13317
1.158
1.18676
1.21916
1.25485
1.29325
1.33159
1.36335
1.38656
1.40387
1.41696
1.42667
1.43323
1.43655
1.43747
1.43739
1.01897
1.02129
1.03598
1.05972
1.08993
1.12435
1.16196
1.20261
1.24602
1.29171
1.33667
1.37377
1.401
1.42146
1.43701
1.44856
1.4564
1.4604
1.46152
1.46151
0.945508
0.952373
0.97414
1.00776
1.04781
1.09153
1.13795
1.18687
1.2381
1.29119
1.34297
1.38559
1.41692
1.44058
1.45873
1.47247
1.48172
1.48575
1.48703
1.4873
0.886546
0.89519
0.921622
0.962027
1.00961
1.06112
1.11536
1.17198
1.23065
1.29086
1.34908
1.39675
1.43169
1.458
1.47812
1.49325
1.50334
1.50837
1.51041
1.5108
0.838584
0.84781
0.877669
0.922913
0.976231
1.03394
1.09473
1.15808
1.22348
1.29025
1.35444
1.40664
1.44465
1.47311
1.49483
1.51123
1.52252
1.52831
1.53063
1.53106
0.798425
0.807862
0.840032
0.889021
0.946935
1.00974
1.07603
1.14521
1.21659
1.28931
1.35891
1.41514
1.45578
1.48602
1.50897
1.5263
1.53825
1.54465
1.54723
1.54771
0.763505
0.773035
0.806901
0.858951
0.920663
0.987782
1.05885
1.13316
1.20988
1.28798
1.36251
1.42236
1.4653
1.497
1.52088
1.53884
1.55129
1.55819
1.56091
1.5614
0.732235
0.74181
0.777
0.831601
0.896521
0.96737
1.04265
1.12155
1.20313
1.28618
1.36529
1.4285
1.47351
1.50644
1.53104
1.54938
1.56211
1.56924
1.57199
1.57251
0.703432
0.713069
0.74938
0.806185
0.873858
0.947976
1.02699
1.11004
1.19609
1.28379
1.36726
1.43371
1.48067
1.51474
1.53994
1.55854
1.57137
1.57864
1.58139
1.58193
0.676327
0.68603
0.723337
0.782051
0.852198
0.929225
1.01158
1.09839
1.18857
1.28067
1.36839
1.43804
1.487
1.52221
1.54802
1.56694
1.57988
1.58718
1.58996
1.59033
0.65042
0.660229
0.698473
0.758777
0.831203
0.910836
0.996196
1.08644
1.18045
1.27673
1.36862
1.44156
1.49262
1.52912
1.55564
1.5749
1.58798
1.59524
1.598
1.59835
0.625315
0.635312
0.674375
0.73622
0.810656
0.89262
0.980699
1.07406
1.17162
1.27188
1.36793
1.44431
1.49769
1.53563
1.563
1.5827
1.59597
1.60323
1.60587
1.60621
0.600823
0.611056
0.650867
0.714222
0.790432
0.874483
0.965011
1.06121
1.16205
1.2661
1.36628
1.44628
1.50223
1.54184
1.57021
1.59046
1.60395
1.61118
1.61369
1.61398
0.576886
0.587342
0.627952
0.692639
0.770459
0.856386
0.949108
1.04788
1.15173
1.25935
1.36361
1.44742
1.5062
1.54776
1.57732
1.59822
1.61194
1.61908
1.62142
1.62162
0.553404
0.564164
0.605519
0.671442
0.750716
0.838321
0.933002
1.03407
1.14066
1.25162
1.35986
1.44761
1.50957
1.55339
1.58437
1.60599
1.6199
1.6269
1.62901
1.62909
0.530426
0.54148
0.583588
0.650641
0.731228
0.820324
0.916742
1.01985
1.12889
1.2429
1.35495
1.44675
1.51221
1.5587
1.59138
1.61381
1.62781
1.6345
1.63631
1.63629
0.507929
0.519303
0.562185
0.630275
0.712037
0.802444
0.900384
1.00528
1.11648
1.23322
1.34886
1.44473
1.51395
1.56358
1.59841
1.62179
1.63568
1.64182
1.64323
1.6431
0.486107
0.497721
0.541351
0.610389
0.693201
0.784764
0.884007
0.990448
1.10351
1.22267
1.34159
1.44143
1.51462
1.56787
1.60548
1.63017
1.64375
1.64885
1.64964
1.6494
0.464837
0.476793
0.521125
0.591021
0.674764
0.767333
0.867709
0.975444
1.09009
1.21134
1.33315
1.43676
1.514
1.57128
1.61248
1.63933
1.65265
1.65596
1.65551
1.65509
0.44428
0.456551
0.501539
0.57223
0.656812
0.75024
0.851579
0.960395
1.07634
1.19931
1.3236
1.43064
1.51187
1.5734
1.61902
1.64946
1.6636
1.6647
1.66149
1.66001
0.424394
0.436954
0.482651
0.554072
0.639387
0.733557
0.835702
0.945387
1.06237
1.18673
1.31305
1.42303
1.50808
1.57378
1.62423
1.65993
1.67757
1.67858
1.67146
1.66105
0.405254
0.418036
0.464372
0.536391
0.622276
0.716996
0.819733
0.93
1.04771
1.17305
1.3009
1.41327
1.50202
1.57175
1.62684
1.66903
1.69345
1.69807
1.68925
1.68165
0.386922
0.399825
0.446695
0.519244
0.605502
0.700569
0.803705
0.914224
1.03234
1.15819
1.28704
1.40102
1.49307
1.56662
1.62432
1.67103
1.69905
1.70855
1.67294
1.62344
0.369664
0.382994
0.429653
0.50272
0.589006
0.684184
0.787596
0.898187
1.01633
1.14222
1.27141
1.38617
1.48028
1.55815
1.61486
1.65485
1.68372
1.67394
1.61656
1.55181
0.351688
0.367587
0.413578
0.487355
0.573026
0.668215
0.771137
0.881947
0.999803
1.1253
1.25403
1.36864
1.46247
1.54747
1.59743
1.64585
1.62476
1.58595
1.51699
1.44758
0.364519
0.384801
0.434008
0.511845
0.60237
0.701314
0.809472
0.923218
1.044
1.17275
1.29499
1.39621
1.48204
1.57077
1.61503
1.54385
1.50062
1.43976
1.36722
1.31872
0.344786
0.358062
0.394745
0.463075
0.548335
0.642999
0.746007
0.856181
0.973102
1.09713
1.22362
1.33609
1.42554
1.50662
1.5753
1.57227
1.46032
1.37857
1.31653
1.23386
0.323579
0.337989
0.379687
0.449368
0.534948
0.629203
0.730998
0.840165
0.955993
1.07841
1.20283
1.31289
1.3991
1.46663
1.49439
1.42361
1.28518
1.19035
1.11544
1.02695
0.302184
0.314688
0.36051
0.43147
0.517166
0.611575
0.713289
0.822065
0.936879
1.05762
1.17897
1.28434
1.36357
1.41412
1.39256
1.26473
1.11324
0.99612
0.89835
0.763285
0.278825
0.291572
0.339435
0.411552
0.497525
0.591933
0.693489
0.801597
0.915174
1.03384
1.15159
1.25151
1.3227
1.35285
1.29382
1.11087
0.929565
0.77591
0.633082
0.442031
0.25625
0.268727
0.317771
0.390997
0.477454
0.571814
0.672966
0.780151
0.892243
1.00848
1.12221
1.21612
1.27842
1.27947
1.16819
0.964335
0.749858
0.548956
0.365459
-0.0384543
0.233652
0.245792
0.295361
0.369374
0.456239
0.550618
0.651355
0.757601
0.868098
0.981667
1.09105
1.17831
1.22991
1.19674
1.04279
0.833173
0.60739
0.396221
0.215684
-0.117147
0.210196
0.222181
0.271973
0.346459
0.433614
0.528014
0.628372
0.7337
0.842544
0.953275
1.05808
1.13816
1.17614
1.12276
0.928669
0.725058
0.513359
0.336059
0.263622
0.226151
0.185407
0.197241
0.247237
0.32197
0.409209
0.503469
0.603293
0.707475
0.814334
0.921732
1.02134
1.09344
1.11642
1.03096
0.825898
0.633463
0.455342
0.341218
0.305512
0.294355
0.159127
0.170906
0.221013
0.295903
0.383099
0.477054
0.576133
0.678914
0.78341
0.88696
0.980686
1.0445
1.04532
0.923986
0.731846
0.554075
0.404161
0.342418
0.33019
0.32522
0.131279
0.14282
0.193262
0.268269
0.355323
0.448802
0.54693
0.648022
0.749779
0.849018
0.936086
0.99131
0.965229
0.822296
0.642888
0.476678
0.36811
0.333483
0.338141
0.338222
0.10191
0.113425
0.164025
0.239138
0.325957
0.418805
0.51575
0.614872
0.713518
0.80794
0.887844
0.932355
0.887885
0.725058
0.561754
0.4128
0.361624
0.349883
0.34649
0.346273
0.0714089
0.0829585
0.13352
0.20872
0.295182
0.387224
0.482754
0.579619
0.674783
0.763896
0.836336
0.868552
0.814253
0.63741
0.488855
0.382999
0.334419
0.347063
0.350039
0.350502
0.0402665
0.0517927
0.102338
0.177357
0.263342
0.354372
0.448258
0.542571
0.633915
0.717316
0.781926
0.804055
0.725829
0.554326
0.424489
0.357938
0.351062
0.349941
0.351652
0.352576
0.00932804
0.0206072
0.0711518