/*--------------------------------*- C++ -*----------------------------------*\
| =========                 |                                                 |
| \\      /  F ield         | OpenFOAM: The Open Source CFD Toolbox           |
|  \\    /   O peration     | Version:  2306                                  |
|   \\  /    A nd           | Website:  www.openfoam.com                      |
|    \\/     M anipulation  |                                                 |
\*---------------------------------------------------------------------------*/
FoamFile
{
    version     2.0;
    format      ascii;
    arch        "LSB;label=32;scalar=64";
    class       surfaceScalarField;
    location    "31";
    object      phi;
}
// * * * * * * * * * * * * * * * * * * * * * * * * * * * * * * * * * * * * * //

dimensions      [0 3 -1 0 0 0 0];

oriented        oriented;

internalField   nonuniform List<scalar> 
17370
(
-0.0910991
0.0935436
0.286566
-0.0749517
0.0569505
0.364777
-0.0409326
0.0299478
0.427153
-0.0211905
0.0155869
0.504855
-0.0113319
0.00862686
0.602107
-0.006489
0.00503477
0.720512
-0.00382048
0.00295893
0.863768
-0.00220633
0.00164567
1.03601
-0.00113062
0.000721003
1.24291
-0.00031604
-7.22906e-05
1.49158
0.000455121
-0.000862513
1.4916
0.00126601
-0.00177097
1.2432
0.00232163
-0.00306365
1.03638
0.00391646
-0.00512208
0.864112
0.00656865
-0.00869808
0.721187
0.0113954
-0.015642
0.603461
0.0212381
-0.0299871
0.508188
0.0409642
-0.0569747
0.432179
0.0749705
-0.0935548
0.36536
0.09111
0.197901
-0.127343
0.0881393
0.0392042
-0.364733
0.353783
-0.0726346
0.0835849
-0.446564
0.454364
-0.0817194
0.0739196
-0.520967
0.529522
-0.06581
0.0572549
-0.612844
0.621014
-0.0495015
0.0413321
-0.726995
0.733785
-0.0344016
0.0276119
-0.867513
0.872436
-0.022274
0.0173504
-1.03855
1.04188
-0.0136481
0.0103173
-1.24471
1.2471
-0.00778096
0.00538796
-1.49283
1.49483
-0.00343624
0.00143861
-1.49268
1.49449
0.000368802
-0.0021741
-1.2441
1.24602
0.00414569
-0.00606403
-1.0376
1.0401
0.0084155
-0.0109117
-0.866163
0.869825
0.0141977
-0.0178598
-0.724486
0.729785
0.0227405
-0.0280399
-0.608893
0.615786
0.0347882
-0.041682
-0.514992
0.522711
0.0498127
-0.0575316
-0.439772
0.447846
0.0660474
-0.0741218
-0.375165
0.377004
0.0818783
-0.0837168
-0.25693
0.223444
0.0727251
-0.0392389
-0.0686421
0.0589111
0.00973104
-0.0520859
0.0587889
-0.374532
0.367829
-0.0579055
0.0540808
-0.453821
0.457645
-0.0487221
0.0443813
-0.52773
0.532071
-0.0401545
0.0363687
-0.621088
0.624874
-0.032144
0.0280803
-0.734863
0.738927
-0.0236292
0.0196652
-0.874037
0.878001
-0.0155658
0.0120812
-1.04338
1.04687
-0.0085449
0.00550375
-1.24864
1.25168
-0.00229211
-0.000691284
-1.49692
1.4999
0.0036588
-0.00682505
-1.49742
1.50058
0.00980262
-0.0132605
-1.2501
1.25356
0.0166696
-0.0206841
-1.04574
1.04975
0.0245726
-0.0289438
-0.877339
0.88171
0.0329353
-0.0370822
-0.739336
0.743483
0.0408006
-0.04496
-0.626365
0.630525
0.0492451
-0.0545501
-0.534957
0.540262
0.0583176
-0.0591302
-0.457943
0.458756
0.0523419
-0.0319993
-0.336435
0.316092
0.00977404
-0.0685279
0.0587539
-0.0531494
0.0490984
0.00405106
-0.03318
0.0436797
-0.358349
0.347849
-0.0474022
0.046819
-0.459492
0.460075
-0.0438442
0.040575
-0.536001
0.53927
-0.0368651
0.0335329
-0.628416
0.631748
-0.0299777
0.0268443
-0.742229
0.745363
-0.0235209
0.0203842
-0.88154
0.884677
-0.0168244
0.0134778
-1.05035
1.05369
-0.00977901
0.00637377
-1.25497
1.25837
-0.00258277
-0.00103847
-1.50327
1.50689
0.0046349
-0.00835304
-1.50411
1.50783
0.0116653
-0.0152466
-1.25717
1.26075
0.0184791
-0.0219113
-1.05352
1.05695
0.0249356
-0.0281423
-0.885331
0.888538
0.0311729
-0.0346187
-0.746991
0.750437
0.0378554
-0.0414677
-0.634553
0.638165
0.0446548
-0.0475389
-0.544503
0.547387
0.0480286
-0.044176
-0.456945
0.453092
0.033523
-0.0162126
-0.29676
0.27945
0.00410307
-0.052947
0.0488439
-0.0459742
0.0434486
0.00252554
-0.0229305
0.0333017
-0.337199
0.326828
-0.039088
0.040078
-0.459772
0.458782
-0.0388662
0.0365717
-0.541923
0.544218
-0.0339351
0.0313782
-0.63472
0.637277
-0.0283847
0.0255515
-0.748412
0.751245
-0.0223614
0.0194159
-0.887678
0.890623
-0.0161523
0.0130901
-1.05685
1.05991
-0.00959429
0.0062313
-1.26176
1.26513
-0.00234743
-0.00143666
-1.51063
1.51442
0.00518806
-0.00897083
-1.51163
1.51541
0.0122019
-0.015533
-1.26421
1.26754
0.0184372
-0.0215263
-1.06013
1.06321
0.0243197
-0.0273531
-0.891694
0.894727
0.0300486
-0.0328954
-0.753644
0.756491
0.0353231
-0.0378287
-0.641185
0.643691
0.0400144
-0.0410868
-0.549223
0.550296
0.0399534
-0.0339605
-0.447937
0.441944
0.0233667
-0.0102224
-0.264329
0.251185
0.00258938
-0.0456639
0.0430745
-0.0413493
0.0395642
0.00178513
-0.0168481
0.0261221
-0.316954
0.30768
-0.0327351
0.0348769
-0.457184
0.455042
-0.0344617
0.0327862
-0.546202
0.547878
-0.0305903
0.0284941
-0.63955
0.641646
-0.0260931
0.0237539
-0.75384
0.756179
-0.0209886
0.0182964
-0.893464
0.896156
-0.0151736
0.0121985
-1.0629
1.06588
-0.00879897
0.0055481
-1.2684
1.27165
-0.00178192
-0.0018996
-1.51816
1.52184
0.00553898
-0.00917833
-1.51914
1.52278
0.0122594
-0.0154428
-1.27079
1.27397
0.018207
-0.0210972
-1.06623
1.06912
0.0235878
-0.0261479
-0.897533
0.900093
0.0283117
-0.0305283
-0.758968
0.761184
0.0324607
-0.0344863
-0.645916
0.647941
0.0360038
-0.0362286
-0.550889
0.551114
0.0338688
-0.0269578
-0.435399
0.428488
0.0173879
-0.00734005
-0.239734
0.229686
0.00186278
-0.0409075
0.0390447
-0.0380266
0.0366872
0.00133941
-0.0128469
0.0208126
-0.299059
0.291093
-0.0275749
0.0305099
-0.452461
0.449526
-0.0307378
0.0296399
-0.549276
0.550373
-0.0276737
0.0257849
-0.643646
0.645534
-0.0236291
0.0215537
-0.758381
0.760456
-0.0191315
0.0167412
-0.898685
0.901075
-0.0139005
0.0111143
-1.06874
1.07152
-0.00786331
0.00472755
-1.27481
1.27795
-0.00108952
-0.00245109
-1.52543
1.52897
0.00593699
-0.00941442
-1.52636
1.52983
0.0123363
-0.0153075
-1.27709
1.28006
0.0178183
-0.0203554
-1.07185
1.07439
0.0224877
-0.0246536
-0.90241
0.904576
0.0265096
-0.0284358
-0.763223
0.765149
0.0301201
-0.0318794
-0.649821
0.65158
0.0327479
-0.0322556
-0.550982
0.550489
0.029013
-0.0218481
-0.421391
0.414226
0.0135067
-0.00562398
-0.220822
0.212939
0.00143362
-0.0374248
0.0359912
-0.0355176
0.0344909
0.00102668
-0.00999167
0.0167037
-0.283773
0.277061
-0.0231851
0.0265648
-0.446339
0.442959
-0.0273611
0.0266862
-0.551232
0.551907
-0.0249501
0.0232018
-0.647368
0.649116
-0.0212017
0.019281
-0.762479
0.764399
-0.0170405
0.0148398
-0.903346
0.905547
-0.0122431
0.00968711
-1.07413
1.07669
-0.00667242
0.00371953
-1.28096
1.28391
-0.000258724
-0.00311421
-1.53241
1.53579
0.00642272
-0.00968461
-1.53323
1.53649
0.012371
-0.0150375
-1.2829
1.28557
0.0172502
-0.0194635
-1.07675
1.07897
0.0213344
-0.0232505
-0.906583
0.908499
0.0248983
-0.0266139
-0.766944
0.768659
0.0281091
-0.0295631
-0.653222
0.654676
0.0299485
-0.0287787
-0.549677
0.548507
0.0249795
-0.0179743
-0.407115
0.40011
0.0107953
-0.0044604
-0.205901
0.199566
0.00114123
-0.0347219
0.0335807
-0.0335901
0.0327971
0.000792984
-0.00784702
0.0134467
-0.270927
0.265327
-0.0194115
0.0229779
-0.439462
0.435896
-0.0242602
0.0238511
-0.55246
0.552869
-0.0224122
0.0208009
-0.650823
0.652435
-0.0189285
0.0171254
-0.766297
0.7681
-0.0150109
0.0129245
-0.907666
0.909753
-0.0104594
0.00804602
-1.07911
1.08152
-0.00522152
0.00246584
-1.28672
1.28948
0.000757944
-0.00390882
-1.53902
1.54217
0.00698147
-0.00997095
-1.53962
1.54261
0.0124066
-0.0148056
-1.28812
1.29052
0.0167928
-0.0187773
-1.08108
1.08307
0.0204428
-0.0221433
-0.910287
0.911987
0.0236095
-0.0251351
-0.77025
0.771776
0.0264321
-0.0275066
-0.655948
0.657023
0.0275351
-0.025749
-0.54704
0.545254
0.0216294
-0.0150004
-0.393286
0.386657
0.00882603
-0.00362898
-0.193851
0.188654
0.000932617
-0.032559
0.0316264
-0.0321023
0.0314942
0.000608095
-0.00615522
0.0107804
-0.260235
0.25561
-0.0160956
0.0196247
-0.432331
0.428802
-0.0212161
0.0210428
-0.553161
0.553334
-0.0198636
0.0183527
-0.654012
0.655523
-0.0165836
0.0148732
-0.769899
0.77161
-0.012864
0.010882
-0.911759
0.913741
-0.00854362
0.00626316
-1.0838
1.08609
-0.0036017
0.0010192
-1.2921
1.29468
0.00198378
-0.00489214
-1.54518
1.54809
0.00770253
-0.0104139
-1.54546
1.54817
0.012601
-0.0147345
-1.29282
1.29495
0.0164851
-0.018224
-1.08496
1.0867
0.019681
-0.0211652
-0.91357
0.915055
0.0224482
-0.0237914
-0.773162
0.774505
0.0249352
-0.0256374
-0.657908
0.65861
0.0253195
-0.0230644
-0.543252
0.540997
0.0188221
-0.0126769
-0.380284
0.374139
0.00734778
-0.00301281
-0.183929
0.179594
0.000778482
-0.030785
0.0300065
-0.0309659
0.0305089
0.000457025
-0.00475965
0.00851949
-0.251434
0.247674
-0.0131223
0.016454
-0.425363
0.422031
-0.0182064
0.0182269
-0.553423
0.553402
-0.0172596
0.0158176
-0.657042
0.658484
-0.014119
0.0124796
-0.773325
0.774964
-0.0105615
0.00867886
-0.915619
0.917502
-0.00646495
0.00431006
-1.08822
1.09038
-0.00179906
-0.00062578
-1.29714
1.29956
0.00342614
-0.0060997
-1.55085
1.55352
0.00865426
-0.0110943
-1.55075
1.55319
0.0130362
-0.0149055
-1.29699
1.29886
0.0164148
-0.0178901
-1.08833
1.08981
0.0191179
-0.0203653
-0.916415
0.917663
0.0214515
-0.0226115
-0.775706
0.776866
0.0235879
-0.0239385
-0.659121
0.659472
0.023288
-0.0206815
-0.538599
0.535992
0.0164526
-0.0108284
-0.368277
0.362653
0.00621123
-0.00254844
-0.175632
0.171969
0.000664721
-0.0292992
0.0286345
-0.0301216
0.0297957
0.000325876
-0.00354746
0.00651718
-0.244322
0.241352
-0.0103714
0.0133837
-0.418857
0.415845
-0.0151795
0.0153824
-0.553313
0.55311
-0.0145675
0.0132703
-0.659913
0.661211
-0.0116547
0.0100711
-0.776607
0.77819
-0.00820084
0.00636014
-0.919289
0.92113
-0.0042089
0.00213407
-1.09241
1.09449
0.000251424
-0.00253667
-1.30186
1.30415
0.00513834
-0.00758914
-1.55605
1.5585
0.00989016
-0.0120453
-1.55548
1.55764
0.0137289
-0.0153156
-1.30064
1.30223
0.0165762
-0.0177989
-1.09121
1.09243
0.0188064
-0.0198349
-0.918804
0.919832
0.020746
-0.021707
-0.777863
0.778824
0.0224026
-0.0224638
-0.659681
0.659742
0.0214621
-0.0185809
-0.533286
0.530405
0.0144495
-0.00934144
-0.357318
0.35221
0.00532466
-0.00219488
-0.168607
0.165477
0.000581078
-0.0280275
0.0274464
-0.0295356
0.0293324
0.000203196
-0.00243306
0.00465456
-0.238767
0.236546
-0.00772435
0.0102969
-0.413058
0.410486
-0.0119893
0.0122927
-0.55288
0.552577
-0.011592
0.0104276
-0.662504
0.663669
-0.00888165
0.0073303
-0.779783
0.781334
-0.00548888
0.00369001
-0.922856
0.924655
-0.00161186
-0.000369545
-1.09642
1.0984
0.00263501
-0.00477687
-1.3063
1.30844
0.00719188
-0.00943559
-1.56082
1.56306
0.0114925
-0.0133541
-1.55966
1.56152
0.0147555
-0.0160291
-1.30372
1.305
0.0170208
-0.0179622
-1.09359
1.09453
0.0187318
-0.0195143
-0.920747
0.921529
0.020208
-0.0209024
-0.779553
0.780247
0.0212966
-0.0210624
-0.65963
0.659395
0.0197127
-0.0166556
-0.527478
0.524421
0.0127019
-0.00810317
-0.347399
0.3428
0.00460772
-0.00191628
-0.162605
0.159914
0.00051727
-0.0269161
0.0263989
-0.0291909
0.0291068
8.40907e-05
-0.00137458
0.00287677
-0.234701
0.233198
-0.00514436
0.00719162
-0.408197
0.40615
-0.00864649
0.00893812
-0.552325
0.552034
-0.00828293
0.00719267
-0.664884
0.665975
-0.00570528
0.00420499
-0.782877
0.784377
-0.00242601
0.00069034
-0.926301
0.928037
0.00132293
-0.00324022
-1.10023
1.10215
0.0054169
-0.00744864
-1.31044
1.31247
0.00968932
-0.0117016
-1.56514
1.56715
0.0134921
-0.0150523
-1.56322
1.56478
0.0161585
-0.0171069
-1.30617
1.30712
0.0177889
-0.0184016
-1.09535
1.09596
0.0188832
-0.0193345
-0.922173
0.922624
0.0197183
-0.0201488
-0.780753
0.781184
0.0202275
-0.0197053
-0.658953
0.658431
0.0181024
-0.0149533
-0.521379
0.51823
0.0112146
-0.00709038
-0.338497
0.334373
0.00404027
-0.00170471
-0.157444
0.155108
0.00047219
-0.0259249
0.0254528
-0.029082
0.0291169
-3.48186e-05
-0.000292932
0.00108674
-0.232065
0.231271
-0.00254854
0.00403343
-0.404413
0.402928
-0.00520498
0.0054658
-0.551837
0.551577
-0.00487562
0.00387129
-0.667142
0.668146
-0.00244141
0.000959132
-0.785857
0.787339
0.000822683
-0.00256202
-0.929613
0.931352
0.00456561
-0.00646437
-1.10392
1.10582
0.008598
-0.0105603
-1.31439
1.31635
0.012677
-0.0145255
-1.56903
1.57088
0.0160874
-0.0173651
-1.5662
1.56748
0.0181976
-0.0188172
-1.308
1.30862
0.019199
-0.0194612
-1.09645
1.09671
0.0196182
-0.0197599
-0.922914
0.923056
0.0198417
-0.0199008
-0.781348
0.781407
0.0196724
-0.0188008
-0.657647
0.656776
0.0168694
-0.0135838
-0.5151
0.511814
0.010022
-0.00629798
-0.330518
0.326794
0.00360985
-0.00155239
-0.152961
0.150904
0.000443805
-0.0250189
0.0245751
-0.029223
0.0294014
-0.000178442
0.000722288
-0.000656032
-0.230853
0.230787
3.12948e-05
0.00082059
-0.401806
0.400955
-0.00159651
0.00174883
-0.551474
0.551322
-0.00119137
0.000233125
-0.669247
0.670205
0.0011876
-0.00271132
-0.7888
0.790324
0.00456588
-0.00637424
-0.932947
0.934755
0.00843978
-0.0103676
-1.10759
1.10951
0.0124909
-0.0143925
-1.31818
1.32008
0.0163736
-0.0180194
-1.57257
1.57421
0.019313
-0.0202432
-1.56858
1.56951
0.0207359
-0.020997
-1.30913
1.30939
0.0210566
-0.0209931
-1.09688
1.09682
0.0208491
-0.0206424
-0.923036
0.922829
0.0204263
-0.0201516
-0.781185
0.78091
0.0195386
-0.0181481
-0.655567
0.654177
0.015904
-0.0125334
-0.508605
0.505234
0.00914931
-0.00575345
-0.323339
0.319943
0.0033288
-0.00145326
-0.14901
0.147134
0.000422069
-0.024173
0.023751
-0.0296408
0.0299341
-0.00029323
0.00168736
-0.00223001
-0.231009
0.231551
0.0024319
-0.0022688
-0.400525
0.400362
0.00203602
-0.00214984
-0.551465
0.551579
0.00281072
-0.00384534
-0.671328
0.672363
0.00535381
-0.00697438
-0.791813
0.793434
0.00893925
-0.0108308
-0.936395
0.938287
0.0129619
-0.0149253
-1.11129
1.11326
0.0170606
-0.0189433
-1.32185
1.32373
0.0208535
-0.0223517
-1.57571
1.57721
0.0234138
-0.0240417
-1.57029
1.57091
0.0242072
-0.0240684
-1.30953
1.30939
0.023754
-0.0232771
-1.09658
1.0961
0.0227778
-0.0222009
-0.922382
0.921806
0.0216861
-0.0210318
-0.780263
0.779608
0.0200116
-0.0182168
-0.652622
0.650827
0.0157251
-0.0122652
-0.501996
0.498536
0.00896076
-0.00570664
-0.31675
0.313496
0.00335537
-0.0014866
-0.145347
0.143478
0.000435258
-0.0233603
0.0229251
-0.0303032
0.0307276
-0.00042438
0.00257211
-0.00369685
-0.232411
0.233535
0.00464785
-0.00519803
-0.400616
0.401167
0.00558584
-0.0060652
-0.55213
0.552609
0.00695294
-0.00818381
-0.673649
0.67488
0.00989887
-0.0117
-0.795016
0.796817
0.0138458
-0.0158913
-0.940005
0.942051
0.018187
-0.0202912
-1.11509
1.11719
0.0225468
-0.0244806
-1.3255
1.32743
0.0263504
-0.027699
-1.57855
1.5799
0.0285194
-0.0288142
-1.57134
1.57164
0.0286743
-0.0281615
-1.3091
1.30859
0.0274808
-0.0265953
-1.09541
1.09452
0.0257221
-0.0247609
-0.920965
0.920004
0.0238941
-0.0228457
-0.778576
0.777527
0.0214812
-0.0192938
-0.648942
0.646755
0.0165192
-0.0128743
-0.495211
0.491566
0.00949683
-0.00616585
-0.310365
0.307034
0.00368837
-0.00165303
-0.141626
0.13959
0.000485445
-0.02251
0.0220245
-0.0312262
0.0317896
-0.000563393
0.0035079
-0.0052033
-0.234975
0.236671
0.00687759
-0.00809688
-0.402055
0.403274
0.0091108
-0.00999631
-0.553621
0.554507
0.0111696
-0.0126453
-0.676414
0.67789
0.0146488
-0.0167253
-0.79857
0.800646
0.0191877
-0.0215339
-0.943965
0.946311
0.0241631
-0.0265523
-1.11922
1.12161
0.0290675
-0.0311612
-1.32929
1.33138
0.0330867
-0.0343602
-1.5811
1.58238
0.0349886
-0.0349776
-1.57173
1.57171
0.0345002
-0.0336083
-1.30789
1.307
0.032566
-0.0312645
-1.0934
1.0921
0.0300137
-0.0286496
-0.918721
0.917357
0.0274162
-0.0259141
-0.776066
0.774564
0.0241165
-0.0214582
-0.644493
0.641835
0.0183137
-0.0143532
-0.488044
0.484083
0.0107243
-0.00707768
-0.303746
0.300099
0.00428163
-0.00193046
-0.137509
0.135158
0.000567385
-0.0215483
0.020981
-0.0324335
0.0331767
-0.000743162
0.00465911
-0.00700761
-0.23871
0.241059
0.00947867
-0.0114272
-0.404893
0.406841
0.0131609
-0.0145491
-0.556019
0.557408
0.0161212
-0.0179256
-0.679707
0.681511
0.0203331
-0.022823
-0.802689
0.805179
0.0257641
-0.0285433
-0.948577
0.951356
0.031614
-0.0343481
-1.12395
1.12669
0.037159
-0.0394238
-1.3334
1.33567
0.0414111
-0.0425975
-1.58351
1.58469
0.0429868
-0.0426033
-1.57148
1.57109
0.0417268
-0.0403651
-1.30583
1.30447
0.0388771
-0.0371183
-1.0905
1.08874
0.035465
-0.0336589
-0.915606
0.9138
0.032018
-0.029962
-0.772636
0.77058
0.0276966
-0.0245292
-0.639104
0.635937
0.0209653
-0.0165742
-0.480236
0.475845
0.0125065
-0.00832471
-0.29643
0.292248
0.00505734
-0.00228389
-0.132724
0.12995
0.00067117
-0.0204169
0.0197457
-0.0340039
0.0349937
-0.000989713
0.00618242
-0.0093382
-0.243775
0.246931
0.012747
-0.0155481
-0.409334
0.412135
0.018135
-0.0202286
-0.559629
0.561722
0.0224616
-0.0248341
-0.683785
0.686158
0.0278723
-0.0309351
-0.807654
0.810716
0.0344686
-0.037742
-0.954058
0.957331
0.0412798
-0.0443532
-1.12934
1.13241
0.0474168
-0.0497927
-1.33781
1.34018
0.0517412
-0.0527006
-1.58566
1.58662
0.0527049
-0.0517878
-1.57039
1.56948
0.0503672
-0.0484048
-1.30277
1.30081
0.0464106
-0.0441014
-1.08658
1.08427
0.0419569
-0.0396466
-0.911514
0.909204
0.0375448
-0.0349582
-0.768093
0.765507
0.0322337
-0.0285446
-0.632717
0.629027
0.0244726
-0.0194405
-0.471544
0.466512
0.0147102
-0.00979591
-0.287997
0.283083
0.00594688
-0.00268303
-0.127083
0.12382
0.000787543
-0.0190776
0.0182901
-0.036067
0.0374127
-0.00134574
0.00830428
-0.0125189
-0.250475
0.254689
0.0170632
-0.0208237
-0.415628
0.419389
0.0243784
-0.0273168
-0.564885
0.567823
0.0304542
-0.0336518
-0.689165
0.692363
0.0375511
-0.0413328
-0.813785
0.817566
0.0455849
-0.0494316
-0.960525
0.964372
0.053496
-0.0569353
-1.13539
1.13883
0.0602498
-0.0626873
-1.34239
1.34482
0.0644821
-0.0650821
-1.58726
1.58786
0.0645368
-0.062916
-1.56814
1.56651
0.0607997
-0.0580663
-1.29841
1.29567
0.0553808
-0.052418
-1.08151
1.07855
0.0498011
-0.0470273
-0.906354
0.903581
0.0445109
-0.0414513
-0.762474
0.759414
0.0382302
-0.0338788
-0.625266
0.620914
0.0290165
-0.0229696
-0.461476
0.455429
0.0173026
-0.0114764
-0.278069
0.272243
0.00695015
-0.00312801
-0.120467
0.116645
0.000914803
-0.0175129
0.0165981
-0.0388217
0.0406888
-0.00186704
0.0113392
-0.0169835
-0.259281
0.264925
0.0229362
-0.0277681
-0.424094
0.428926
0.0322976
-0.0361177
-0.572102
0.575922
0.0402671
-0.0444202
-0.696281
0.700435
0.0493433
-0.0540013
-0.821383
0.826041
0.0591154
-0.0636537
-0.96816
0.972699
0.068356
-0.072248
-1.14217
1.14606
0.0758839
-0.0784099
-1.34706
1.34959
0.0800604
-0.0803051
-1.5881
1.58834
0.0792367
-0.0769382
-1.56444
1.56214
0.0741583
-0.0706628
-1.29247
1.28897
0.0672493
-0.0634776
-1.07499
1.07121
0.0601425
-0.0567166
-0.900137
0.896712
0.0536936
-0.0500574
-0.755834
0.752197
0.0460773
-0.0405744
-0.616313
0.61081
0.0344632
-0.0270342
-0.44928
0.441851
0.0202466
-0.0133845
-0.266347
0.259485
0.00808373
-0.00362148
-0.11274
0.108277
0.0010515
-0.0156996
0.0146481
-0.0425787
0.0452697
-0.00269095
0.0159251
-0.0235526
-0.270921
0.278549
0.0313295
-0.0374637
-0.435208
0.441342
0.0430896
-0.047831
-0.581413
0.586155
0.0530326
-0.0582037
-0.705307
0.710478
0.0642135
-0.069781
-0.830708
0.836276
0.0758082
-0.0810866
-0.977182
0.982461
0.0864703
-0.0908386
-1.14984
1.15421
0.0947944
-0.0974202
-1.3519
1.35452
0.0989535
-0.0988762
-1.58823
1.58815
0.0973431
-0.0944542
-1.55942
1.55653
0.0910831
-0.0869042
-1.28505
1.28087
0.0828499
-0.0783321
-1.06686
1.06234
0.0742667
-0.0699421
-0.892417
0.888093
0.0658898
-0.0610767
-0.747697
0.742884
0.0556408
-0.0483495
-0.604693
0.597401
0.0406329
-0.0316564
-0.434306
0.42533
0.0236506
-0.015608
-0.252624
0.244581
0.00939011
-0.00417377
-0.103749
0.0985322
0.00119798
-0.013623
0.012425
-0.0478956
0.0520159
-0.00412033
0.0232825
-0.0337329
-0.286592
0.297042
0.0440174
-0.0520258
-0.449923
0.457931
0.0590965
-0.0648984
-0.59305
0.598852
0.071258
-0.0774825
-0.716292
0.722516
0.0845099
-0.0908967
-0.841751
0.848138
0.0977174
-0.103586
-0.987614
0.993482
0.109442
-0.114049
-1.15836
1.16297
0.118052
-0.12054
-1.35681
1.3593
0.121699
-0.121069
-1.58761
1.58698
0.118852
-0.115189
-1.55314
1.54948
0.111101
-0.106121
-1.27622
1.27124
0.101313
-0.0959054
-1.05718
1.05178
0.0909185
-0.0853407
-0.88263
0.877052
0.0798696
-0.0731842
-0.736598
0.729912
0.0659423
-0.0567413
-0.589278
0.580077
0.047478
-0.0369944
-0.416375
0.405891
0.0276512
-0.0181897
-0.236644
0.227183
0.0108552
-0.00475885
-0.093306
0.0872096
0.00134046
-0.011273
0.0099325
-0.0558425
0.0630091
-0.00716661
0.0366036
-0.0513372
-0.308485
0.323219
0.0652444
-0.0758044
-0.469821
0.480381
0.0844935
-0.0914279
-0.607398
0.614333
0.0990703
-0.106231
-0.729132
0.736293
0.113978
-0.120791
-0.854234
0.861047
0.127869
-0.133764
-0.998979
1.00487
0.139423
-0.143618
-1.16705
1.17124
0.146971
-0.148647
-1.36112
1.3628
0.148735
-0.146924
-1.58557
1.58376
0.143469
-0.138539
-1.54506
1.54013
0.133338
-0.127159
-1.2656
1.25942
0.121234
-0.114557
-1.04554
1.03887
0.10829
-0.101136
-0.870047
0.862893
0.0941016
-0.0856198
-0.721456
0.712974
0.0768146
-0.0660533
-0.570025
0.559264
0.0554229
-0.0433545
-0.395491
0.383422
0.0324046
-0.0212179
-0.217965
0.206778
0.0125259
-0.00539113
-0.0812745
0.0741398
0.00147507
-0.00867666
0.00720159
-0.0697621
0.0735629
-0.00380086
0.0273084
-0.040053
-0.340597
0.353342
0.0524559
-0.0619524
-0.496135
0.505631
0.0703614
-0.0786395
-0.624497
0.632775
0.0881152
-0.0966229
-0.743061
0.751569
0.106401
-0.11534
-0.867034
0.875973
0.125005
-0.133655
-1.00985
1.0185
0.142683
-0.150353
-1.17438
1.18205
0.157818
-0.163507
-1.36332
1.36901
0.168037
-0.170133
-1.58071
1.58281
0.169639
-0.166932
-1.53405
1.53134
0.162742
-0.156619
-1.25227
1.24614
0.150068
-0.141452
-1.03114
1.02252
0.132949
-0.122803
-0.854161
0.844015
0.112832
-0.101141
-0.702572
0.690881
0.0891936
-0.0750809
-0.54758
0.533467
0.0615968
-0.0462974
-0.371157
0.355858
0.0329038
-0.0200105
-0.195815
0.182922
0.0108238
-0.00418873
-0.067677
0.0610419
0.000973421
-0.00594738
0.00497396
-0.08069
0.0784208
0.00226917
0.00561558
-0.0136753
-0.368915
0.376975
0.022947
-0.0298282
-0.519767
0.526648
0.0369548
-0.0441665
-0.64316
0.650372
0.0528666
-0.0609125
-0.759915
0.76796
0.0696853
-0.077908
-0.884432
0.892654
0.0867715
-0.0943715
-1.02686
1.03446
0.102482
-0.108995
-1.1895
1.19601
0.115232
-0.119599
-1.37427
1.37864
0.122325
-0.122706
-1.58377
1.58415
0.120413
-0.115793
-1.5273
1.52268
0.109716
-0.10169
-1.23887
1.23084
0.093511
-0.083649
-1.0128
1.00293
0.0739649
-0.0628402
-0.831801
0.820676
0.0527169
-0.0423696
-0.675603
0.665256
0.0335401
-0.0241662
-0.517337
0.507964
0.0161609
-0.00906387
-0.340022
0.332925
0.00441609
-0.00123847
-0.170382
0.167205
-0.000209127
0.000542196
-0.0545583
0.0542252
-0.000309146
-0.00372478
0.00403392
-0.0815165
0.078537
0.00297951
-0.00292975
-0.00144077
-0.387851
0.392222
0.00747255
-0.0127159
-0.537509
0.542752
0.0185143
-0.0248419
-0.659232
0.665559
0.0324014
-0.0394078
-0.775374
0.78238
0.0472523
-0.0544279
-0.900213
0.907388
0.0619059
-0.0686616
-1.04187
1.04862
0.0756378
-0.0812852
-1.20203
1.20768
0.0861724
-0.0892657
-1.38219
1.38528
0.0908885
-0.0900515
-1.58354
1.5827
0.0865881
-0.0808651
-1.51703
1.5113
0.07403
-0.0656081
-1.22226
1.21384
0.0569749
-0.0472169
-0.992392
0.982634
0.0379838
-0.0277868
-0.80929
0.799093
0.0189934
-0.0102528
-0.652895
0.644155
0.00348901
0.00293735
-0.496619
0.490192
-0.00713081
0.00909872
-0.323746
0.321778
-0.00891187
0.00727477
-0.161963
0.163601
-0.00511384
0.00263107
-0.0530426
0.0555254
-0.00088044
-0.00382155
0.00470199
-0.0800411
0.0772456
0.00279551
-0.00598711
0.00400423
-0.400297
0.40228
-0.0004233
-0.0037076
-0.551063
0.555193
0.00898594
-0.0144142
-0.672645
0.678073
0.020965
-0.0270651
-0.789051
0.795152
0.0338305
-0.0400121
-0.914132
0.920314
0.0468081
-0.0525299
-1.05495
1.06067
0.0585991
-0.0630329
-1.21288
1.21731
0.0670924
-0.0694803
-1.38806
1.39044
0.0702434
-0.0685488
-1.58127
1.57957
0.0647982
-0.0590088
-1.5049
1.49911
0.0522963
-0.043902
-1.20515
1.19675
0.0358623
-0.0269585
-0.972607
0.963703
0.0185448
-0.00969962
-0.788729
0.779884
0.00183111
0.00552639
-0.633586
0.626229
-0.0109698
0.0152287
-0.481783
0.477525
-0.0170111
0.0162806
-0.316314
0.317045
-0.0138383
0.0101983
-0.16296
0.1666
-0.00684147
0.00333188
-0.0568664
0.060376
-0.00105267
-0.00501882
0.00607149
-0.0784755
0.0760905
0.00238498
-0.0066565
0.00605304
-0.408627
0.40923
-0.00335095
0.000389147
-0.562356
0.565317
0.00415631
-0.00923449
-0.684111
0.689189
0.014841
-0.0203058
-0.80081
0.806274
0.0262405
-0.0316592
-0.926153
0.931572
0.0375248
-0.0426384
-1.06628
1.07139
0.0477797
-0.0518386
-1.2216
1.22566
0.0552738
-0.0571897
-1.39244
1.39436
0.0575725
-0.0556986
-1.57767
1.5758
0.0519909
-0.0463047
-1.49268
1.48699
0.0400812
-0.0325716
-1.18848
1.18097
0.0253715
-0.017345
-0.954711
0.946685
0.0100782
-0.00240356
-0.770841
0.763166
-0.00412853
0.0102698
-0.617666
0.611524
-0.0145598
0.0175359
-0.470643
0.467667
-0.0186729
0.0173119
-0.313718
0.315079
-0.0142651
0.0103789
-0.167643
0.171529
-0.00685073
0.00325367
-0.0624637
0.0660608
-0.00102401
-0.006574
0.00759801
-0.0771681
0.0751675
0.00200058
-0.0062658
0.00600926
-0.414431
0.414687
-0.00445074
0.00188367
-0.571154
0.573721
0.00257085
-0.00700073
-0.69409
0.69852
0.011937
-0.0167865
-0.811166
0.816015
0.0221552
-0.0270665
-0.936751
0.941662
0.0324947
-0.0370205
-1.07627
1.0808
0.0416866
-0.0453696
-1.22945
1.23313
0.0484181
-0.0500819
-1.39602
1.39768
0.0503111
-0.0488449
-1.57387
1.5724
0.045359
-0.0402952
-1.481
1.47593
0.0346546
-0.0279316
-1.17348
1.16675
0.0217844
-0.0146481
-0.938778
0.931642
0.00829944
-0.001787
-0.755482
0.74897
-0.00378264
0.00898892
-0.604513
0.599307
-0.0126152
0.0151805
-0.462195
0.45963
-0.0158299
0.0146911
-0.312831
0.31397
-0.0122561
0.00883254
-0.172667
0.17609
-0.0057498
0.00276317
-0.0678632
0.0708498
-0.000881442
-0.0080163
0.00889774
-0.0762666
0.0747323
0.00153433
-0.00524672
0.00520759
-0.418852
0.418891
-0.00378765
0.00174184
-0.579074
0.58112
0.00238102
-0.0064603
-0.702966
0.707046
0.0112664
-0.0155447
-0.820643
0.824921
0.0203567
-0.0247866
-0.94664
0.95107
0.0300084
-0.0341805
-1.0854
1.08957
0.0383903
-0.0419319
-1.23667
1.24021
0.045198
-0.0467991
-1.39939
1.40099
0.047222
-0.0459022
-1.5706
1.56928
0.0430922
-0.03835
-1.47079
1.46604
0.0334812
-0.0276624
-1.16005
1.15423
0.0221463
-0.0160975
-0.92474
0.918691
0.0105625
-0.00477846
-0.742311
0.736527
0.000203356
0.00433802
-0.593301
0.58876
-0.00754057
0.00961782
-0.454921
0.452844
-0.0103458
0.00982503
-0.3122
0.31272
-0.00813546
0.0057021
-0.176585
0.179019
-0.00364432
0.00177755
-0.0719048
0.0737716
-0.000595158
-0.00912907
0.00972422
-0.0758888
0.0747005
0.0011883
-0.00411289
0.00412893
-0.422473
0.422457
-0.0027046
0.000694774
-0.58616
0.58817
0.0032039
-0.00693196
-0.71112
0.714848
0.0111467
-0.0153542
-0.829278
0.833486
0.0198833
-0.0245125
-0.955398
0.960028
0.0290821
-0.0331245
-1.09388
1.09793
0.0375152
-0.040876
-1.24367
1.24703
0.043751
-0.0458473
-1.40254
1.40464
0.0465776
-0.0456973
-1.56807
1.56719
0.0432508
-0.0393252
-1.46157
1.45765
0.0350355
-0.0298545
-1.14824
1.14306
0.0250178
-0.0196312
-0.91264
0.907254
0.0147534
-0.00981608
-0.730854
0.725917
0.00551346
-0.00147854
-0.583569
0.579534
-0.00141932
0.00357711
-0.44878
0.446623
-0.00449147
0.00435399
-0.310626
0.310763
-0.00367911
0.00256891
-0.178462
0.179572
-0.00164531
0.000820671
-0.0738556
0.0746803
-0.000310401
-0.0096922
0.0100026
-0.0760353
0.0750514
0.000983955
-0.00283712
0.00262165
-0.425836
0.426051
-0.00135326
-0.000781764
-0.592709
0.594844
0.00439737
-0.00805358
-0.718851
0.722507
0.0121698
-0.01605
-0.8376
0.84148
0.0207604
-0.0246724
-0.964168
0.96808
0.0292631
-0.0331754
-1.10216
1.10608
0.0375052
-0.0411095
-1.25041
1.25402
0.0443349
-0.0462983
-1.40654
1.4085
0.0474694
-0.0470997
-1.56628
1.56591
0.0454043
-0.0419197
-1.45365
1.45017
0.0381785
-0.0335202
-1.13801
1.13335
0.0291802
-0.0242301
-0.901703
0.896753
0.0198831
-0.0152631
-0.720751
0.716131
0.0113197
-0.00749212
-0.574957
0.57113
0.00455284
-0.00237636
-0.442753
0.440577
0.00101456
-0.00046529
-0.30801
0.30746
0.000105378
1.79154e-05
-0.178081
0.177958
-9.96169e-05
0.000197427
-0.0738759
0.0737781
-0.000143517
-0.009737
0.00988052
-0.0764526
0.0757794
0.000673189
-0.00172618
0.00115251
-0.429372
0.429946
-0.000111548
-0.00239086
-0.598492
0.600994
0.00568468
-0.0092394
-0.726176
0.729731
0.0132325
-0.0172854
-0.845318
0.84937
0.0214493
-0.0255622
-0.97226
0.976373
0.0301608
-0.0339097
-1.11045
1.1142
0.0383753
-0.0419836
-1.25746
1.26107
0.0453283
-0.0478785
-1.4109
1.41345
0.0496123
-0.0496062
-1.56561
1.5656
0.0482336
-0.045514
-1.44687
1.44415
0.0423403
-0.0380608
-1.12857
1.12429
0.0339728
-0.0295468
-0.891712
0.887286
0.0251369
-0.0209144
-0.711228
0.707006
0.0171571
-0.0133496
-0.566978
0.56317
0.0104866
-0.0078932
-0.436616
0.434023
0.00612259
-0.00466041
-0.304319
0.302856
0.00346909
-0.00220336
-0.175685
0.174419
0.00110214
-0.000268402
-0.0722131
0.0713793
-4.04245e-05
-0.00932709
0.00936751
-0.0772644
0.0767444
0.000519977
-0.000801944
0.000337783
-0.433133
0.433597
0.00149933
-0.00374983
-0.604574
0.606825
0.00717011
-0.0106125
-0.733066
0.736508
0.0144868
-0.0181866
-0.853179
0.856879
0.0225128
-0.0263537
-0.980545
0.984386
0.0309385
-0.0351483
-1.11843
1.12264
0.0393008
-0.0432729
-1.26476
1.26873
0.0470836
-0.04978
-1.41594
1.41864
0.0519489
-0.0527741
-1.56584
1.56667
0.0518908
-0.0498132
-1.4413
1.43923
0.0468492
-0.042995
-1.12001
1.11615
0.0392626
-0.0349385
-0.882419
0.878094
0.0308302
-0.0266468
-0.702238
0.698054
0.0229367
-0.019017
-0.558908
0.554988
0.0158714
-0.0129622
-0.430066
0.427157
0.0104863
-0.00822776
-0.299132
0.296873
0.00617718
-0.00400483
-0.171331
0.169159
0.00222984
-0.000806292
-0.0692535
0.06783
0.00013138
-0.00867813
0.00854675
-0.0783224
0.0779832
0.000339214
0.000189376
-0.000953369
-0.436961
0.437725
0.0026219
-0.00513663
-0.61023
0.612745
0.00848157
-0.0117789
-0.739754
0.743052
0.015751
-0.019329
-0.860619
0.864197
0.0235328
-0.0275194
-0.988743
0.992729
0.0320388
-0.0362402
-1.12673
1.13094
0.0406408
-0.0446715
-1.27265
1.27668
0.0487069
-0.0521829
-1.42164
1.42512
0.0548425
-0.0560087
-1.56745
1.56862
0.0558435
-0.0541038
-1.43704
1.4353
0.0516754
-0.0482983
-1.11219
1.10881
0.0445732
-0.0403894
-0.873438
0.869255
0.0363774
-0.0320783
-0.693438
0.689139
0.0284109
-0.024324