/*--------------------------------*- C++ -*----------------------------------*\
| =========                 |                                                 |
| \\      /  F ield         | OpenFOAM: The Open Source CFD Toolbox           |
|  \\    /   O peration     | Version:  2306                                  |
|   \\  /    A nd           | Website:  www.openfoam.com                      |
|    \\/     M anipulation  |                                                 |
\*---------------------------------------------------------------------------*/
FoamFile
{
    version     2.0;
    format      ascii;
    arch        "LSB;label=32;scalar=64";
    class       volVectorField;
    location    "31";
    object      U;
}
// * * * * * * * * * * * * * * * * * * * * * * * * * * * * * * * * * * * * * //

dimensions      [0 1 -1 0 0 0 0];

internalField   nonuniform List<vector> 
8800
(
(0.984965 -0.0884521 0)
(1.00213 -0.0568225 0)
(0.999682 -0.0305552 0)
(1.00002 -0.0158579 0)
(1.00005 -0.00870812 0)
(1.00002 -0.005063 0)
(0.999993 -0.00298212 0)
(0.999984 -0.00169647 0)
(0.999982 -0.000816181 0)
(1.00006 -0.000124593 0)
(0.999989 0.00057776 0)
(1 0.00133732 0)
(1.00001 0.00236935 0)
(1.00002 0.00397327 0)
(1.00004 0.00668792 0)
(1.00005 0.0117214 0)
(0.999911 0.022043 0)
(0.999199 0.0411647 0)
(1.00746 0.0768948 0)
(0.773651 0.0450705 0)
(0.360994 -0.0151724 0)
(1.04555 -0.0742081 0)
(1.08712 -0.0679018 0)
(1.04778 -0.0523134 0)
(1.02457 -0.0384085 0)
(1.01232 -0.0261267 0)
(1.0064 -0.0167885 0)
(1.00354 -0.0102998 0)
(1.00213 -0.00568422 0)
(1.00149 -0.00210227 0)
(1.00137 0.00109906 0)
(1.00174 0.00441808 0)
(1.00271 0.00834118 0)
(1.0047 0.0137002 0)
(1.0088 0.0214416 0)
(1.01737 0.0322705 0)
(1.03453 0.0456259 0)
(1.06556 0.0597535 0)
(1.09411 0.072931 0)
(0.842276 0.0557039 0)
(0.217042 -0.00164685 0)
(1.07585 -0.0503698 0)
(1.09984 -0.048742 0)
(1.06464 -0.040196 0)
(1.0399 -0.0330317 0)
(1.02367 -0.025734 0)
(1.01389 -0.0183829 0)
(1.00843 -0.0117097 0)
(1.0056 -0.00594844 0)
(1.00445 -0.000662105 0)
(1.00479 0.00445415 0)
(1.00666 0.00978231 0)
(1.01057 0.0158451 0)
(1.01787 0.0227755 0)
(1.03053 0.030058 0)
(1.05072 0.037083 0)
(1.08048 0.0444479 0)
(1.10632 0.0516871 0)
(0.942995 0.0412943 0)
(0.216573 0.00166255 0)
(0.17585 -0.000646247 0)
(1.01862 -0.0354328 0)
(1.10556 -0.0414582 0)
(1.07808 -0.0363033 0)
(1.05275 -0.0302855 0)
(1.03543 -0.0245786 0)
(1.02341 -0.0188982 0)
(1.01551 -0.0129319 0)
(1.01088 -0.00684966 0)
(1.00887 -0.000631484 0)
(1.00944 0.00552055 0)
(1.01258 0.0114662 0)
(1.01862 0.017311 0)
(1.02835 0.0229209 0)
(1.04272 0.0283705 0)
(1.06349 0.0340565 0)
(1.09395 0.0400582 0)
(1.09436 0.0417338 0)
(0.829207 0.0227241 0)
(0.17506 0.000663281 0)
(0.154284 -0.00048788 0)
(0.957193 -0.0255723 0)
(1.10402 -0.0351277 0)
(1.08785 -0.0327023 0)
(1.06125 -0.0281686 0)
(1.04332 -0.0232019 0)
(1.03092 -0.0180103 0)
(1.02225 -0.0125932 0)
(1.01665 -0.00676693 0)
(1.01401 -0.000367234 0)
(1.01472 0.00606172 0)
(1.01861 0.0119172 0)
(1.02551 0.017232 0)
(1.03573 0.0222363 0)
(1.05045 0.0270912 0)
(1.07217 0.0316088 0)
(1.10095 0.035535 0)
(1.06956 0.0337542 0)
(0.741984 0.0142743 0)
(0.153099 0.000507025 0)
(0.139746 -0.000359066 0)
(0.900178 -0.0192125 0)
(1.09632 -0.030167 0)
(1.09591 -0.0293084 0)
(1.06881 -0.0255793 0)
(1.05006 -0.0215285 0)
(1.03712 -0.0169134 0)
(1.02813 -0.0117783 0)
(1.02218 -0.00617033 0)
(1.01922 6.67852e-05 0)
(1.01992 0.00634136 0)
(1.02404 0.0119322 0)
(1.03114 0.0169177 0)
(1.04169 0.0214368 0)
(1.05706 0.0254484 0)
(1.0797 0.0289859 0)
(1.10335 0.0317203 0)
(1.03799 0.0278009 0)
(0.675866 0.0101224 0)
(0.13808 0.000381563 0)
(0.129099 -0.000274218 0)
(0.850426 -0.0148107 0)
(1.08385 -0.0260221 0)
(1.10147 -0.0263836 0)
(1.07551 -0.0231297 0)
(1.05625 -0.01957 0)
(1.04288 -0.0155059 0)
(1.03352 -0.0107666 0)
(1.02731 -0.00540376 0)
(1.02416 0.000604044 0)
(1.02478 0.00661628 0)
(1.02892 0.0119039 0)
(1.0362 0.0164695 0)
(1.04707 0.0203956 0)
(1.06285 0.0237849 0)
(1.08592 0.02683 0)
(1.10272 0.0286904 0)
(1.00379 0.023142 0)
(0.624696 0.00769424 0)
(0.12685 0.000301353 0)
(0.121002 -0.000210731 0)
(0.808195 -0.0115899 0)
(1.0685 -0.0223404 0)
(1.10485 -0.0236583 0)
(1.08158 -0.0208303 0)
(1.06188 -0.0175143 0)
(1.04823 -0.013807 0)
(1.03858 -0.00947282 0)
(1.0321 -0.00446078 0)
(1.02875 0.0012505 0)
(1.02924 0.0069449 0)
(1.03339 0.0118296 0)
(1.04078 0.0158848 0)
(1.05179 0.0192891 0)
(1.06787 0.0222757 0)
(1.09133 0.025047 0)
(1.09936 0.0260559 0)
(0.969538 0.0193975 0)
(0.584053 0.00607919 0)
(0.118043 0.000243751 0)
(0.114762 -0.000162042 0)
(0.7728 -0.0091457 0)
(1.05168 -0.0190491 0)
(1.10704 -0.021114 0)
(1.08723 -0.0187043 0)
(1.06708 -0.0155938 0)
(1.05317 -0.0120903 0)
(1.04334 -0.00800705 0)
(1.03664 -0.00331721 0)
(1.03305 0.00203133 0)
(1.03339 0.00733044 0)
(1.03748 0.0117728 0)
(1.04486 0.0153928 0)
(1.05593 0.0184171 0)
(1.0723 0.0210797 0)
(1.09553 0.0235098 0)
(1.09338 0.0237356 0)
(0.936654 0.0164008 0)
(0.551028 0.00493595 0)
(0.110943 0.000202406 0)
(0.109952 -0.000122458 0)
(0.743427 -0.00720531 0)
(1.03453 -0.0160426 0)
(1.1082 -0.0185993 0)
(1.09246 -0.016545 0)
(1.07205 -0.0136106 0)
(1.05789 -0.0102736 0)
(1.04789 -0.00639677 0)
(1.04099 -0.00199527 0)
(1.03716 0.00298282 0)
(1.03729 0.00784656 0)
(1.04124 0.0118266 0)
(1.04853 0.0150129 0)
(1.05963 0.0176706 0)
(1.07622 0.0200014 0)
(1.09849 0.0220707 0)
(1.08524 0.0216074 0)
(0.905913 0.0139816 0)
(0.523705 0.0040899 0)
(0.105083 0.000171871 0)
(0.106293 -9.01427e-05 0)
(0.719334 -0.00559834 0)
(1.01798 -0.0132702 0)
(1.10852 -0.0160935 0)
(1.09749 -0.0143405 0)
(1.07678 -0.0115112 0)
(1.0623 -0.00832892 0)
(1.05208 -0.00465586 0)
(1.04498 -0.000496057 0)
(1.04092 0.00413404 0)
(1.04077 0.00854781 0)
(1.04447 0.0120883 0)
(1.05163 0.0148474 0)
(1.06279 0.0170914 0)
(1.07964 0.0190572 0)
(1.1002 0.0207646 0)
(1.07547 0.0196689 0)
(0.877613 0.0120134 0)
(0.500761 0.00345062 0)
(0.100145 0.000150516 0)
(0.103605 -6.18257e-05 0)
(0.699985 -0.00419966 0)
(1.00269 -0.0106441 0)
(1.10812 -0.0135674 0)
(1.10221 -0.0121142 0)
(1.08132 -0.00939962 0)
(1.0665 -0.00630263 0)
(1.05604 -0.00273991 0)
(1.04869 0.00122476 0)
(1.04429 0.00552377 0)
(1.0438 0.00949581 0)
(1.04722 0.0125767 0)
(1.05423 0.0148819 0)
(1.06541 0.0167216 0)
(1.08252 0.0183684 0)
(1.10092 0.0196355 0)
(1.06446 0.0179236 0)
(0.851814 0.0104018 0)
(0.481262 0.00296066 0)
(0.0958888 0.000136371 0)
(0.101793 -3.43428e-05 0)
(0.685046 -0.0029125 0)
(0.989236 -0.00806382 0)
(1.1071 -0.010834 0)
(1.10642 -0.00961873 0)
(1.08571 -0.00701326 0)
(1.07063 -0.00396144 0)
(1.05986 -0.000525854 0)
(1.05213 0.00321553 0)
(1.0473 0.0072068 0)
(1.04639 0.0107659 0)
(1.04954 0.0133369 0)
(1.0564 0.0151404 0)
(1.06751 0.0165434 0)
(1.08462 0.0178075 0)
(1.10057 0.018588 0)
(1.05254 0.0162645 0)
(0.828502 0.00903576 0)
(0.464559 0.00257096 0)
(0.092151 0.000126619 0)
(0.100807 -5.79121e-06 0)
(0.674381 -0.00169495 0)
(0.978171 -0.0055162 0)
(1.106 -0.00790868 0)
(1.11039 -0.00678813 0)
(1.09006 -0.00428731 0)
(1.07467 -0.0013408 0)
(1.06366 0.00198711 0)
(1.05565 0.00558287 0)
(1.05038 0.00927144 0)
(1.04891 0.0123648 0)
(1.05153 0.0144011 0)
(1.05803 0.0156799 0)
(1.06908 0.0165524 0)
(1.08617 0.0172519 0)
(1.09921 0.017565 0)
(1.04016 0.014756 0)
(0.807608 0.00790312 0)
(0.450163 0.00227224 0)
(0.0887948 0.000121464 0)
(0.100648 1.73309e-05 0)
(0.667843 -0.000459049 0)
(0.969742 -0.00293941 0)
(1.10503 -0.00487829 0)
(1.11409 -0.00387418 0)
(1.09414 -0.00147428 0)
(1.07839 0.00147304 0)
(1.06702 0.00477939 0)
(1.05853 0.00829727 0)
(1.05264 0.0117876 0)
(1.05053 0.0145038 0)
(1.05264 0.0160434 0)
(1.05879 0.0167428 0)
(1.06971 0.0170497 0)
(1.08672 0.0172101 0)
(1.0967 0.0169425 0)
(1.02737 0.013542 0)
(0.78883 0.00700518 0)
(0.437603 0.00205486 0)
(0.0857026 0.000120168 0)
(0.101369 6.4508e-05 0)
(0.665404 0.000744384 0)
(0.964199 -0.000347459 0)
(1.10435 -0.00164155 0)
(1.11758 -0.000691074 0)
(1.09831 0.00166921 0)
(1.08238 0.00474158 0)
(1.0707 0.00814911 0)
(1.0617 0.0116441 0)
(1.0551 0.0149047 0)
(1.05216 0.0171448 0)
(1.05353 0.0180789 0)
(1.05911 0.0182219 0)
(1.06968 0.0179934 0)
(1.08633 0.0175538 0)
(1.09278 0.0165706 0)
(1.01418 0.0125706 0)
(0.771911 0.00637539 0)
(0.42646 0.00192411 0)
(0.0828143 0.000115864 0)
(0.103016 8.91109e-05 0)
(0.666668 0.00176767 0)
(0.961918 0.00204939 0)
(1.10454 0.00165259 0)
(1.12114 0.00280041 0)
(1.1026 0.00531681 0)
(1.08643 0.00856485 0)
(1.07427 0.0120733 0)
(1.06462 0.0155891 0)
(1.05713 0.0187176 0)
(1.05315 0.0205682 0)
(1.05364 0.0209306 0)
(1.05861 0.0203941 0)
(1.06872 0.01949 0)
(1.08488 0.0185241 0)
(1.0875 0.0167719 0)
(1.00079 0.0122963 0)
(0.756183 0.00628036 0)
(0.415887 0.00197457 0)
(0.0799778 0.000119307 0)
(0.10555 0.0001301 0)
(0.671599 0.00279945 0)
(0.962962 0.00434839 0)
(1.10618 0.00490108 0)
(1.12517 0.00646585 0)
(1.10717 0.00933527 0)
(1.09068 0.0128773 0)
(1.07796 0.0166542 0)
(1.06749 0.0203624 0)
(1.05887 0.0234163 0)
(1.05365 0.0248549 0)
(1.05307 0.0246506 0)
(1.05718 0.0234414 0)
(1.06677 0.0218816 0)
(1.08229 0.0202576 0)
(1.08105 0.0178492 0)
(0.986956 0.01285 0)
(0.740674 0.0067317 0)
(0.404875 0.00220221 0)
(0.0769427 0.000132331 0)
(0.10901 0.00017244 0)
(0.679924 0.00384758 0)
(0.967021 0.00655987 0)
(1.1095 0.0081619 0)
(1.13005 0.0102064 0)
(1.11236 0.0135694 0)
(1.09549 0.0176267 0)
(1.08214 0.0219496 0)
(1.07069 0.0260833 0)
(1.06064 0.0292274 0)
(1.05386 0.0303246 0)
(1.05196 0.0295332 0)
(1.05503 0.0276738 0)
(1.06394 0.025429 0)
(1.07852 0.0231003 0)
(1.07331 0.0199036 0)
(0.972283 0.0142343 0)
(0.724339 0.0076908 0)
(0.392499 0.00257418 0)
(0.0734634 0.000154267 0)
(0.113542 0.000228301 0)
(0.691795 0.00512235 0)
(0.974461 0.00913601 0)
(1.11471 0.0119245 0)
(1.13585 0.014615 0)
(1.11839 0.0186697 0)
(1.10108 0.0235071 0)
(1.08683 0.0285568 0)
(1.07398 0.0331607 0)
(1.06211 0.0364057 0)
(1.05348 0.0371082 0)
(1.05004 0.0355913 0)
(1.05195 0.0329394 0)
(1.06002 0.029975 0)
(1.0734 0.0268518 0)
(1.06397 0.0227486 0)
(0.956264 0.0163456 0)
(0.706123 0.00903177 0)
(0.378055 0.003046 0)
(0.0693583 0.000182396 0)
(0.119466 0.000306405 0)
(0.707741 0.00679851 0)
(0.985943 0.0123643 0)
(1.12254 0.0165626 0)
(1.14317 0.0203336 0)
(1.12575 0.0254516 0)
(1.10777 0.031262 0)
(1.09223 0.0370724 0)
(1.07759 0.0420953 0)
(1.0635 0.0452647 0)
(1.05258 0.045298 0)
(1.04734 0.0428144 0)
(1.04787 0.0392404 0)
(1.055 0.0353811 0)
(1.0668 0.0314341 0)
(1.05301 0.0264376 0)
(0.938402 0.019127 0)
(0.685076 0.0106392 0)
(0.361086 0.00357946 0)
(0.0645187 0.000213516 0)
(0.127305 0.000422246 0)
(0.728713 0.00912668 0)
(1.00193 0.01654 0)
(1.13383 0.0223444 0)
(1.15291 0.0276338 0)
(1.13483 0.034143 0)
(1.11562 0.0411369 0)
(1.09823 0.0478049 0)
(1.08125 0.0532438 0)
(1.0644 0.0561614 0)
(1.05079 0.0552686 0)
(1.04348 0.0515338 0)
(1.04266 0.0467019 0)
(1.04874 0.042014 0)
(1.05876 0.0373265 0)
(1.04028 0.0313623 0)
(0.917532 0.0226755 0)
(0.660291 0.0124753 0)
(0.34126 0.00417992 0)
(0.0588926 0.00024622 0)
(0.137819 0.000594321 0)
(0.756031 0.0124438 0)
(1.02311 0.0221232 0)
(1.14908 0.0295851 0)
(1.1657 0.0366026 0)
(1.14604 0.0447317 0)
(1.12485 0.0531429 0)
(1.10495 0.0608701 0)
(1.08499 0.0668389 0)
(1.06478 0.0695326 0)
(1.04804 0.0677526 0)
(1.03836 0.0628037 0)
(1.03594 0.0566527 0)
(1.0412 0.0506602 0)
(1.04937 0.0452074 0)
(1.02484 0.0377011 0)
(0.892198 0.0267938 0)
(0.631222 0.0145654 0)
(0.318219 0.00485327 0)
(0.0524083 0.000278986 0)
(0.152223 0.000871696 0)
(0.791671 0.0174087 0)
(1.05066 0.0299893 0)
(1.16846 0.0393305 0)
(1.18171 0.0481089 0)
(1.15965 0.0579859 0)
(1.13568 0.0678888 0)
(1.11253 0.0767772 0)
(1.08886 0.083297 0)
(1.06472 0.085815 0)
(1.04445 0.0832378 0)
(1.03209 0.0772024 0)
(1.02771 0.0698735 0)
(1.03178 0.0625361 0)
(1.03768 0.0552308 0)
(1.00453 0.0452932 0)
(0.861347 0.0314131 0)
(0.597509 0.0170121 0)
(0.291558 0.00561735 0)
(0.0450286 0.000311061 0)
(0.172653 0.00136015 0)
(0.838966 0.0251954 0)
(1.08716 0.0418124 0)
(1.19245 0.0536865 0)
(1.20086 0.0643897 0)
(1.17548 0.0758869 0)
(1.148 0.0871256 0)
(1.1208 0.096822 0)
(1.09274 0.103462 0)
(1.06413 0.105388 0)
(1.04002 0.101621 0)
(1.02471 0.0942515 0)
(1.01797 0.0855368 0)
(1.01979 0.0764783 0)
(1.0213 0.0664917 0)
(0.977884 0.0533587 0)
(0.825089 0.0366691 0)
(0.558775 0.0198986 0)
(0.260954 0.0064452 0)
(0.0367879 0.000336271 0)
(0.202454 0.00246161 0)
(0.90365 0.0386291 0)
(1.13562 0.0613355 0)
(1.22134 0.0761335 0)
(1.22269 0.0890289 0)
(1.19296 0.101638 0)
(1.16114 0.113376 0)
(1.12903 0.122769 0)
(1.096 0.128348 0)
(1.06251 0.12851 0)
(1.0343 0.122546 0)
(1.01579 0.113094 0)
(1.00619 0.102323 0)
(1.00434 0.0909041 0)
(0.999298 0.0780305 0)
(0.945408 0.0620356 0)
(0.783792 0.0429077 0)
(0.514619 0.0233255 0)
(0.226749 0.00736121 0)
(0.0279978 0.000350208 0)
(0.243338 0.00874193 2.96879e-19)
(0.98963 0.0657201 2.61224e-19)
(1.19412 0.0947766 -8.92556e-20)
(1.25368 0.110912 0)
(1.24527 0.126279 -2.03752e-33)
(1.21033 0.138386 2.91529e-20)
(1.17351 0.14889 -4.86654e-20)
(1.13598 0.1564 0)
(1.09755 0.159531 9.14878e-34)
(1.05872 0.156644 -5.2292e-20)
(1.02594 0.147451 0)
(1.00357 0.135111 -5.84996e-20)
(0.990089 0.121657 -1.70105e-19)
(0.982903 0.107626 -7.9508e-20)
(0.970102 0.0926671 -2.3527e-20)
(0.905919 0.0751962 -1.38428e-20)
(0.733242 0.0529364 0)
(0.460793 0.0288204 9.62355e-21)
(0.189423 0.00964582 1.13324e-20)
(0.0199028 0.000759561 2.0157e-19)
(0.270849 0.0242615 2.7078e-19)
(1.06012 0.108424 9.98662e-22)
(1.24153 0.142848 2.62001e-20)
(1.2835 0.159892 0)
(1.26528 0.174636 -1.11112e-19)
(1.2253 0.185081 -1.21491e-19)
(1.18339 0.193599 -5.10429e-20)
(1.14031 0.198784 -1.69388e-19)
(1.09608 0.199117 0)
(1.05111 0.19272 2.2446e-19)
(1.01247 0.179697 2.15924e-19)
(0.984623 0.163814 6.27273e-20)
(0.96532 0.147314 2.21961e-19)
(0.950978 0.13076 3.05366e-19)
(0.928842 0.114003 0)
(0.856199 0.0951211 4.23034e-19)
(0.675802 0.068492 6.04224e-19)
(0.407322 0.0384768 6.67999e-19)
(0.158033 0.0139615 -7.59456e-19)
(0.0137337 0.00120901 -1.41339e-20)
(0.270643 0.0397839 0)
(1.10374 0.164203 6.01507e-20)
(1.27384 0.20242 0)
(1.30641 0.219609 -1.79033e-19)
(1.28086 0.23123 0)
(1.23643 0.238504 -2.5299e-19)
(1.18965 0.243654 1.07478e-19)
(1.14123 0.245374 -3.54183e-19)
(1.09137 0.241926 -3.1418e-21)
(1.04041 0.231363 1.18541e-19)
(0.996032 0.214274 4.68899e-19)
(0.963002 0.195048 -6.24697e-22)
(0.938651 0.176212 -1.60036e-19)
(0.919157 0.158361 -2.84835e-19)
(0.892462 0.141006 3.34741e-19)
(0.819517 0.120526 -5.89472e-19)
(0.644355 0.0887663 -7.69261e-20)
(0.390624 0.0523375 0)
(0.157861 0.0208151 4.67287e-23)
(0.0150186 0.00210325 0)
(0.263685 0.0533236 1.08256e-18)
(1.12658 0.223148 -4.88629e-19)
(1.29402 0.266924 -3.17685e-19)
(1.32113 0.284001 9.29628e-20)
(1.29051 0.292194 -1.52123e-19)
(1.24269 0.295744 5.38034e-19)
(1.19185 0.296945 2.2816e-19)
(1.13875 0.294596 0)
(1.08374 0.286906 -6.25549e-19)
(1.02734 0.271912 0)
(0.977691 0.250877 -2.49016e-19)
(0.940147 0.228752 -2.9451e-19)
(0.91191 0.208105 -1.73072e-19)
(0.889067 0.189297 -2.05365e-19)
(0.86039 0.17115 0)
(0.79148 0.148787 0)
(0.628741 0.113381 -5.00833e-19)
(0.393978 0.0709911 9.80353e-20)
(0.170075 0.0307172 -5.79584e-20)
(0.019504 0.00375498 -6.67279e-20)
(0.256221 0.0654021 -6.57841e-19)
(1.13603 0.281901 0)
(1.30522 0.332299 7.67876e-19)
(1.32866 0.349571 2.89765e-19)
(1.29445 0.354466 3.31936e-19)
(1.24402 0.354316 0)
(1.18991 0.351534 2.36728e-19)
(1.13291 0.345012 4.0075e-19)
(1.07349 0.333001 3.28884e-19)
(1.0123 0.313609 5.50809e-19)
(0.958111 0.288766 0)
(0.916869 0.264019 -6.33259e-19)
(0.885696 0.241767 -3.72498e-19)
(0.860546 0.222109 -2.17874e-19)
(0.831121 0.203354 1.30476e-18)
(0.766275 0.179913 1.54463e-19)
(0.618849 0.14111 7.2221e-19)
(0.401922 0.0922671 -3.38849e-18)
(0.184356 0.0428203 2.01505e-18)
(0.0245386 0.00600326 -2.39187e-18)
(0.24949 0.0763891 -5.96763e-19)
(1.13715 0.338625 1.29619e-19)
(1.30959 0.396717 -1.1218e-19)
(1.33052 0.414428 -3.87447e-19)
(1.29357 0.416271 -3.35466e-19)
(1.24106 0.412597 3.44805e-21)
(1.1843 0.406022 -2.54355e-19)
(1.12405 0.395489 4.23412e-19)
(1.0609 0.379306 -7.05521e-19)
(0.995625 0.355659 0)
(0.937583 0.327141 -2.92423e-19)
(0.893385 0.299843 -3.17013e-21)
(0.86002 0.276031 -4.02981e-19)
(0.833292 0.255448 0)
(0.803737 0.236017 -2.80872e-19)
(0.743352 0.211354 -6.63896e-19)
(0.609509 0.169696 1.76103e-18)
(0.408196 0.114398 -1.72563e-18)
(0.19571 0.0555928 2.44896e-18)
(0.0286976 0.00845896 -2.50598e-18)
(0.244075 0.0866366 -8.01561e-22)
(1.13316 0.392667 -1.30368e-19)
(1.30928 0.459674 -4.59908e-19)
(1.328 0.4775 1.9856e-19)
(1.28893 0.476604 -1.76964e-19)
(1.23469 0.46966 0)
(1.1757 0.459554 -2.59926e-19)
(1.11271 0.445261 -4.49198e-19)
(1.04637 0.425139 -3.72925e-19)
(0.977579 0.39742 0)
(0.916282 0.365309 -3.08156e-19)
(0.869689 0.335447 -3.65251e-19)
(0.834701 0.309949 4.33828e-19)
(0.806949 0.288339 -2.57473e-19)
(0.777572 0.268225 -1.21306e-18)
(0.720965 0.24225 7.18565e-19)
(0.598405 0.198221 2.13319e-19)
(0.409257 0.136228 0)
(0.20155 0.0677766 -2.34699e-18)
(0.0313427 0.0107742 -8.45843e-20)
(0.239947 0.0964575 -7.928e-20)
(1.1261 0.443902 1.34161e-19)
(1.3053 0.520217 2.43264e-19)
(1.32217 0.538204 6.45794e-19)
(1.28137 0.53488 -7.34377e-19)
(1.22569 0.524972 6.4237e-19)
(1.16481 0.511622 5.56816e-19)
(1.09947 0.493852 -7.1925e-19)
(1.03033 0.470055 2.11732e-19)
(0.958443 0.438448 -1.35007e-18)
(0.894333 0.402781 -3.38362e-19)
(0.845755 0.370255 0)
(0.809579 0.342902 4.66805e-19)
(0.781244 0.320026 5.49781e-19)
(0.752344 0.29893 6.49915e-19)
(0.699017 0.271551 -7.7345e-19)
(0.584746 0.224758 -2.27576e-19)
(0.404591 0.155835 2.67198e-19)
(0.201336 0.0779383 0)
(0.0320874 0.0125297 -1.81762e-19)
(0.236943 0.105981 8.04275e-19)
(1.11747 0.492452 -5.51734e-19)
(1.29868 0.577942 -2.56508e-19)
(1.31389 0.596212 4.49676e-19)
(1.27164 0.590755 -3.80599e-19)
(1.21473 0.578184 -7.95631e-21)
(1.15224 0.561912 -5.99046e-19)
(1.08484 0.540975 -2.57666e-19)
(1.01322 0.513771 -6.42544e-19)
(0.938509 0.478473 4.57985e-22)
(0.87185 0.439271 -1.07175e-18)
(0.821598 0.403924 8.56251e-19)
(0.784493 0.374467 -5.05308e-19)
(0.755872 0.35007 5.9632e-19)
(0.727493 0.327611 0)
(0.676758 0.298491 -4.15607e-19)
(0.568495 0.248361 -1.74563e-21)
(0.394867 0.172143 -1.1511e-18)
(0.196733 0.0855685 -1.68846e-19)
(0.0314759 0.0136592 0)
(0.234915 0.11531 0)
(1.10808 0.538495 -5.8287e-19)
(1.29022 0.632762 -5.2599e-19)
(1.30384 0.651422 -4.71154e-19)
(1.26031 0.644062 -4.19048e-19)
(1.20236 0.629116 0)
(1.13848 0.610228 -3.04662e-19)
(1.06927 0.58644 -2.34147e-21)
(0.995388 0.556126 1.37394e-18)
(0.918052 0.517347 -1.89298e-19)
(0.848999 0.474641 -7.68275e-19)
(0.797185 0.436323 4.51383e-19)
(0.759327 0.404492 -4.02358e-21)
(0.730527 0.378252 6.35223e-19)
(0.702634 0.354167 3.81722e-19)
(0.653762 0.32277 -8.93353e-19)
(0.549641 0.268503 1.0542e-18)
(0.380686 0.185165 3.09696e-19)
(0.188036 0.090526 1.26878e-18)
(0.0295457 0.014066 -3.35542e-18)
(0.233773 0.124588 1.68962e-19)
(1.09848 0.582239 -2.96008e-19)
(1.28068 0.684689 2.56993e-19)
(1.29252 0.703832 4.87312e-19)
(1.24789 0.694732 0)
(1.18904 0.677669 -3.66502e-19)
(1.12395 0.656464 9.89091e-19)
(1.05311 0.630138 5.78743e-19)
(0.977158 0.597016 0)
(0.897311 0.554998 -2.66988e-18)
(0.825899 0.50885 2.06212e-18)
(0.772536 0.467428 0)
(0.733906 0.432975 5.82882e-19)
(0.704966 0.404586 -3.99197e-21)
(0.677474 0.378521 -1.2199e-18)
(0.629851 0.344383 4.76775e-19)
(0.528392 0.28522 0)
(0.363008 0.194504 1.66495e-18)
(0.176229 0.0930271 0)
(0.0268011 0.0139037 -1.57858e-18)
(0.233333 0.133845 -1.74084e-19)
(1.08914 0.623783 -3.01302e-19)
(1.27021 0.7338 2.77765e-19)
(1.28034 0.753418 0)
(1.23478 0.742754 -4.53581e-19)
(1.17515 0.723823 0)
(1.109 0.70057 -1.03244e-18)
(1.03669 0.672007 -2.94339e-19)
(0.958796 0.636391 2.53292e-19)
(0.876496 0.591406 -1.31789e-18)
(0.802656 0.541927 2.16658e-19)
(0.74761 0.497293 0)
(0.708125 0.459984 -1.24471e-18)
(0.679015 0.429147 4.08651e-21)
(0.651773 0.400756 0)
(0.60478 0.363376 4.51737e-21)
(0.504696 0.298553 1.51957e-18)
(0.342115 0.200173 -1.43258e-18)
(0.162053 0.0930667 4.20168e-19)
(0.0234981 0.0131848 0)
(0.233272 0.142959 0)
(1.08024 0.663232 -3.10258e-19)
(1.25919 0.780256 -2.78196e-19)
(1.26768 0.800223 -4.51745e-21)
(1.22128 0.788161 -2.2854e-19)
(1.16098 0.767583 -8.31631e-19)
(1.0939 0.742538 3.72563e-19)
(1.02026 0.712024 -3.25031e-19)
(0.940533 0.674222 1.10018e-18)
(0.855784 0.626579 -2.10619e-18)
(0.779366 0.573936 -6.69002e-21)
(0.722439 0.526032 -5.6125e-19)
(0.68196 0.48564 2.00641e-18)
(0.652571 0.452074 -4.80955e-21)
(0.625426 0.420999 -9.37491e-19)
(0.578485 0.379767 -1.6634e-18)
(0.478825 0.308533 0)
(0.318562 0.202351 0)
(0.146042 0.090683 4.52824e-19)
(0.0198719 0.0119475 -2.60801e-19)
(0.233703 0.152076 -1.83262e-19)
(1.07175 0.700437 6.50424e-19)
(1.24793 0.824115 2.96053e-19)
(1.2548 0.844334 0)
(1.20765 0.831013 -3.07832e-21)
(1.14678 0.808985 -8.61107e-19)
(1.07889 0.782382 9.66439e-19)
(1.00404 0.750189 1.34906e-18)
(0.922567 0.710515 1.45186e-18)
(0.835362 0.66055 -1.73503e-18)
(0.75621 0.604982 -1.76101e-18)
(0.697134 0.55381 1.49928e-18)
(0.655376 0.510125 0)
(0.625548 0.473505 -4.27416e-19)
(0.59833 0.439336 -1.00896e-18)
(0.550885 0.393594 -1.19022e-18)
(0.450497 0.315026 -1.40685e-18)
(0.292774 0.201037 4.14325e-19)
(0.128561 0.0859153 -2.42966e-19)
(0.0159544 0.010236 6.30177e-22)
(0.234227 0.161024 0)
(1.06384 0.735914 0)
(1.23661 0.865464 5.09124e-21)
(1.24187 0.885845 0)
(1.19407 0.871395 7.51387e-19)
(1.13273 0.84809 6.69602e-19)
(1.06414 0.820136 0)
(0.988202 0.78652 1.73112e-19)
(0.905075 0.74528 2.45472e-18)
(0.815428 0.693357 -3.97587e-18)
(0.73336 0.635174 0)
(0.671757 0.58081 -9.61596e-19)
(0.628362 0.533632 -5.86754e-21)
(0.597859 0.493581 -4.79377e-21)
(0.570401 0.455799 1.07757e-18)
(0.521998 0.404746 -8.1348e-22)
(0.420143 0.317978 -3.01937e-18)
(0.264806 0.196107 8.89433e-19)
(0.110237 0.0790611 2.61555e-19)
(0.0120367 0.00821734 0)
(0.234732 0.16979 5.74871e-19)
(1.05625 0.769686 3.46184e-19)
(1.22531 0.904372 6.2435e-19)
(1.22906 0.924856 -1.15349e-18)
(1.18071 0.909375 1.30475e-18)
(1.11898 0.884959 0)
(1.04979 0.855848 6.38253e-19)
(0.972878 0.821045 -3.74246e-19)
(0.888206 0.778539 7.62333e-21)
(0.796145 0.725038 2.87026e-19)
(0.710955 0.6646 2.28301e-18)
(0.646431 0.607223 -3.39512e-19)
(0.600937 0.556412 -1.22821e-18)
(0.569382 0.512479 -4.93164e-19)
(0.541472 0.470347 5.81913e-19)
(0.49178 0.412956 -5.17584e-22)
(0.388196 0.317125 8.11399e-19)
(0.235593 0.187681 -1.90837e-18)
(0.0918059 0.0705179 2.24541e-18)
(0.00826764 0.00600939 3.22567e-19)
(0.23506 0.178243 -1.96887e-19)
(1.049 0.80183 1.79707e-19)
(1.21416 0.94096 1.19369e-20)
(1.21648 0.961484 -5.91449e-19)
(1.16766 0.945058 -2.65136e-19)
(1.10562 0.919663 -1.25211e-18)
(1.03595 0.889566 2.16464e-19)
(0.958178 0.853787 -1.58413e-18)
(0.872076 0.810293 -2.75555e-18)
(0.777636 0.755594 -2.39056e-18)
(0.689166 0.693336 0)
(0.621321 0.633229 -1.46789e-18)
(0.573148 0.57876 1.75778e-18)
(0.539948 0.530444 0)
(0.511232 0.482884 -1.24387e-18)
(0.460116 0.41774 7.38244e-19)
(0.355025 0.311992 -8.69553e-19)
(0.206278 0.175934 -1.02463e-18)
(0.0742133 0.0608279 -1.80504e-18)
(0.00488032 0.00379923 -1.38608e-18)
(0.235679 0.18651 2.00378e-19)
(1.04193 0.832323 -1.91505e-19)
(1.20322 0.975303 -4.88569e-19)
(1.2042 0.99581 -7.70509e-19)
(1.15502 0.978531 5.71807e-19)
(1.09275 0.952286 -7.80459e-19)
(1.02269 0.921344 6.98341e-19)
(0.944178 0.884791 -1.66829e-18)
(0.856755 0.840565 -1.6433e-18)
(0.76002 0.785041 2.52436e-18)
(0.668165 0.721437 5.0149e-18)
(0.596604 0.658985 0)
(0.545092 0.600987 0)
(0.509362 0.547853 -5.64987e-19)
(0.479132 0.493374 0)
(0.426568 0.418257 1.58464e-18)
(0.321166 0.301532 1.8669e-18)
(0.178505 0.160699 0)
(0.0588235 0.0505655 0)
(0.0020786 0.0017962 1.4866e-18)
(0.23591 0.194286 -2.04395e-19)
(1.03508 0.861158 -1.76127e-19)
(1.19256 1.00752 -3.4302e-19)
(1.19228 1.02796 6.336e-19)
(1.14283 1.00989 5.95077e-19)
(1.08041 0.982901 9.46577e-19)
(1.01006 0.951243 -9.83857e-19)
(0.930928 0.914084 3.94725e-22)
(0.842316 0.869363 -9.8131e-21)
(0.743393 0.813374 -1.1291e-20)
(0.648116 0.748928 2.58274e-18)
(0.572484 0.684598 0)
(0.516965 0.6234 1.76149e-18)
(0.477498 0.565229 1.20346e-18)
(0.444351 0.502107 2.87308e-18)
(0.389983 0.413564 8.49321e-19)
(0.286858 0.283535 -1.00382e-18)
(0.155389 0.140059 -5.88487e-19)
(0.0499795 0.039423 0)
(0.00115063 0.000480003 1.59392e-18)
(0.236403 0.202033 4.11301e-19)
(1.02842 0.888431 0)
(1.18217 1.03766 -3.46628e-19)
(1.18076 1.05802 4.95797e-19)
(1.13114 1.03924 -6.11429e-19)
(1.06862 1.01159 -1.26238e-18)
(0.998106 0.979319 2.05317e-18)
(0.918457 0.941706 -1.24683e-19)
(0.828791 0.896699 0)
(0.727826 0.840561 -2.82649e-18)
(0.629165 0.775799 -5.64466e-18)
(0.549192 0.710142 2.18621e-19)
(0.489068 0.646238 2.41536e-18)
(0.444415 0.583211 0)
(0.405978 0.509968 1.92596e-18)
(0.348034 0.403517 0)
(0.249536 0.254535 0)
(0.139612 0.104062 -6.34621e-19)
(0.0661424 0.016164 0)
(0.0254095 0.00999243 4.2641e-19)
(0.236503 0.209139 4.19762e-19)
(1.02194 0.914471 0)
(1.17205 1.06593 -5.28157e-19)
(1.1696 1.08621 0)
(1.11991 1.06681 3.07211e-19)
(1.05734 1.03863 0)
(0.986746 1.00588 1.24705e-19)
(0.906668 0.967995 2.35409e-19)
(0.816065 0.922939 2.0628e-19)
(0.713168 0.866991 -3.12475e-18)
(0.61118 0.802488 1.74095e-19)
(0.52658 0.73619 1.73039e-18)
(0.461191 0.670108 2.3481e-18)
(0.409617 0.602791 3.0988e-19)
(0.362448 0.518821 1.49731e-18)
(0.296593 0.390257 0)
(0.197967 0.214671 2.09955e-18)
(0.102375 0.0436789 -1.22171e-18)
(0.0443305 0.0471162 1.41079e-18)
(-0.0589693 0.420716 -1.6785e-18)
(0.236553 0.215999 -3.24899e-19)
(1.01537 0.939108 -5.77133e-19)
(1.16214 1.09266 0)
(1.15867 1.11295 1.00212e-20)
(1.10897 1.09319 -7.84873e-19)
(1.04632 1.06471 2.17927e-18)
(0.97569 1.03172 7.93326e-19)
(0.895178 0.993884 0)
(0.803637 0.949168 1.44079e-18)
(0.698784 0.893962 -1.714e-19)
(0.593299 0.830455 0)
(0.503561 0.764523 0)
(0.431993 0.69678 2.10013e-18)
(0.371711 0.625702 -9.47177e-19)
(0.311124 0.531922 -1.50761e-18)
(0.231286 0.379571 0)
(0.113282 0.197901 1.04192e-18)
(0.0120769 0.432903 -1.19866e-18)
(0.0368048 1.86059 -6.78376e-19)
(0.0688989 2.79231 -8.84912e-19)
(0.236396 0.222071 2.13967e-19)
(1.00886 0.962477 6.85642e-19)
(1.15242 1.11782 -2.81387e-19)
(1.14798 1.13811 -3.47754e-19)
(1.09836 1.11815 0)
(1.0356 1.08953 1.49009e-18)
(0.965123 1.05652 1.20378e-18)
(0.884157 1.01894 -1.21781e-19)
(0.791757 0.974868 2.1213e-19)
(0.685035 0.920858 3.03074e-18)
(0.576103 0.858991 2.89365e-18)
(0.481112 0.794713 1.9547e-18)
(0.402571 0.725852 2.10762e-18)
(0.332845 0.650481 -2.21152e-18)
(0.258141 0.552125 -2.26489e-18)
(0.153533 0.406265 0)
(0.0567319 0.823239 0)
(0.110317 2.53057 5.88851e-19)
(0.113572 3.18728 0)
(0.115881 3.38226 1.35435e-18)
(0.239227 0.227681 0)
(1.00297 0.984796 0)
(1.14265 1.14129 0)
(1.13728 1.16147 -8.50792e-20)
(1.08779 1.14146 -6.76452e-19)
(1.02497 1.11295 1.05736e-18)
(0.954945 1.08018 8.19885e-19)
(0.873545 1.04306 -1.23445e-19)
(0.780375 0.999891 1.88873e-18)
(0.671933 0.947527 -1.97686e-20)
(0.559711 0.887942 5.78136e-18)
(0.459618 0.826608 -2.21731e-19)
(0.373352 0.75801 2.59112e-19)
(0.295164 0.674199 3.1614e-19)
(0.199547 0.578725 5.30384e-22)
(0.118928 0.954988 3.46188e-21)
(0.154642 2.68056 -3.02482e-18)
(0.166329 3.28397 -1.15949e-18)
(0.152866 3.42516 6.13306e-19)
(0.137616 3.44879 -6.87002e-19)
(0.158093 0.179117 -1.00738e-19)
(0.992272 1.00904 0)
(1.13265 1.16326 4.73473e-19)
(1.12711 1.18345 8.05129e-19)
(1.07789 1.16379 -1.27288e-18)
(1.01523 1.13554 -1.09525e-18)
(0.945005 1.10277 -9.00805e-19)
(0.863414 1.06632 1.57656e-18)
(0.769653 1.02432 -1.58832e-18)
(0.659792 0.974021 0)
(0.544575 0.917349 2.88369e-18)
(0.439662 0.859849 -1.61039e-18)
(0.344952 0.796124 0)
(0.259114 0.700637 2.88508e-19)
(0.170339 0.82157 6.90326e-19)
(0.170375 2.43281 -8.38712e-19)
(0.234333 3.31921 9.35018e-19)
(0.211701 3.44201 5.29746e-19)
(0.175316 3.46454 5.98563e-19)
(0.151692 3.47515 1.01939e-18)
(0.279032 0.265762 1.96131e-19)
(0.976009 1.01821 0)
(1.11454 1.188 -4.42522e-19)
(1.11283 1.21586 -7.62498e-19)
(1.06208 1.19678 1.19833e-18)
(0.998959 1.16904 1.02781e-18)
(0.927861 1.13763 1.18269e-18)
(0.845711 1.10236 1.20714e-19)
(0.750754 1.06247 1.62573e-18)
(0.638431 1.01596 2.79845e-18)
(0.518572 0.965399 1.71849e-19)
(0.406248 0.915477 1.47076e-18)
(0.295611 0.862561 2.4965e-19)
(0.22735 0.980726 -2.98517e-19)
(0.243914 2.28042 -6.78112e-19)
(0.308105 3.3242 6.90637e-19)
(0.293789 3.47596 -8.1327e-19)
(0.255587 3.4985 -4.78865e-19)
(0.216775 3.52594 -4.57124e-19)
(0.16328 3.51842 -4.25228e-20)
(0.267887 0.262997 0)
(0.973617 1.04065 -8.28652e-20)
(1.10662 1.21104 7.75246e-20)
(1.10311 1.23885 7.4897e-20)
(1.05215 1.21965 7.43214e-19)
(0.989112 1.19214 -9.77861e-19)
(0.91773 1.16093 -7.45862e-19)
(0.835498 1.12645 1.15048e-19)
(0.740235 1.088 -1.75638e-18)
(0.62702 1.04423 -2.83414e-20)
(0.505124 0.998318 -5.44756e-18)
(0.389545 0.954253 2.08286e-19)
(0.283394 0.929499 -2.40042e-19)
(0.266825 1.45822 -2.87257e-19)
(0.345226 3.07074 3.48363e-20)
(0.371631 3.4732 2.18589e-21)
(0.328895 3.53531 1.42036e-18)
(0.290007 3.55895 7.72164e-19)
(0.238955 3.58278 -3.32673e-19)
(0.178166 3.5778 -2.6036e-19)
(0.251753 0.260604 -1.69508e-19)
(0.969672 1.06555 -5.27181e-19)
(1.09819 1.2361 2.18644e-19)
(1.09287 1.26325 2.86691e-19)
(1.04175 1.24387 0)
(0.978862 1.21636 -1.27907e-18)
(0.907467 1.1854 -1.05157e-18)
(0.82543 1.15167 1.09143e-19)
(0.730189 1.11472 -1.9173e-19)
(0.616603 1.07388 -2.72774e-18)
(0.493478 1.03294 -2.60591e-18)
(0.376551 0.995892 -1.78559e-18)
(0.28742 1.05361 -1.84775e-18)
(0.336207 2.12483 1.88173e-18)
(0.433848 3.3745 1.65475e-18)
(0.41813 3.53688 0)
(0.368287 3.58152 0)
(0.330086 3.62377 -2.93493e-19)
(0.273639 3.68494 0)
(0.190265 3.6575 -4.45223e-19)
(0.240829 0.261941 2.13014e-19)
(0.963571 1.09126 3.95447e-19)
(1.08835 1.26231 0)
(1.08136 1.28848 1.17638e-20)
(1.03019 1.26868 6.33003e-19)
(0.967556 1.24106 -1.79314e-18)
(0.896471 1.21034 -6.58669e-19)
(0.814846 1.17725 9.68268e-20)
(0.719879 1.14174 -1.41093e-18)
(0.606329 1.10378 1.49841e-19)
(0.482779 1.06793 0)
(0.367118 1.04059 0)