0.490941 	1.37692 	0.00586588 	3.00061 	-4.23123e-20
0.561075 	1.37692 	0.00586588 	3.00061 	-4.23123e-20
0.63121 	1.37692 	0.00586588 	3.00061 	-4.23123e-20
0.701344 	1.37692 	0.00586588 	3.00061 	-4.23123e-20
0.771478 	1.37692 	0.00586588 	3.00061 	-4.23123e-20
0.841613 	1.37692 	0.00586588 	3.00061 	-4.23123e-20
0.911747 	1.37692 	0.00586588 	3.00061 	-4.23123e-20
0.981881 	1.37692 	0.00586588 	3.00061 	-4.23123e-20
1.05202 	1.37692 	0.00586588 	3.00061 	-4.23123e-20
1.12215 	1.37692 	0.00586588 	3.00061 	-4.23123e-20
1.19228 	1.37692 	0.00586588 	3.00061 	-4.23123e-20
1.26242 	1.37692 	0.00586588 	3.00061 	-4.23123e-20
1.33255 	1.33754 	0.013912 	3.0148 	-4.26121e-20
1.40269 	1.33754 	0.013912 	3.0148 	-4.26121e-20
1.47282 	1.33754 	0.013912 	3.0148 	-4.26121e-20
1.54296 	1.33754 	0.013912 	3.0148 	-4.26121e-20
1.61309 	1.33754 	0.013912 	3.0148 	-4.26121e-20
1.68323 	1.33754 	0.013912 	3.0148 	-4.26121e-20
1.75336 	1.33754 	0.013912 	3.0148 	-4.26121e-20
1.82349 	1.33754 	0.013912 	3.0148 	-4.26121e-20
1.89363 	1.33754 	0.013912 	3.0148 	-4.26121e-20
1.96376 	1.33754 	0.013912 	3.0148 	-4.26121e-20
2.0339 	1.33754 	0.013912 	3.0148 	-4.26121e-20
2.10403 	1.33754 	0.013912 	3.0148 	-4.26121e-20
2.17417 	1.27677 	0.0142362 	3.03153 	8.97758e-20
2.2443 	1.27677 	0.0142362 	3.03153 	8.97758e-20
2.31443 	1.27677 	0.0142362 	3.03153 	8.97758e-20
2.38457 	1.27677 	0.0142362 	3.03153 	8.97758e-20
2.4547 	1.27677 	0.0142362 	3.03153 	8.97758e-20
2.52484 	1.27677 	0.0142362 	3.03153 	8.97758e-20
2.59497 	1.27677 	0.0142362 	3.03153 	8.97758e-20
2.66511 	1.27677 	0.0142362 	3.03153 	8.97758e-20
2.73524 	1.27677 	0.0142362 	3.03153 	8.97758e-20
2.80538 	1.27677 	0.0142362 	3.03153 	8.97758e-20
2.87551 	1.27677 	0.0142362 	3.03153 	8.97758e-20
2.94564 	1.27677 	0.0142362 	3.03153 	8.97758e-20
3.01578 	1.20279 	0.0163692 	3.05941 	-1.02215e-20
3.08591 	1.20279 	0.0163692 	3.05941 	-1.02215e-20
3.15605 	1.20279 	0.0163692 	3.05941 	-1.02215e-20
3.22618 	1.20279 	0.0163692 	3.05941 	-1.02215e-20
3.29632 	1.20279 	0.0163692 	3.05941 	-1.02215e-20
3.36645 	1.20279 	0.0163692 	3.05941 	-1.02215e-20
3.43659 	1.20279 	0.0163692 	3.05941 	-1.02215e-20
3.50672 	1.20279 	0.0163692 	3.05941 	-1.02215e-20
3.57685 	1.20279 	0.0163692 	3.05941 	-1.02215e-20
3.64699 	1.20279 	0.0163692 	3.05941 	-1.02215e-20
3.71712 	1.20279 	0.0163692 	3.05941 	-1.02215e-20
3.78726 	1.19559 	0.00770301 	3.05494 	2.00519e-20
3.85739 	1.11703 	-0.00110649 	3.08462 	-1.44112e-19
3.92753 	1.11703 	-0.00110649 	3.08462 	-1.44112e-19
3.99766 	1.11703 	-0.00110649 	3.08462 	-1.44112e-19
4.06779 	1.11703 	-0.00110649 	3.08462 	-1.44112e-19
4.13793 	1.11703 	-0.00110649 	3.08462 	-1.44112e-19
4.20806 	1.11703 	-0.00110649 	3.08462 	-1.44112e-19
4.2782 	1.11703 	-0.00110649 	3.08462 	-1.44112e-19
4.34833 	1.11703 	-0.00110649 	3.08462 	-1.44112e-19
4.41847 	1.11703 	-0.00110649 	3.08462 	-1.44112e-19
4.4886 	1.11703 	-0.00110649 	3.08462 	-1.44112e-19
4.55874 	1.11703 	-0.00110649 	3.08462 	-1.44112e-19
4.62887 	1.11703 	-0.00110649 	3.08462 	-1.44112e-19
4.699 	1.11703 	-0.00110649 	3.08462 	-1.44112e-19
4.76914 	1.03819 	0.00583158 	3.10596 	2.77862e-19
4.83927 	1.03819 	0.00583158 	3.10596 	2.77862e-19
4.90941 	1.03819 	0.00583158 	3.10596 	2.77862e-19
4.97954 	1.03819 	0.00583158 	3.10596 	2.77862e-19
5.04968 	1.03819 	0.00583158 	3.10596 	2.77862e-19
5.11981 	1.03819 	0.00583158 	3.10596 	2.77862e-19
5.18994 	1.03819 	0.00583158 	3.10596 	2.77862e-19
5.26008 	1.03819 	0.00583158 	3.10596 	2.77862e-19
5.33021 	1.03819 	0.00583158 	3.10596 	2.77862e-19
5.40035 	1.03819 	0.00583158 	3.10596 	2.77862e-19
5.47048 	1.03819 	0.00583158 	3.10596 	2.77862e-19
5.54062 	1.03819 	0.00583158 	3.10596 	2.77862e-19
5.61075 	0.963234 	-0.00204206 	3.13428 	-1.33519e-19
5.68089 	0.963234 	-0.00204206 	3.13428 	-1.33519e-19
5.75102 	0.963234 	-0.00204206 	3.13428 	-1.33519e-19
5.82115 	0.963234 	-0.00204206 	3.13428 	-1.33519e-19
5.89129 	0.963234 	-0.00204206 	3.13428 	-1.33519e-19
5.96142 	0.963234 	-0.00204206 	3.13428 	-1.33519e-19
6.03156 	0.963234 	-0.00204206 	3.13428 	-1.33519e-19
6.10169 	0.963234 	-0.00204206 	3.13428 	-1.33519e-19
6.17183 	0.963234 	-0.00204206 	3.13428 	-1.33519e-19
6.24196 	0.963234 	-0.00204206 	3.13428 	-1.33519e-19
6.3121 	0.963234 	-0.00204206 	3.13428 	-1.33519e-19
6.38223 	0.963234 	-0.00204206 	3.13428 	-1.33519e-19
6.45236 	0.891859 	0.00591913 	3.15273 	0
6.5225 	0.891859 	0.00591913 	3.15273 	0
6.59263 	0.891859 	0.00591913 	3.15273 	0
6.66277 	0.891859 	0.00591913 	3.15273 	0
6.7329 	0.891859 	0.00591913 	3.15273 	0
6.80304 	0.891859 	0.00591913 	3.15273 	0
6.87317 	0.891859 	0.00591913 	3.15273 	0
6.9433 	0.891859 	0.00591913 	3.15273 	0
7.01344 	0.891859 	0.00591913 	3.15273 	0
7.08357 	0.891859 	0.00591913 	3.15273 	0
7.15371 	0.891859 	0.00591913 	3.15273 	0
7.22384 	0.891859 	0.00591913 	3.15273 	0
7.29398 	0.824039 	-0.000803809 	3.17855 	0
7.36411 	0.824039 	-0.000803809 	3.17855 	0
7.43425 	0.824039 	-0.000803809 	3.17855 	0
7.50438 	0.824039 	-0.000803809 	3.17855 	0
7.57451 	0.824039 	-0.000803809 	3.17855 	0
7.64465 	0.824039 	-0.000803809 	3.17855 	0
7.71478 	0.824039 	-0.000803809 	3.17855 	0
7.78492 	0.824039 	-0.000803809 	3.17855 	0
7.85505 	0.824039 	-0.000803809 	3.17855 	0
7.92519 	0.824039 	-0.000803809 	3.17855 	0
7.99532 	0.824039 	-0.000803809 	3.17855 	0
8.06545 	0.824039 	-0.000803809 	3.17855 	0
8.13559 	0.824039 	-0.000803809 	3.17855 	0
8.20572 	0.756851 	0.00971043 	3.19532 	3.92415e-22
8.27586 	0.756851 	0.00971043 	3.19532 	3.92415e-22
8.34599 	0.756851 	0.00971043 	3.19532 	3.92415e-22
8.41613 	0.756851 	0.00971043 	3.19532 	3.92415e-22
8.48626 	0.756851 	0.00971043 	3.19532 	3.92415e-22
8.5564 	0.756851 	0.00971043 	3.19532 	3.92415e-22
8.62653 	0.756851 	0.00971043 	3.19532 	3.92415e-22
8.69666 	0.756851 	0.00971043 	3.19532 	3.92415e-22
8.7668 	0.756851 	0.00971043 	3.19532 	3.92415e-22
8.83693 	0.756851 	0.00971043 	3.19532 	3.92415e-22
8.90707 	0.756851 	0.00971043 	3.19532 	3.92415e-22
8.9772 	0.756851 	0.00971043 	3.19532 	3.92415e-22
9.04734 	0.690447 	0.00594421 	3.22056 	1.75311e-19
9.11747 	0.690447 	0.00594421 	3.22056 	1.75311e-19
9.18761 	0.690447 	0.00594421 	3.22056 	1.75311e-19
9.25774 	0.690447 	0.00594421 	3.22056 	1.75311e-19
9.32787 	0.690447 	0.00594421 	3.22056 	1.75311e-19
9.39801 	0.690447 	0.00594421 	3.22056 	1.75311e-19
9.46814 	0.690447 	0.00594421 	3.22056 	1.75311e-19
9.53828 	0.690447 	0.00594421 	3.22056 	1.75311e-19
9.60841 	0.690447 	0.00594421 	3.22056 	1.75311e-19
9.67855 	0.690447 	0.00594421 	3.22056 	1.75311e-19
9.74868 	0.690447 	0.00594421 	3.22056 	1.75311e-19
9.81881 	0.690447 	0.00594421 	3.22056 	1.75311e-19
9.88895 	0.690447 	0.00594421 	3.22056 	1.75311e-19
9.95908 	0.62288 	0.0227783 	3.23699 	-8.33371e-21
10.0292 	0.62288 	0.0227783 	3.23699 	-8.33371e-21
10.0994 	0.62288 	0.0227783 	3.23699 	-8.33371e-21
10.1695 	0.62288 	0.0227783 	3.23699 	-8.33371e-21
10.2396 	0.62288 	0.0227783 	3.23699 	-8.33371e-21
10.3098 	0.62288 	0.0227783 	3.23699 	-8.33371e-21
10.3799 	0.62288 	0.0227783 	3.23699 	-8.33371e-21
10.45 	0.62288 	0.0227783 	3.23699 	-8.33371e-21
10.5202 	0.62288 	0.0227783 	3.23699 	-8.33371e-21
10.5903 	0.62288 	0.0227783 	3.23699 	-8.33371e-21
10.6604 	0.62288 	0.0227783 	3.23699 	-8.33371e-21
10.7306 	0.62288 	0.0227783 	3.23699 	-8.33371e-21
10.8007 	0.55314 	0.0311095 	3.26308 	-1.64795e-19
10.8708 	0.55314 	0.0311095 	3.26308 	-1.64795e-19
10.941 	0.55314 	0.0311095 	3.26308 	-1.64795e-19
11.0111 	0.55314 	0.0311095 	3.26308 	-1.64795e-19
11.0812 	0.55314 	0.0311095 	3.26308 	-1.64795e-19
11.1514 	0.55314 	0.0311095 	3.26308 	-1.64795e-19
11.2215 	0.55314 	0.0311095 	3.26308 	-1.64795e-19
11.2916 	0.55314 	0.0311095 	3.26308 	-1.64795e-19
11.3618 	0.55314 	0.0311095 	3.26308 	-1.64795e-19
11.4319 	0.55314 	0.0311095 	3.26308 	-1.64795e-19
11.502 	0.55314 	0.0311095 	3.26308 	-1.64795e-19
11.5722 	0.55314 	0.0311095 	3.26308 	-1.64795e-19
11.6423 	0.55314 	0.0311095 	3.26308 	-1.64795e-19
11.7124 	0.474943 	0.0676885 	3.2831 	-2.20269e-19
11.7826 	0.474943 	0.0676885 	3.2831 	-2.20269e-19
11.8527 	0.474943 	0.0676885 	3.2831 	-2.20269e-19
11.9228 	0.474943 	0.0676885 	3.2831 	-2.20269e-19
11.993 	0.474943 	0.0676885 	3.2831 	-2.20269e-19
12.0631 	0.474943 	0.0676885 	3.2831 	-2.20269e-19
12.1332 	0.474943 	0.0676885 	3.2831 	-2.20269e-19
12.2034 	0.474943 	0.0676885 	3.2831 	-2.20269e-19
12.2735 	0.474943 	0.0676885 	3.2831 	-2.20269e-19
12.3437 	0.474943 	0.0676885 	3.2831 	-2.20269e-19
12.4138 	0.474943 	0.0676885 	3.2831 	-2.20269e-19
12.4839 	0.474943 	0.0676885 	3.2831 	-2.20269e-19
12.5541 	0.474943 	0.0676885 	3.2831 	-2.20269e-19
12.6242 	0.381465 	0.0978984 	3.31391 	3.93984e-19
12.6943 	0.381465 	0.0978984 	3.31391 	3.93984e-19
12.7645 	0.381465 	0.0978984 	3.31391 	3.93984e-19
12.8346 	0.381465 	0.0978984 	3.31391 	3.93984e-19
12.9047 	0.381465 	0.0978984 	3.31391 	3.93984e-19
12.9749 	0.381465 	0.0978984 	3.31391 	3.93984e-19
13.045 	0.381465 	0.0978984 	3.31391 	3.93984e-19
13.1151 	0.381465 	0.0978984 	3.31391 	3.93984e-19
13.1853 	0.381465 	0.0978984 	3.31391 	3.93984e-19
13.2554 	0.381465 	0.0978984 	3.31391 	3.93984e-19
13.3255 	0.381465 	0.0978984 	3.31391 	3.93984e-19
13.3957 	0.381465 	0.0978984 	3.31391 	3.93984e-19
13.4658 	0.381465 	0.0978984 	3.31391 	3.93984e-19
13.5359 	0.252803 	0.184122 	3.35354 	-1.71747e-19
13.6061 	0.252803 	0.184122 	3.35354 	-1.71747e-19
13.6762 	0.252803 	0.184122 	3.35354 	-1.71747e-19
13.7463 	0.252803 	0.184122 	3.35354 	-1.71747e-19
13.8165 	0.252803 	0.184122 	3.35354 	-1.71747e-19
13.8866 	0.252803 	0.184122 	3.35354 	-1.71747e-19
13.9567 	0.252803 	0.184122 	3.35354 	-1.71747e-19
14.0269 	0.252803 	0.184122 	3.35354 	-1.71747e-19
14.097 	0.252803 	0.184122 	3.35354 	-1.71747e-19
14.1671 	0.252803 	0.184122 	3.35354 	-1.71747e-19
14.2373 	0.252803 	0.184122 	3.35354 	-1.71747e-19
14.3074 	0.252803 	0.184122 	3.35354 	-1.71747e-19
14.3776 	0.127291 	0.211751 	3.38238 	0
14.4477 	-0.0997951 	0.20807 	3.44677 	-8.7079e-20
14.5178 	-0.0997951 	0.20807 	3.44677 	-8.7079e-20
14.588 	-0.0997951 	0.20807 	3.44677 	-8.7079e-20
14.6581 	-0.0997951 	0.20807 	3.44677 	-8.7079e-20
14.7282 	-0.0997951 	0.20807 	3.44677 	-8.7079e-20
14.7984 	-0.0997951 	0.20807 	3.44677 	-8.7079e-20
14.8685 	-0.0777779 	0.235619 	3.43815 	1.71216e-19
14.9386 	-0.0777779 	0.235619 	3.43815 	1.71216e-19
15.0088 	-0.0777779 	0.235619 	3.43815 	1.71216e-19
15.0789 	-0.0777779 	0.235619 	3.43815 	1.71216e-19
15.149 	-0.0777779 	0.235619 	3.43815 	1.71216e-19
15.2192 	-0.342259 	0.306612 	3.51315 	-5.5546e-19
15.2893 	-0.342259 	0.306612 	3.51315 	-5.5546e-19
15.3594 	-0.342259 	0.306612 	3.51315 	-5.5546e-19
15.4296 	-0.209095 	0.387464 	3.4693 	2.39251e-19
15.4997 	-0.209095 	0.387464 	3.4693 	2.39251e-19
15.5698 	-0.209095 	0.387464 	3.4693 	2.39251e-19
15.64 	-0.209095 	0.387464 	3.4693 	2.39251e-19
15.7101 	-0.209095 	0.387464 	3.4693 	2.39251e-19
15.7802 	-0.209095 	0.387464 	3.4693 	2.39251e-19
15.8504 	-0.209095 	0.387464 	3.4693 	2.39251e-19
15.9205 	-0.503656 	0.388164 	3.5658 	1.1058e-19
15.9906 	-0.503656 	0.388164 	3.5658 	1.1058e-19
16.0608 	-0.503656 	0.388164 	3.5658 	1.1058e-19
16.1309 	-0.270648 	0.484195 	3.4753 	-1.00039e-19
16.201 	-0.270648 	0.484195 	3.4753 	-1.00039e-19
16.2712 	-0.270648 	0.484195 	3.4753 	-1.00039e-19
16.3413 	-0.270648 	0.484195 	3.4753 	-1.00039e-19
16.4114 	-0.270648 	0.484195 	3.4753 	-1.00039e-19
16.4816 	-0.270648 	0.484195 	3.4753 	-1.00039e-19
16.5517 	-0.270648 	0.484195 	3.4753 	-1.00039e-19
16.6219 	-0.493017 	0.593808 	3.56053 	0
16.692 	-0.493017 	0.593808 	3.56053 	0
16.7621 	-0.493017 	0.593808 	3.56053 	0
16.8323 	-0.493017 	0.593808 	3.56053 	0
16.9024 	-0.493017 	0.593808 	3.56053 	0
16.9725 	-0.221691 	0.597201 	3.44266 	-6.41736e-20
17.0427 	-0.221691 	0.597201 	3.44266 	-6.41736e-20
17.1128 	-0.221691 	0.597201 	3.44266 	-6.41736e-20
17.1829 	-0.221691 	0.597201 	3.44266 	-6.41736e-20
17.2531 	-0.403281 	0.704545 	3.51781 	-4.16704e-19
17.3232 	-0.403281 	0.704545 	3.51781 	-4.16704e-19
17.3933 	-0.403281 	0.704545 	3.51781 	-4.16704e-19
17.4635 	-0.403281 	0.704545 	3.51781 	-4.16704e-19
17.5336 	-0.403281 	0.704545 	3.51781 	-4.16704e-19
17.6037 	-0.403281 	0.704545 	3.51781 	-4.16704e-19
17.6739 	-0.403281 	0.704545 	3.51781 	-4.16704e-19
17.744 	-0.403281 	0.704545 	3.51781 	-4.16704e-19
17.8141 	-0.403281 	0.704545 	3.51781 	-4.16704e-19
17.8843 	-0.403281 	0.704545 	3.51781 	-4.16704e-19
17.9544 	-0.295775 	0.726655 	3.40166 	0
18.0245 	-0.295775 	0.726655 	3.40166 	0
18.0947 	-0.295775 	0.726655 	3.40166 	0
18.1648 	-0.295775 	0.726655 	3.40166 	0
18.2349 	-0.295775 	0.726655 	3.40166 	0
18.3051 	-0.295775 	0.726655 	3.40166 	0
18.3752 	-0.295775 	0.726655 	3.40166 	0
18.4453 	-0.295775 	0.726655 	3.40166 	0
18.5155 	-0.295775 	0.726655 	3.40166 	0
18.5856 	-0.41746 	0.837499 	3.4666 	0
18.6557 	-0.41746 	0.837499 	3.4666 	0
18.7259 	-0.41746 	0.837499 	3.4666 	0
18.796 	-0.41746 	0.837499 	3.4666 	0
18.8662 	-0.41746 	0.837499 	3.4666 	0
18.9363 	-0.41746 	0.837499 	3.4666 	0
19.0064 	-0.41746 	0.837499 	3.4666 	0
19.0766 	-0.41746 	0.837499 	3.4666 	0
19.1467 	-0.41746 	0.837499 	3.4666 	0
19.2168 	-0.489822 	0.906363 	3.46048 	2.58899e-19
19.287 	-0.196678 	0.815808 	3.13011 	1.22075e-19
19.3571 	-0.196678 	0.815808 	3.13011 	1.22075e-19
19.4272 	-0.196678 	0.815808 	3.13011 	1.22075e-19
19.4974 	-0.196678 	0.815808 	3.13011 	1.22075e-19
19.5675 	-0.196678 	0.815808 	3.13011 	1.22075e-19
19.6376 	-0.196678 	0.815808 	3.13011 	1.22075e-19
19.7078 	-0.196678 	0.815808 	3.13011 	1.22075e-19
19.7779 	-0.196678 	0.815808 	3.13011 	1.22075e-19
19.848 	-0.196678 	0.815808 	3.13011 	1.22075e-19
19.9182 	-0.25384 	0.907719 	3.23908 	2.46131e-19
19.9883 	-0.25384 	0.907719 	3.23908 	2.46131e-19
20.0584 	-0.25384 	0.907719 	3.23908 	2.46131e-19
20.1286 	-0.25384 	0.907719 	3.23908 	2.46131e-19
20.1987 	-0.25384 	0.907719 	3.23908 	2.46131e-19
20.2688 	-0.25384 	0.907719 	3.23908 	2.46131e-19
20.339 	-0.25384 	0.907719 	3.23908 	2.46131e-19
20.4091 	-0.25384 	0.907719 	3.23908 	2.46131e-19
20.4792 	-0.25384 	0.907719 	3.23908 	2.46131e-19
20.5494 	-0.25384 	0.907719 	3.23908 	2.46131e-19
20.6195 	-0.326256 	0.969385 	3.29553 	1.86057e-19
20.6896 	-0.326256 	0.969385 	3.29553 	1.86057e-19
20.7598 	-0.326256 	0.969385 	3.29553 	1.86057e-19
20.8299 	-0.326256 	0.969385 	3.29553 	1.86057e-19
20.9 	-0.181736 	0.816997 	2.49821 	1.61535e-19
20.9702 	-0.181736 	0.816997 	2.49821 	1.61535e-19
21.0403 	-0.181736 	0.816997 	2.49821 	1.61535e-19
21.1105 	-0.181736 	0.816997 	2.49821 	1.61535e-19
21.1806 	-0.181736 	0.816997 	2.49821 	1.61535e-19
21.2507 	-0.181736 	0.816997 	2.49821 	1.61535e-19
21.3209 	-0.238372 	0.907008 	2.65626 	0
21.391 	-0.238372 	0.907008 	2.65626 	0
21.4611 	-0.238372 	0.907008 	2.65626 	0
21.5313 	-0.238372 	0.907008 	2.65626 	0
21.6014 	-0.238372 	0.907008 	2.65626 	0
21.6715 	-0.238372 	0.907008 	2.65626 	0
21.7417 	-0.238372 	0.907008 	2.65626 	0
21.8118 	-0.238372 	0.907008 	2.65626 	0
21.8819 	-0.238372 	0.907008 	2.65626 	0
21.9521 	-0.238372 	0.907008 	2.65626 	0
22.0222 	-0.238372 	0.907008 	2.65626 	0
22.0923 	-0.306956 	0.981394 	2.83378 	2.11057e-19
22.1625 	-0.306956 	0.981394 	2.83378 	2.11057e-19
22.2326 	-0.306956 	0.981394 	2.83378 	2.11057e-19
22.3027 	-0.306956 	0.981394 	2.83378 	2.11057e-19
22.3729 	-0.306956 	0.981394 	2.83378 	2.11057e-19
22.443 	-0.306956 	0.981394 	2.83378 	2.11057e-19
22.5131 	-0.306956 	0.981394 	2.83378 	2.11057e-19
22.5833 	-0.306956 	0.981394 	2.83378 	2.11057e-19
22.6534 	-0.306956 	0.981394 	2.83378 	2.11057e-19
22.7235 	-0.306956 	0.981394 	2.83378 	2.11057e-19
22.7937 	-0.306956 	0.981394 	2.83378 	2.11057e-19
22.8638 	-0.358627 	1.06693 	2.9256 	-5.67144e-19
22.9339 	-0.358627 	1.06693 	2.9256 	-5.67144e-19
23.0041 	-0.358627 	1.06693 	2.9256 	-5.67144e-19
23.0742 	-0.227624 	0.770142 	1.82591 	-5.59505e-20
23.1443 	-0.227624 	0.770142 	1.82591 	-5.59505e-20
23.2145 	-0.227624 	0.770142 	1.82591 	-5.59505e-20
23.2846 	-0.227624 	0.770142 	1.82591 	-5.59505e-20
23.3548 	-0.227624 	0.770142 	1.82591 	-5.59505e-20
23.4249 	-0.227624 	0.770142 	1.82591 	-5.59505e-20
23.495 	-0.227624 	0.770142 	1.82591 	-5.59505e-20
23.5652 	-0.227624 	0.770142 	1.82591 	-5.59505e-20
23.6353 	-0.227624 	0.770142 	1.82591 	-5.59505e-20
23.7054 	-0.270481 	0.824314 	1.93934 	2.75771e-20
23.7756 	-0.270481 	0.824314 	1.93934 	2.75771e-20
23.8457 	-0.270481 	0.824314 	1.93934 	2.75771e-20
23.9158 	-0.270481 	0.824314 	1.93934 	2.75771e-20
23.986 	-0.270481 	0.824314 	1.93934 	2.75771e-20
24.0561 	-0.270481 	0.824314 	1.93934 	2.75771e-20
24.1262 	-0.270481 	0.824314 	1.93934 	2.75771e-20
24.1964 	-0.270481 	0.824314 	1.93934 	2.75771e-20
24.2665 	-0.270481 	0.824314 	1.93934 	2.75771e-20
24.3366 	-0.270481 	0.824314 	1.93934 	2.75771e-20
24.4068 	-0.270481 	0.824314 	1.93934 	2.75771e-20
24.4769 	-0.270481 	0.824314 	1.93934 	2.75771e-20
24.547 	-0.270481 	0.824314 	1.93934 	2.75771e-20
24.6172 	-0.295922 	0.862947 	2.0062 	-4.1425e-19
24.6873 	-0.295922 	0.862947 	2.0062 	-4.1425e-19
24.7574 	-0.295922 	0.862947 	2.0062 	-4.1425e-19
24.8276 	-0.295922 	0.862947 	2.0062 	-4.1425e-19
24.8977 	-0.295922 	0.862947 	2.0062 	-4.1425e-19
24.9678 	-0.295922 	0.862947 	2.0062 	-4.1425e-19
25.038 	-0.295922 	0.862947 	2.0062 	-4.1425e-19
25.1081 	-0.295922 	0.862947 	2.0062 	-4.1425e-19
25.1782 	-0.295922 	0.862947 	2.0062 	-4.1425e-19
25.2484 	-0.295922 	0.862947 	2.0062 	-4.1425e-19
25.3185 	-0.295922 	0.862947 	2.0062 	-4.1425e-19
25.3886 	-0.295922 	0.862947 	2.0062 	-4.1425e-19
25.4588 	-0.302324 	0.893497 	2.01618 	4.16531e-19
25.5289 	-0.302324 	0.893497 	2.01618 	4.16531e-19
25.5991 	-0.302324 	0.893497 	2.01618 	4.16531e-19
25.6692 	-0.302324 	0.893497 	2.01618 	4.16531e-19
25.7393 	-0.302324 	0.893497 	2.01618 	4.16531e-19
25.8095 	-0.302324 	0.893497 	2.01618 	4.16531e-19
25.8796 	-0.302324 	0.893497 	2.01618 	4.16531e-19
25.9497 	-0.302324 	0.893497 	2.01618 	4.16531e-19
26.0199 	-0.302324 	0.893497 	2.01618 	4.16531e-19
26.09 	-0.36405 	0.610957 	1.52232 	1.01754e-19
26.1601 	-0.36405 	0.610957 	1.52232 	1.01754e-19
26.2303 	-0.36405 	0.610957 	1.52232 	1.01754e-19
26.3004 	-0.36405 	0.610957 	1.52232 	1.01754e-19
26.3705 	-0.36405 	0.610957 	1.52232 	1.01754e-19
26.4407 	-0.375735 	0.612961 	1.52385 	-9.61141e-20
26.5108 	-0.375735 	0.612961 	1.52385 	-9.61141e-20
26.5809 	-0.375735 	0.612961 	1.52385 	-9.61141e-20
26.6511 	-0.375735 	0.612961 	1.52385 	-9.61141e-20
26.7212 	-0.375735 	0.612961 	1.52385 	-9.61141e-20
26.7913 	-0.375735 	0.612961 	1.52385 	-9.61141e-20
26.8615 	-0.375735 	0.612961 	1.52385 	-9.61141e-20
26.9316 	-0.375735 	0.612961 	1.52385 	-9.61141e-20
27.0017 	-0.375735 	0.612961 	1.52385 	-9.61141e-20
27.0719 	-0.375735 	0.612961 	1.52385 	-9.61141e-20
27.142 	-0.375735 	0.612961 	1.52385 	-9.61141e-20
27.2121 	-0.375735 	0.612961 	1.52385 	-9.61141e-20
27.2823 	-0.375735 	0.612961 	1.52385 	-9.61141e-20
27.3524 	-0.368882 	0.648014 	1.51363 	0
27.4225 	-0.368882 	0.648014 	1.51363 	0
27.4927 	-0.368882 	0.648014 	1.51363 	0
27.5628 	-0.368882 	0.648014 	1.51363 	0
27.6329 	-0.368882 	0.648014 	1.51363 	0
27.7031 	-0.368882 	0.648014 	1.51363 	0
27.7732 	-0.368882 	0.648014 	1.51363 	0
27.8434 	-0.368882 	0.648014 	1.51363 	0
27.9135 	-0.368882 	0.648014 	1.51363 	0
27.9836 	-0.368882 	0.648014 	1.51363 	0
28.0538 	-0.368882 	0.648014 	1.51363 	0
28.1239 	-0.368882 	0.648014 	1.51363 	0
28.194 	-0.368882 	0.648014 	1.51363 	0
28.2642 	-0.368882 	0.648014 	1.51363 	0
28.3343 	-0.368882 	0.648014 	1.51363 	0
28.4044 	-0.348869 	0.787018 	1.48485 	0
28.4746 	-0.348869 	0.787018 	1.48485 	0
28.5447 	-0.348869 	0.787018 	1.48485 	0
28.6148 	-0.348869 	0.787018 	1.48485 	0
28.685 	-0.348869 	0.787018 	1.48485 	0
28.7551 	-0.348869 	0.787018 	1.48485 	0
28.8252 	-0.348869 	0.787018 	1.48485 	0
28.8954 	-0.348869 	0.787018 	1.48485 	0
28.9655 	-0.348869 	0.787018 	1.48485 	0
29.0356 	-0.348869 	0.787018 	1.48485 	0
29.1058 	-0.348869 	0.787018 	1.48485 	0
29.1759 	-0.348869 	0.787018 	1.48485 	0
29.246 	-0.348869 	0.787018 	1.48485 	0
29.3162 	-0.348869 	0.787018 	1.48485 	0
29.3863 	-0.348869 	0.787018 	1.48485 	0
29.4564 	-0.346863 	0.90735 	1.45504 	-1.56451e-19
29.5266 	-0.346863 	0.90735 	1.45504 	-1.56451e-19
29.5967 	-0.346863 	0.90735 	1.45504 	-1.56451e-19
29.6668 	-0.346863 	0.90735 	1.45504 	-1.56451e-19
29.737 	-0.346863 	0.90735 	1.45504 	-1.56451e-19
29.8071 	-0.346863 	0.90735 	1.45504 	-1.56451e-19
29.8773 	-0.346863 	0.90735 	1.45504 	-1.56451e-19
29.9474 	-0.346863 	0.90735 	1.45504 	-1.56451e-19
30.0175 	-0.346863 	0.90735 	1.45504 	-1.56451e-19
30.0877 	-0.346863 	0.90735 	1.45504 	-1.56451e-19
30.1578 	-0.346863 	0.90735 	1.45504 	-1.56451e-19
30.2279 	-0.346863 	0.90735 	1.45504 	-1.56451e-19
30.2981 	-0.346863 	0.90735 	1.45504 	-1.56451e-19
30.3682 	-0.346863 	0.90735 	1.45504 	-1.56451e-19
30.4383 	-0.346863 	0.90735 	1.45504 	-1.56451e-19
30.5085 	-0.346863 	0.90735 	1.45504 	-1.56451e-19
30.5786 	-0.394221 	0.938272 	1.45027 	-1.71239e-20
30.6487 	-0.394221 	0.938272 	1.45027 	-1.71239e-20
30.7189 	-0.394221 	0.938272 	1.45027 	-1.71239e-20
30.789 	-0.394221 	0.938272 	1.45027 	-1.71239e-20
30.8591 	-0.394221 	0.938272 	1.45027 	-1.71239e-20
30.9293 	-0.394221 	0.938272 	1.45027 	-1.71239e-20
30.9994 	-0.394221 	0.938272 	1.45027 	-1.71239e-20
31.0695 	-0.394221 	0.938272 	1.45027 	-1.71239e-20
31.1397 	-0.394221 	0.938272 	1.45027 	-1.71239e-20
31.2098 	-0.394221 	0.938272 	1.45027 	-1.71239e-20
31.2799 	-0.394221 	0.938272 	1.45027 	-1.71239e-20
31.3501 	-0.394221 	0.938272 	1.45027 	-1.71239e-20
31.4202 	-0.394221 	0.938272 	1.45027 	-1.71239e-20
31.4903 	-0.394221 	0.938272 	1.45027 	-1.71239e-20
31.5605 	-0.498845 	0.841629 	1.23295 	-3.24205e-19
31.6306 	-0.498845 	0.841629 	1.23295 	-3.24205e-19
31.7007 	-0.596946 	0.801806 	1.14922 	1.96835e-19
31.7709 	-0.596946 	0.801806 	1.14922 	1.96835e-19
31.841 	-0.596946 	0.801806 	1.14922 	1.96835e-19
31.9111 	-0.596946 	0.801806 	1.14922 	1.96835e-19
31.9813 	-0.596946 	0.801806 	1.14922 	1.96835e-19
32.0514 	-0.596946 	0.801806 	1.14922 	1.96835e-19
32.1216 	-0.596946 	0.801806 	1.14922 	1.96835e-19
32.1917 	-0.596946 	0.801806 	1.14922 	1.96835e-19
32.2618 	-0.596946 	0.801806 	1.14922 	1.96835e-19
32.332 	-0.596946 	0.801806 	1.14922 	1.96835e-19
32.4021 	-0.596946 	0.801806 	1.14922 	1.96835e-19
32.4722 	-0.596946 	0.801806 	1.14922 	1.96835e-19
32.5424 	-0.596946 	0.801806 	1.14922 	1.96835e-19
32.6125 	-0.596946 	0.801806 	1.14922 	1.96835e-19
32.6826 	-0.596946 	0.801806 	1.14922 	1.96835e-19
32.7528 	-0.596946 	0.801806 	1.14922 	1.96835e-19
32.8229 	-0.596946 	0.801806 	1.14922 	1.96835e-19
32.893 	-0.596946 	0.801806 	1.14922 	1.96835e-19
32.9632 	-0.757511 	0.639969 	1.06884 	4.81825e-20
33.0333 	-0.757511 	0.639969 	1.06884 	4.81825e-20
33.1034 	-0.757511 	0.639969 	1.06884 	4.81825e-20
33.1736 	-0.757511 	0.639969 	1.06884 	4.81825e-20
33.2437 	-0.757511 	0.639969 	1.06884 	4.81825e-20
33.3138 	-0.757511 	0.639969 	1.06884 	4.81825e-20
33.384 	-0.757511 	0.639969 	1.06884 	4.81825e-20
33.4541 	-0.757511 	0.639969 	1.06884 	4.81825e-20
33.5242 	-0.757511 	0.639969 	1.06884 	4.81825e-20
33.5944 	-0.757511 	0.639969 	1.06884 	4.81825e-20
33.6645 	-0.757511 	0.639969 	1.06884 	4.81825e-20
33.7346 	-0.757511 	0.639969 	1.06884 	4.81825e-20
33.8048 	-0.757511 	0.639969 	1.06884 	4.81825e-20
33.8749 	-0.757511 	0.639969 	1.06884 	4.81825e-20
33.945 	-0.757511 	0.639969 	1.06884 	4.81825e-20
34.0152 	-0.757511 	0.639969 	1.06884 	4.81825e-20
34.0853 	-0.757511 	0.639969 	1.06884 	4.81825e-20
34.1554 	-0.757511 	0.639969 	1.06884 	4.81825e-20
34.2256 	-0.871939 	0.310906 	1.06603 	-8.82694e-20
34.2957 	-0.871939 	0.310906 	1.06603 	-8.82694e-20
34.3659 	-0.871939 	0.310906 	1.06603 	-8.82694e-20
34.436 	-0.871939 	0.310906 	1.06603 	-8.82694e-20
34.5061 	-0.871939 	0.310906 	1.06603 	-8.82694e-20
34.5763 	-0.871939 	0.310906 	1.06603 	-8.82694e-20
34.6464 	-0.871939 	0.310906 	1.06603 	-8.82694e-20
34.7165 	-0.871939 	0.310906 	1.06603 	-8.82694e-20
34.7867 	-0.871939 	0.310906 	1.06603 	-8.82694e-20
34.8568 	-0.871939 	0.310906 	1.06603 	-8.82694e-20
34.9269 	-0.871939 	0.310906 	1.06603 	-8.82694e-20
34.9971 	-0.871939 	0.310906 	1.06603 	-8.82694e-20
35.0672 	-0.871939 	0.310906 	1.06603 	-8.82694e-20
35.1373 	-0.871939 	0.310906 	1.06603 	-8.82694e-20
35.2075 	-0.871939 	0.310906 	1.06603 	-8.82694e-20
35.2776 	-0.871939 	0.310906 	1.06603 	-8.82694e-20
35.3477 	-0.871939 	0.310906 	1.06603 	-8.82694e-20
35.4179 	-0.871939 	0.310906 	1.06603 	-8.82694e-20
35.488 	-0.871939 	0.310906 	1.06603 	-8.82694e-20
35.5581 	-0.871939 	0.310906 	1.06603 	-8.82694e-20
35.6283 	-0.780285 	-0.0797956 	1.157 	-1.40659e-20
35.6984 	-0.780285 	-0.0797956 	1.157 	-1.40659e-20
35.7685 	-0.780285 	-0.0797956 	1.157 	-1.40659e-20
35.8387 	-0.780285 	-0.0797956 	1.157 	-1.40659e-20
35.9088 	-0.780285 	-0.0797956 	1.157 	-1.40659e-20
35.9789 	-0.780285 	-0.0797956 	1.157 	-1.40659e-20
36.0491 	-0.780285 	-0.0797956 	1.157 	-1.40659e-20
36.1192 	-0.780285 	-0.0797956 	1.157 	-1.40659e-20
36.1893 	-0.780285 	-0.0797956 	1.157 	-1.40659e-20
36.2595 	-0.780285 	-0.0797956 	1.157 	-1.40659e-20
36.3296 	-0.780285 	-0.0797956 	1.157 	-1.40659e-20
36.3997 	-0.780285 	-0.0797956 	1.157 	-1.40659e-20
36.4699 	-0.780285 	-0.0797956 	1.157 	-1.40659e-20
36.54 	-0.780285 	-0.0797956 	1.157 	-1.40659e-20
36.6102 	-0.780285 	-0.0797956 	1.157 	-1.40659e-20
36.6803 	-0.780285 	-0.0797956 	1.157 	-1.40659e-20
36.7504 	-0.780285 	-0.0797956 	1.157 	-1.40659e-20
36.8206 	-0.780285 	-0.0797956 	1.157 	-1.40659e-20
36.8907 	-0.780285 	-0.0797956 	1.157 	-1.40659e-20
36.9608 	-0.780285 	-0.0797956 	1.157 	-1.40659e-20
37.031 	-0.780285 	-0.0797956 	1.157 	-1.40659e-20
37.1011 	-0.591862 	-0.329467 	1.25648 	0
37.1712 	-0.591862 	-0.329467 	1.25648 	0
37.2414 	-0.591862 	-0.329467 	1.25648 	0
37.3115 	-0.591862 	-0.329467 	1.25648 	0
37.3816 	-0.591862 	-0.329467 	1.25648 	0
37.4518 	-0.591862 	-0.329467 	1.25648 	0
37.5219 	-0.591862 	-0.329467 	1.25648 	0
37.592 	-0.591862 	-0.329467 	1.25648 	0
37.6622 	-0.591862 	-0.329467 	1.25648 	0
37.7323 	-0.591862 	-0.329467 	1.25648 	0
37.8024 	-0.591862 	-0.329467 	1.25648 	0
37.8726 	-0.591862 	-0.329467 	1.25648 	0
37.9427 	-0.591862 	-0.329467 	1.25648 	0
38.0128 	-0.591862 	-0.329467 	1.25648 	0
38.083 	-0.591862 	-0.329467 	1.25648 	0
38.1531 	-0.591862 	-0.329467 	1.25648 	0
38.2232 	-0.591862 	-0.329467 	1.25648 	0
38.2934 	-0.397639 	-0.446198 	1.37246 	0
38.3635 	-0.397639 	-0.446198 	1.37246 	0
38.4336 	-0.397639 	-0.446198 	1.37246 	0
38.5038 	-0.397639 	-0.446198 	1.37246 	0
38.5739 	-0.397639 	-0.446198 	1.37246 	0
38.644 	-0.397639 	-0.446198 	1.37246 	0
38.7142 	-0.397639 	-0.446198 	1.37246 	0
38.7843 	-0.397639 	-0.446198 	1.37246 	0
38.8545 	-0.397639 	-0.446198 	1.37246 	0
38.9246 	-0.397639 	-0.446198 	1.37246 	0
38.9947 	-0.397639 	-0.446198 	1.37246 	0
39.0649 	-0.397639 	-0.446198 	1.37246 	0
39.135 	-0.397639 	-0.446198 	1.37246 	0
39.2051 	-0.397639 	-0.446198 	1.37246 	0
39.2753 	-0.397639 	-0.446198 	1.37246 	0
39.3454 	-0.397639 	-0.446198 	1.37246 	0
39.4155 	-0.397639 	-0.446198 	1.37246 	0
39.4857 	-0.397639 	-0.446198 	1.37246 	0
39.5558 	-0.232826 	-0.469362 	1.49231 	0
39.6259 	-0.232826 	-0.469362 	1.49231 	0
39.6961 	-0.232826 	-0.469362 	1.49231 	0
39.7662 	-0.232826 	-0.469362 	1.49231 	0
39.8363 	-0.232826 	-0.469362 	1.49231 	0
39.9065 	-0.232826 	-0.469362 	1.49231 	0
39.9766 	-0.232826 	-0.469362 	1.49231 	0
40.0467 	-0.232826 	-0.469362 	1.49231 	0
40.1169 	-0.232826 	-0.469362 	1.49231 	0
40.187 	-0.232826 	-0.469362 	1.49231 	0
40.2571 	-0.232826 	-0.469362 	1.49231 	0
40.3273 	-0.232826 	-0.469362 	1.49231 	0
40.3974 	-0.232826 	-0.469362 	1.49231 	0
40.4675 	-0.232826 	-0.469362 	1.49231 	0
40.5377 	-0.232826 	-0.469362 	1.49231 	0
40.6078 	-0.232826 	-0.469362 	1.49231 	0
40.6779 	-0.232826 	-0.469362 	1.49231 	0
40.7481 	-0.105579 	-0.428737 	1.60174 	0
40.8182 	-0.105579 	-0.428737 	1.60174 	0
40.8883 	-0.105579 	-0.428737 	1.60174 	0
40.9585 	-0.105579 	-0.428737 	1.60174 	0
41.0286 	-0.105579 	-0.428737 	1.60174 	0
41.0988 	-0.105579 	-0.428737 	1.60174 	0
41.1689 	-0.105579 	-0.428737 	1.60174 	0
41.239 	-0.105579 	-0.428737 	1.60174 	0
41.3092 	-0.105579 	-0.428737 	1.60174 	0
41.3793 	-0.105579 	-0.428737 	1.60174 	0
41.4494 	-0.105579 	-0.428737 	1.60174 	0
41.5196 	-0.105579 	-0.428737 	1.60174 	0
41.5897 	-0.105579 	-0.428737 	1.60174 	0
41.6598 	-0.105579 	-0.428737 	1.60174 	0
41.73 	-0.105579 	-0.428737 	1.60174 	0
41.8001 	-0.105579 	-0.428737 	1.60174 	0
41.8702 	-0.105579 	-0.428737 	1.60174 	0
41.9404 	-0.105579 	-0.428737 	1.60174 	0
42.0105 	-0.0273478 	-0.360269 	1.68655 	0
42.0806 	-0.0273478 	-0.360269 	1.68655 	0
42.1508 	-0.0273478 	-0.360269 	1.68655 	0
42.2209 	-0.0273478 	-0.360269 	1.68655 	0
42.291 	-0.0273478 	-0.360269 	1.68655 	0
42.3612 	-0.0273478 	-0.360269 	1.68655 	0
42.4313 	-0.0273478 	-0.360269 	1.68655 	0
42.5014 	-0.0273478 	-0.360269 	1.68655 	0
42.5716 	-0.0273478 	-0.360269 	1.68655 	0
42.6417 	-0.0273478 	-0.360269 	1.68655 	0
42.7118 	-0.0273478 	-0.360269 	1.68655 	0
42.782 	-0.0273478 	-0.360269 	1.68655 	0
42.8521 	-0.0273478 	-0.360269 	1.68655 	0
42.9222 	-0.0273478 	-0.360269 	1.68655 	0
42.9924 	-0.0273478 	-0.360269 	1.68655 	0
43.0625 	-0.0273478 	-0.360269 	1.68655 	0
43.1327 	-0.0273478 	-0.360269 	1.68655 	0
43.2028 	0.014183 	-0.290183 	1.74125 	0
43.2729 	0.014183 	-0.290183 	1.74125 	0
43.3431 	0.014183 	-0.290183 	1.74125 	0
43.4132 	0.014183 	-0.290183 	1.74125 	0
43.4833 	0.014183 	-0.290183 	1.74125 	0
43.5535 	0.014183 	-0.290183 	1.74125 	0
43.6236 	0.014183 	-0.290183 	1.74125 	0
43.6937 	0.014183 	-0.290183 	1.74125 	0
43.7639 	0.014183 	-0.290183 	1.74125 	0
43.834 	0.014183 	-0.290183 	1.74125 	0
43.9041 	0.014183 	-0.290183 	1.74125 	0
43.9743 	0.014183 	-0.290183 	1.74125 	0