/*--------------------------------*- C++ -*----------------------------------*\
| =========                 |                                                 |
| \\      /  F ield         | OpenFOAM: The Open Source CFD Toolbox           |
|  \\    /   O peration     | Version:  2306                                  |
|   \\  /    A nd           | Website:  www.openfoam.com                      |
|    \\/     M anipulation  |                                                 |
\*---------------------------------------------------------------------------*/
FoamFile
{
    version     2.0;
    format      ascii;
    arch        "LSB;label=32;scalar=64";
    class       volScalarField;
    location    "51";
    object      p;
}
// * * * * * * * * * * * * * * * * * * * * * * * * * * * * * * * * * * * * * //

dimensions      [0 2 -2 0 0 0 0];

internalField   nonuniform List<scalar> 
8800
(
0.855142
0.80709
0.768712
0.740068
0.719439
0.70468
0.694069
0.686555
0.681704
0.679625
0.680892
0.685096
0.691766
0.701105
0.713861
0.73145
0.755895
0.789508
0.831955
0.88908
0.687676
0.694881
0.703318
0.706732
0.704813
0.699284
0.692564
0.686391
0.681621
0.67875
0.678459
0.68097
0.685483
0.691482
0.698394
0.705015
0.709148
0.708636
0.702574
0.693597
0.664388
0.670564
0.67476
0.678117
0.680612
0.681402
0.680284
0.678125
0.676073
0.675147
0.676103
0.678497
0.681329
0.683547
0.684081
0.682552
0.679705
0.676068
0.671534
0.66775
0.659259
0.661959
0.664676
0.666982
0.668622
0.669939
0.670836
0.671025
0.670744
0.670689
0.671429
0.67258
0.673368
0.673305
0.672509
0.671314
0.669565
0.667065
0.66464
0.663109
0.654074
0.655495
0.657291
0.65934
0.661085
0.662381
0.663394
0.66425
0.664907
0.665483
0.666114
0.66656
0.666585
0.666229
0.665531
0.664326
0.662628
0.660747
0.659424
0.658601
0.649076
0.649989
0.651221
0.652796
0.65444
0.655953
0.65721
0.658268
0.659242
0.660139
0.660806
0.661095
0.661023
0.660582
0.659706
0.658486
0.657132
0.655863
0.65504
0.654496
0.64422
0.644884
0.645838
0.64713
0.648535
0.649995
0.651426
0.652727
0.653906
0.654996
0.655796
0.656143
0.656046
0.655523
0.654692
0.653722
0.6527
0.651772
0.651185
0.650785
0.639481
0.639994
0.640769
0.641888
0.643153
0.644518
0.645955
0.647412
0.648816
0.650124
0.651104
0.651551
0.6515
0.651085
0.650457
0.649715
0.648931
0.648238
0.647803
0.64749
0.634797
0.635205
0.635853
0.636848
0.638039
0.639351
0.640779
0.642316
0.643912
0.645478
0.646686
0.647305
0.64743
0.647226
0.646816
0.646279
0.645691
0.645187
0.644861
0.644607
0.630086
0.630418
0.630978
0.631892
0.633034
0.634327
0.635785
0.637411
0.639185
0.641027
0.642535
0.643428
0.643814
0.643851
0.643659
0.643334
0.642931
0.642582
0.64234
0.642128
0.625263
0.625539
0.626038
0.626905
0.628026
0.629341
0.630866
0.632622
0.634612
0.636769
0.638656
0.639908
0.640608
0.640916
0.640961
0.640846
0.640627
0.640413
0.640237
0.640054
0.620244
0.620475
0.620935
0.621785
0.622926
0.624304
0.625939
0.627878
0.630145
0.632695
0.635047
0.636731
0.637797
0.638415
0.638721
0.638824
0.638784
0.638692
0.638571
0.63841
0.61494
0.615137
0.615577
0.61644
0.617641
0.619128
0.620927
0.623118
0.625743
0.62879
0.631707
0.633901
0.635391
0.636359
0.636955
0.637283
0.637437
0.63746
0.637385
0.637238
0.609257
0.609425
0.609862
0.610767
0.612071
0.613716
0.615748
0.618268
0.621353
0.62502
0.628623
0.631423
0.63341
0.634779
0.635704
0.636303
0.636644
0.636774
0.636737
0.636601
0.603081
0.603225
0.603675
0.604651
0.606104
0.607968
0.610306
0.61325
0.616914
0.621345
0.625781
0.629308
0.631884
0.633723
0.635019
0.63591
0.636464
0.636706
0.636707
0.636576
0.596282
0.596401
0.596878
0.597957
0.59961
0.601761
0.604492
0.607971
0.612354
0.617719
0.623167
0.627571
0.63085
0.633245
0.634978
0.6362
0.636992
0.637351
0.637386
0.637258
0.588691
0.588786
0.589304
0.590521
0.592431
0.594948
0.598184
0.602344
0.607623
0.614135
0.620806
0.626259
0.630368
0.633416
0.635671
0.637283
0.638336
0.638818
0.638885
0.638756
0.580081
0.580181
0.580751
0.582124
0.584362
0.587354
0.591236
0.596255
0.602656
0.610581
0.618727
0.625421
0.630507
0.634322
0.637195
0.639259
0.640613
0.641225
0.641325
0.64119
0.57016
0.570241
0.5709
0.572495
0.575161
0.578766
0.583465
0.589566
0.597362
0.607017
0.616937
0.625105
0.631347
0.636067
0.639655
0.642255
0.643947
0.644701
0.644831
0.644688
0.558563
0.558626
0.559383
0.561293
0.56451
0.568897
0.57464
0.582109
0.591643
0.603413
0.615463
0.625373
0.63297
0.638757
0.643173
0.6464
0.648473
0.649376
0.649533
0.649379
0.54476
0.544811
0.545712
0.54803
0.551974
0.557393
0.564502
0.573738
0.585463
0.599814
0.614395
0.626336
0.63549
0.642504
0.647889
0.651827
0.654314
0.655369
0.655548
0.655378
0.527991
0.528031
0.529145
0.532042
0.536982
0.543799
0.552732
0.564274
0.578773
0.596277
0.613821
0.628089
0.639016
0.647425
0.653899
0.658642
0.661569
0.662767
0.662959
0.66277
0.507133
0.507171
0.508623
0.512384
0.518758
0.527544
0.538977
0.553559
0.571542
0.592827
0.613814
0.630718
0.643639
0.653613
0.661286
0.666916
0.670288
0.671609
0.671799
0.671588
0.480452
0.480508
0.482542
0.487702
0.49629
0.507974
0.522934
0.541573
0.56394
0.589722
0.614601
0.634383
0.649458
0.661134
0.670121
0.676672
0.680451
0.681848
0.682015
0.681779
0.444933
0.44509
0.448321
0.456069
0.46841
0.484535
0.504536
0.528508
0.55624
0.587205
0.616369
0.639227
0.656566
0.67002
0.680401
0.68784
0.691928
0.693322
0.693435
0.693175
0.39483
0.395802
0.402246
0.415315
0.434181
0.457161
0.484098
0.51479
0.548835
0.585571
0.619288
0.645326
0.664966
0.680217
0.691989
0.7002
0.70443
0.705714
0.705745
0.705462
0.321436
0.328662
0.343536
0.36648
0.395095
0.427254
0.462677
0.501129
0.542215
0.585258
0.623894
0.653379
0.675558
0.692821
0.706069
0.715
0.719317
0.720492
0.720472
0.720224
0.242652
0.259302
0.283414
0.316999
0.355815
0.397312
0.441307
0.487738
0.5363
0.586399
0.630977
0.664877
0.690341
0.710098
0.72525
0.734873
0.739063
0.740033
0.74004
0.739898
0.176379
0.19618
0.22805
0.270684
0.318536
0.368842
0.421176
0.475457
0.531368
0.588328
0.638575
0.676591
0.705098
0.727117
0.743603
0.753551
0.757565
0.758457
0.758548
0.758474
0.12206
0.143721
0.181058
0.230126
0.28508
0.34281
0.402538
0.464037
0.526862
0.590357
0.64598
0.687852
0.719102
0.743068
0.760805
0.771321
0.775714
0.776684
0.776773
0.77674
0.0768841
0.0997883
0.140909
0.195076
0.255728
0.319579
0.385635
0.453539
0.522694
0.592301
0.653001
0.698496
0.732344
0.758196
0.777256
0.788637
0.793396
0.794383
0.794517
0.794519
0.0384317
0.0620605
0.106041
0.164271
0.229721
0.298785
0.370329
0.443919
0.518823
0.594093
0.659548
0.708451
0.744737
0.772437
0.792685
0.804895
0.810084
0.811228
0.811398
0.811421
0.00469943
0.0288194
0.0750975
0.136651
0.206165
0.279766
0.356176
0.434884
0.51505
0.595582
0.665492
0.717577
0.756123
0.785409
0.806723
0.819634
0.82523
0.826634
0.826867
0.826899
-0.0257798
-0.00122984
0.0469318
0.111331
0.184347
0.26192
0.342698
0.426074
0.511116
0.596591
0.67071
0.725778
0.766374
0.797018
0.819265
0.832725
0.838651
0.840284
0.840553
0.84058
-0.053951
-0.0290062
0.0207973
0.0876143
0.163718
0.244812
0.329519
0.417174
0.506774
0.596945
0.67511
0.733023
0.77551
0.807417
0.830383
0.844222
0.850401
0.852197
0.852483
0.852493
-0.0805858
-0.0552068
-0.00386389
0.0650143
0.143878
0.228111
0.316367
0.407956
0.501833
0.596515
0.678647
0.739347
0.783649
0.816728
0.840254
0.854337
0.860676
0.862559
0.862827
0.862808
-0.106043
-0.0802109
-0.0277306
0.0432326
0.124537
0.211585
0.303057
0.398269
0.49617
0.59522
0.681289
0.74479
0.790913
0.825075
0.849098
0.86329
0.869667
0.871553
0.871824
0.871774
-0.130725
-0.104298
-0.0507835
0.0220356
0.105506
0.19508
0.289474
0.388019
0.489699
0.592978
0.683004
0.749404
0.797423
0.832671
0.85708
0.871314
0.877675
0.879559
0.879806
0.879736
-0.154761
-0.127893
-0.073173
0.001266
0.0866759
0.178516
0.275551
0.377156
0.48237
0.589741
0.683771
0.753237
0.803305
0.839668
0.864409
0.878624
0.884919
0.886732
0.886914
0.886808
-0.178273
-0.150833
-0.0950538
-0.0191557
0.0679997
0.161865
0.261272
0.36566
0.474163
0.585468
0.683549
0.756312
0.808644
0.846189
0.871232
0.88536
0.891472
0.893151
0.89326
0.893114
-0.201355
-0.173302
-0.116501
-0.0392516
0.0494585
0.145133
0.246659
0.35356
0.465084
0.580129
0.682292
0.758614
0.813504
0.852367
0.877685
0.891596
0.897394
0.89886
0.898887
0.898716
-0.224022
-0.195274
-0.137511
-0.0590143
0.0310894
0.128353
0.231763
0.340904
0.455167
0.573709
0.679946
0.76009
0.817898
0.858343
0.883966
0.897474
0.902755
0.903925
0.903869
0.903683
-0.246111
-0.216708
-0.158018
-0.0784135
0.0129299
0.111594
0.216646
0.327768
0.444474
0.566237
0.676452
0.760642
0.82178
0.864259
0.890377
0.90326
0.907677
0.908395
0.908244
0.90806
-0.26759
-0.237568
-0.178007
-0.0973945
-0.00496082
0.0949179
0.201403
0.314233
0.433088
0.557747
0.671766
0.76014
0.825037
0.870174
0.897294
0.90946
0.912483
0.912356
0.912044
0.911904
-0.288528
-0.257812
-0.197447
-0.115921
-0.0225179
0.0784103
0.186123
0.300405
0.421102
0.548307
0.665847
0.758442
0.827466
0.875966
0.905024
0.916942
0.918115
0.916242
0.91537
0.915455
-0.308745
-0.277421
-0.216277
-0.133927
-0.0396808
0.0621566
0.170904
0.286396
0.408636
0.538021
0.658685
0.755387
0.828793
0.881251
0.913456
0.926653
0.926639
0.922174
0.919127
0.91845
-0.328331
-0.29639
-0.234508
-0.151441
-0.0564824
0.0461143
0.155691
0.272148
0.39562
0.526815
0.650141
0.750703
0.828712
0.885466
0.921822
0.938713
0.940297
0.934406
0.925174
0.915867
-0.34721
-0.314701
-0.252267
-0.16866
-0.0732143
0.0299481
0.140066
0.257174
0.381511
0.514049
0.639558
0.743588
0.826634
0.8878
0.928202
0.950468
0.954693
0.943908
0.924
0.917272
-0.365202
-0.332361
-0.269373
-0.185378
-0.089571
0.0139868
0.124251
0.241803
0.366621
0.499987
0.627033
0.733558
0.821863
0.88714
0.928203
0.950382
0.957915
0.934133
0.868186
0.83917
-0.381832
-0.350608
-0.285436
-0.201051
-0.104768
-0.00124961
0.108552
0.22629
0.351199
0.484782
0.612566
0.720285
0.813247
0.882836
0.917295
0.933395
0.924972
0.872058
0.804002
0.762761
-0.432476
-0.36767
-0.300106
-0.216554
-0.120108
-0.0170298
0.0929959
0.210413
0.334934
0.468024
0.595613
0.7033
0.797051
0.873065
0.886346
0.885001
0.838835
0.771129
0.695698
0.654084
-0.399191
-0.382142
-0.322081
-0.238053
-0.143048
-0.0401356
0.0690003
0.185726
0.309201
0.44074
0.56625
0.67189
0.756729
0.837817
0.827599
0.717849
0.617295
0.54645
0.475022
0.50743
-0.431129
-0.400564
-0.339151
-0.255933
-0.160824
-0.058107
0.0512305
0.16731
0.289726
0.419491
0.542225
0.64381
0.719701
0.763079
0.717037
0.572224
0.449584
0.361499
0.265844
0.316718
-0.455396
-0.4224
-0.359179
-0.275778
-0.180608
-0.0779537
0.0313004
0.14656
0.267591
0.394981
0.513974
0.609487
0.676088
0.684484
0.581332
0.414793
0.268648
0.154283
0.0286593
0.0641874
-0.479212
-0.444796
-0.380229
-0.295965
-0.200653
-0.0981159
0.0106538
0.124963
0.244413
0.369046
0.483405
0.571532
0.622674
0.600384
0.445298
0.255779
0.0748225
-0.0857592
-0.267439
-0.276584
-0.502538
-0.467635
-0.402126
-0.317111
-0.221579
-0.119221
-0.0110637
0.102175
0.219794
0.341299
0.450343
0.531121
0.563179
0.505059
0.316056
0.110656
-0.0959682
-0.271038
-0.514248
-0.774629
-0.526207
-0.491243
-0.425176
-0.339637
-0.243863
-0.141623
-0.0340031
0.0781415
0.193836
0.311985
0.415421
0.487976
0.499445
0.390952
0.202967
-0.00456697
-0.20459
-0.365665
-0.441076
-0.547173
-0.551191
-0.516099
-0.449717
-0.363887
-0.268013
-0.165977
-0.0589814
0.0519063
0.165364
0.279647
0.377081
0.438863
0.426053
0.283472
0.101614
-0.08942
-0.25355
-0.342794
-0.365427
-0.381623
-0.577764
-0.542519
-0.475919
-0.389956
-0.294164
-0.192496
-0.0863579
0.0229781
0.133782
0.243546
0.334515
0.382251
0.351942
0.183178
0.00931923
-0.157104
-0.282339
-0.319897
-0.331699
-0.332896
-0.606144
-0.570671
-0.50384
-0.417837
-0.322262
-0.221183
-0.11615
-0.00869157
0.099021
0.203661
0.287288
0.320643
0.269548
0.0908294
-0.0741501
-0.221535
-0.295634
-0.312986
-0.313871
-0.31362
-0.636395
-0.600615
-0.533498
-0.447527
-0.352321
-0.252023
-0.148359
-0.0431166
0.0610899
0.160045
0.235321
0.256629
0.170629
0.00632911
-0.150375
-0.269759
-0.306496
-0.303806
-0.30306
-0.302443
-0.668222
-0.632186
-0.564793
-0.478936
-0.38425
-0.284958
-0.182951
-0.0802698
0.0200279
0.11278
0.179452
0.183777
0.0801673
-0.0725442
-0.210535
-0.282212
-0.29318
-0.296275
-0.296848
-0.296498
-0.701072
-0.664899
-0.59748
-0.511831
-0.417856
-0.319825
-0.219765
-0.120018
-0.0239731
0.0621931
0.12011
0.109211
-0.00293591
-0.139825
-0.251938
-0.290049
-0.293237
-0.293522
-0.29336
-0.293103
-0.73447
-0.698177
-0.631112
-0.545805
-0.452792
-0.356293
-0.258509
-0.162068
-0.0706277
0.00898319
0.0560947
0.0363446
-0.0812129
-0.194445
-0.280394
-0.288925
-0.289416
-0.29019
-0.290569
-0.290549
-0.767537
-0.731324
-0.664735
-0.580282
-0.488501
-0.393878
-0.298714
-0.205917
-0.119482
-0.0461682
-0.00954858
-0.0339298
-0.154615
-0.237996
-0.280031
-0.294816
-0.292753
-0.290705
-0.290034
-0.289911
-0.798656
-0.76322
-0.697408
-0.614298
-0.524201
-0.431862
-0.339704
-0.250824
-0.169727
-0.102635
-0.070414
-0.112099
-0.2243
-0.290332
-0.283338
-0.2969
-0.298632
-0.295728
-0.294091
-0.293202
-0.826229
-0.791896
-0.728046
-0.64664
-0.558827
-0.46929
-0.380587
-0.295862
-0.220119
-0.159404
-0.129159
-0.185199
-0.295961
-0.364143
-0.356953
-0.338536
-0.319529
-0.3085
-0.304629
-0.303143
-0.848129
-0.815532
-0.754523
-0.675915
-0.591099
-0.504972
-0.420237
-0.339937
-0.269282
-0.214874
-0.188804
-0.242403
-0.354599
-0.485818
-0.495237
-0.410688
-0.359815
-0.337328
-0.32946
-0.325746
-0.862119
-0.832245
-0.774894
-0.700224
-0.61948
-0.537584
-0.457376
-0.381797
-0.315894
-0.266703
-0.242397
-0.278078
-0.356104
-0.504856
-0.471464
-0.42543
-0.407907
-0.395455
-0.384667
-0.381364
-0.865514
-0.839694
-0.78726
-0.717718
-0.64224
-0.565689
-0.490649
-0.420164
-0.358656
-0.312758
-0.281296
-0.277517
-0.246674
-0.327422
-0.337904
-0.356389
-0.374812
-0.378431
-0.37962
-0.380385
-0.856239
-0.835332
-0.789423
-0.726772
-0.657901
-0.587783
-0.518751
-0.45368
-0.396387
-0.353169
-0.308994
-0.254258
-0.0946974
0.146732
-0.0482701
-0.263903
-0.351275
-0.373446
-0.380889
-0.383284
-0.831927
-0.816152
-0.779548
-0.726169
-0.665474
-0.602789
-0.540446
-0.481115
-0.42865
-0.388363
-0.337144
-0.297171
-0.177488
-0.0694103
-0.217138
-0.362126
-0.430793
-0.457245
-0.468354
-0.472803
-0.795129
-0.784893
-0.758291
-0.71601
-0.664865
-0.61038
-0.555039
-0.501352
-0.454313
-0.419216
-0.401177
-0.493604
-0.731426
-0.939698
-0.894445
-0.767768
-0.710285
-0.689077
-0.68023
-0.67845
-0.752394
-0.746584
-0.730368
-0.698964
-0.657825
-0.611173
-0.562223
-0.513688
-0.469834
-0.442
-0.432286
-0.633495
-0.92219
-1.12902
-1.01284
-0.963257
-0.910117
-0.851786
-0.79329
-0.794608
-0.713226
-0.709818
-0.701842
-0.680382
-0.647192
-0.606818
-0.562803
-0.516685
-0.473179
-0.440082
-0.4342
-0.519243
-0.725613
-1.07067
-1.39147
-1.51031
-1.47256
-1.29397
-1.11849
-1.02605
-0.684642
-0.682571
-0.678643
-0.664694
-0.637384
-0.600474
-0.558245
-0.511676
-0.462838
-0.417641
-0.404681
-0.424647
-0.464252
-0.476624
-0.421632
-0.360427
-0.348319
-0.295874
-0.225897
-0.191591
-0.662571
-0.661831
-0.660696
-0.653404
-0.631163
-0.595634
-0.551763
-0.501559
-0.446283
-0.39026
-0.343237
-0.307345
-0.160574
0.0936722
0.318889
0.482152
0.581697
0.655474
0.700238
0.718389
-0.649019
-0.648636
-0.648148
-0.644961
-0.627907
-0.592565
-0.544617
-0.488314
-0.424408
-0.348379
-0.266463
-0.160645
0.0479683
0.383041
0.715412
0.999291
1.19523
1.30853
1.36849
1.38944
-0.640229
-0.640045
-0.639642
-0.639004
-0.626717
-0.591356
-0.539126
-0.475348
-0.39847
-0.307389
-0.207056
-0.0891863
0.177356
0.548649
0.935386
1.28162
1.53099
1.67527
1.74493
1.76809
-0.634
-0.634017
-0.633739
-0.633412
-0.625128
-0.593006
-0.538113
-0.46609
-0.378662
-0.278901
-0.168826
-0.072247
0.1725
0.549039
0.932808
1.2828
1.54944
1.70512
1.77709
1.79871
-0.633427
-0.631776
-0.626739
-0.621926
-0.621381
-0.600262
-0.544123
-0.463917
-0.367768
-0.262934
-0.155861
-0.0564318
0.112824
0.449807
0.800232
1.10253
1.33709
1.47636
1.53885
1.55629
-0.659963
-0.655246
-0.644906
-0.639033
-0.642949
-0.627723
-0.560164
-0.465887
-0.360452
-0.249887
-0.145715
-0.04755
0.0850364
0.36993
0.641666
0.86634
1.04143
1.1476
1.19587
1.20861
-0.728546
-0.728745
-0.735743
-0.744466
-0.743158
-0.694101
-0.585321
-0.465982
-0.350681
-0.237544
-0.137814
-0.0450609
0.05615
0.24653
0.460378
0.631431
0.761681
0.837255
0.869709
0.877476
-0.801407
-0.815655
-0.843787
-0.858063
-0.839345
-0.743428
-0.593296
-0.454177
-0.333917
-0.224694
-0.133062
-0.0518452
0.0227557
0.1538
0.31042
0.43468
0.531708
0.588186
0.612781
0.616601
-0.758053
-0.773578
-0.800441
-0.814139
-0.788038
-0.685673
-0.542591
-0.412876
-0.303232
-0.207226
-0.128541
-0.060898
-0.00229006
0.0877296
0.201518
0.290977
0.357554
0.394722
0.408779
0.410547
-0.541087
-0.555071
-0.575937
-0.588426
-0.569746
-0.502489
-0.417305
-0.332582
-0.254274
-0.180822
-0.117703
-0.0673347
-0.0200552
0.0334791
0.10931
0.173662
0.222852
0.249679
0.260805
0.261131
-0.259478
-0.266225
-0.278688
-0.293569
-0.298567
-0.288285
-0.265077
-0.23201
-0.192885
-0.147813
-0.104415
-0.0698669
-0.0385253
-0.00172572
0.047332
0.0900582
0.120955
0.138444
0.144053
0.143477
-0.0443901
-0.0472639
-0.0562621
-0.0745505
-0.100793
-0.124838
-0.139497
-0.142964
-0.134459
-0.115304
-0.092329
-0.0709339
-0.0515772
-0.0332196
-0.00240018
0.0268995
0.0467182
0.0558845
0.0582755
0.057137
0.065652
0.0637704
0.0560201
0.0371899
0.00642037
-0.0283998
-0.0584953
-0.079065
-0.0884027
-0.086804
-0.0788026
-0.0701625
-0.0629585
-0.0528834
-0.0367709
-0.0204666
-0.00950944
-0.00486346
-0.00368633
-0.00479066
0.101951
0.100494
0.0942187
0.0784627
0.0519657
0.0202301
-0.0107923
-0.0367028
-0.054678
-0.0645182
-0.0689847
-0.0718661
-0.0731981
-0.0675035
-0.0566387
-0.0487048
-0.0451668
-0.0450182
-0.0458321
-0.0468142
0.102635
0.101544
0.0969505
0.0853859
0.0655749
0.040488
0.0137434
-0.0111954
-0.0320193
-0.048278
-0.0612621
-0.0734671
-0.0824293
-0.0794463
-0.0722762
-0.068496
-0.0679455
-0.069391
-0.0704318
-0.0711798
0.0901994
0.0894534
0.0863132
0.0783366
0.0643556
0.0457845
0.0245955
0.00324193
-0.0166162
-0.0348042
-0.0524707
-0.0706122
-0.0836553
-0.0808912
-0.0758541
-0.0751344
-0.0767278
-0.0791981
-0.0804166
-0.0809544
0.074812
0.0743396
0.0722911
0.0670033
0.0574851
0.0443055
0.0284426
0.011377
-0.00588382
-0.0231764
-0.041156
-0.0606863
-0.0736401
-0.0701505
-0.0674747
-0.0683705
-0.0722306
-0.0755047
-0.0768252
-0.0772128
0.060313
0.0600391
0.0587703
0.0553877
0.0490939
0.0400401
0.0287043
0.0159482
0.00243366
-0.0114573
-0.026304
-0.0417724
-0.050515
-0.0469726
-0.047649
-0.0515512
-0.056519
-0.059877
-0.0610538
-0.0613593
0.0477935
0.0476393
0.0469197
0.0448777
0.0409237
0.0350123
0.0273706
0.0185594
0.00917603
-0.000148273
-0.0084877
-0.0159833
-0.0189392
-0.0171072
-0.0201545
-0.026122
-0.0317947
-0.0349751
-0.036002
-0.0363128
0.0373583
0.0372839
0.0369156
0.0358011
0.0335214
0.0299563
0.0252461
0.019833
0.0144294
0.0103557
0.00973567
0.0122392
0.0178393
0.0176925
0.0102842
0.00255142
-0.00286611
-0.0053203
-0.00613606
-0.00654933
0.0285524
0.0285335
0.0283943
0.0279472
0.0268862
0.0250587
0.0225877
0.019893
0.0178734
0.0185519
0.0250163
0.0373423
0.0495564
0.047334
0.0370452
0.0288902
0.0246416
0.0231638
0.0224272
0.0218155
0.0211745
0.0211808
0.0211841
0.0211532
0.0208881
0.0202595
0.0193521
0.0186155
0.0190296
0.0230008
0.0340532
0.0513166
0.0661186
0.0621327
0.0524186
0.0465484
0.0445388
0.0436446
0.0431073
0.0423972
0.0148838
0.0148896
0.0149667
0.0151613
0.0153767
0.0154646
0.0155054
0.0159065
0.0176671
0.0231025
0.0353308
0.0527783
0.0658003
0.0614646
0.0550635
0.0523472
0.0526633
0.0535215
0.0527282
0.051815
0.00952135
0.00951789
0.0095971
0.00985773
0.0102416
0.0106415
0.0111014
0.0119393
0.0139525
0.0189977
0.0294255
0.043122
0.0513474
0.0471679
0.0446776
0.0450327
0.0475244
0.048693
0.0480811
0.0472493
0.00491918
0.00489729
0.00494487
0.00514509
0.00547559
0.00585678
0.00629295
0.00698905
0.00837508
0.0116822
0.0180066
0.0262869
0.0296714
0.0263613
0.0261576
0.0290279
0.0318772
0.0334449
0.0326811
0.0317857
0.000976944
0.000968836
0.000959472
0.000947847
0.00101158
0.00112857
0.00121694
0.0013205
0.00151122
0.00197501
0.00286456
0.00428913
0.00602348
0.00681115
0.00655534
0.00719152
0.00697367
0.00488426
0.00481285
0.00528193
-0.0802596
0.106965
0.30698
0.47503
0.609267
0.715233
0.803413
0.877561
0.907935
0.891736
0.244174
0.367146
0.495893
0.60711
0.700816
0.778517
0.841085
0.884933
0.907688
0.920548
0.463299
0.546704
0.634299
0.712223
0.779095
0.834974
0.879242
0.91184
0.935791
0.953685
0.622832
0.682141
0.743535
0.800466
0.849796
0.891597
0.925955
0.953725
0.976298
0.994573
0.747828
0.790329
0.837322
0.880449
0.918958
0.952594
0.981428
1.00574
1.02556
1.04351
0.851513
0.884531
0.922956
0.95833
0.99077
1.01996
1.04555
1.06725
1.0843
1.1019
0.943975
0.97283
1.00683
1.03899
1.06888
1.09605
1.11988
1.13972
1.15434
1.17178
1.0325
1.0619
1.09584
1.12796
1.15755
1.18414
1.20706
1.22549
1.23814
1.2556
1.12778
1.16134
1.19773
1.23143
1.26144
1.28758
1.30947
1.32655
1.33799
1.35578
1.24263
1.28118
1.31938
1.35357
1.38281
1.40746
1.42773
1.44342
1.45474
1.47308
1.38731
1.42678
1.46232
1.4927
1.51825
1.54029
1.55929
1.5748
1.58744
1.60557
1.56202
1.59406
1.61984
1.64217
1.6622
1.68093
1.69855
1.7151
1.73083
1.74903
1.74961
1.76716
1.78268
1.79926
1.81541
1.82995
1.84297
1.85694
1.87402
1.8937
1.93119
1.94216
1.9543
1.96509
1.97434
1.98389
1.99477
2.00635
2.0163
2.03147
2.1422
2.14422
2.12906
2.11383
2.10744
2.1131
2.13171
2.16212
2.19425
2.225
2.44811
2.31107
2.23477
2.19266
2.17522
2.17926
2.20661
2.26275
2.36621
2.58149
0.751435
0.748059
0.742131
0.732324
0.71938
0.706955
0.69664
0.688692
0.683033
0.679747
0.679372
0.682108
0.687226
0.694477
0.703914
0.715603
0.728734
0.740725
0.748182
0.752902
0.669449
0.675334
0.682237
0.687474
0.690319
0.689987
0.687079
0.683153
0.679582
0.677287
0.677119
0.679312
0.682996
0.687349
0.691295
0.693295
0.692181
0.68809
0.682196
0.675152
0.661793
0.66414
0.667489
0.670393
0.672606
0.674402
0.675357
0.675095
0.674057
0.67315
0.673304
0.674718
0.676526
0.677799
0.67784
0.676665
0.674854
0.672509
0.669353
0.666388
0.656651
0.657737
0.659601
0.661979
0.663935
0.66532
0.666409
0.667259
0.667717
0.66795
0.668424
0.669193
0.669725
0.669683
0.669153
0.668275
0.666866
0.664805
0.662691
0.661277
0.651556
0.652211
0.653318
0.655033
0.656833
0.658441
0.659698
0.660714
0.661621
0.662426
0.663137
0.663637
0.663766
0.663549
0.662978
0.66194
0.660495
0.658917
0.65759
0.656806
0.646633
0.647088
0.647869
0.649159
0.650646
0.652169
0.653624
0.654895
0.65601
0.65705
0.657938
0.658462
0.658572
0.658282
0.657571
0.656554
0.655402
0.654256
0.65334
0.652819
0.641841
0.642182
0.642789
0.643849
0.645129
0.646495
0.647929
0.64936
0.650704
0.65195
0.65302
0.65367
0.653815
0.653509
0.652876
0.65207
0.651201
0.650326
0.649649
0.649267
0.63714
0.637405
0.637894
0.638794
0.63995
0.641232
0.642611
0.644082
0.645596
0.647076
0.648373
0.649191
0.649444
0.649279
0.648848
0.648261
0.647591
0.646937
0.646439
0.646147
0.632453
0.632664
0.633071
0.63386
0.634935
0.636166
0.63753
0.639039
0.640679
0.64239
0.643961
0.64502
0.645495
0.645558
0.64535
0.644974
0.644502
0.644034
0.643673
0.643444
0.627698
0.627868
0.628215
0.628931
0.629958
0.631165
0.632553
0.634139
0.635925
0.637877
0.639773
0.641168
0.641948
0.642283
0.642313
0.642154
0.641883
0.641581
0.641333
0.641151
0.622787
0.622925
0.623231
0.623902
0.62491
0.626139
0.627589
0.629294
0.631276
0.633521
0.635814
0.63763
0.638777
0.639426
0.639725
0.639794
0.639721
0.639577
0.639424
0.639277
0.617637
0.617749
0.618027
0.618677
0.619702
0.620997
0.622553
0.62443
0.626677
0.629296
0.632079
0.634401
0.635978
0.636988
0.637588
0.637902
0.63803
0.638045
0.637975
0.637856
0.612157
0.612245
0.612507
0.613162
0.614241
0.615643
0.617359
0.619476
0.622068
0.625165
0.628554
0.631482
0.633565
0.634988
0.635925
0.636526
0.636874
0.637034
0.637036
0.636939
0.606242
0.60631
0.606565
0.607248
0.608417
0.609974
0.611915
0.614351
0.617382
0.621082
0.625214
0.62887
0.631553
0.633461
0.634783
0.635699
0.636288
0.636605
0.636676
0.636596
0.599771
0.599818
0.600075
0.600808
0.602107
0.603876
0.606113
0.608957
0.612544
0.616986
0.622023
0.626561
0.629963
0.632447
0.634218
0.635486
0.636354
0.636838
0.636978
0.636913
0.592596
0.592626
0.592887
0.593693
0.595168
0.597211
0.599828
0.603191
0.607478
0.612836
0.618977
0.624577
0.628837
0.632
0.634306
0.635987
0.637172
0.637837
0.638044
0.637991
0.584535
0.584552
0.584814
0.585718
0.587421
0.589806
0.592912
0.596938
0.602104
0.608597
0.616081
0.622958
0.628233
0.632193
0.635128
0.63731
0.63885
0.639713
0.63999
0.639947
0.575283
0.57527
0.575594
0.576632
0.578617
0.581453
0.585189
0.590054
0.596325
0.604228
0.613349
0.621742
0.628217
0.633114
0.636787
0.639556
0.641508
0.642591
0.64294
0.642904
0.564566
0.564527
0.564895
0.566125
0.568476
0.571892
0.576427
0.582353
0.590003
0.59964
0.610743
0.620952
0.628846
0.634856
0.6394
0.642848
0.645276
0.646601
0.647023
0.646992
0.551914
0.551849
0.552294
0.55377
0.556601
0.560775
0.566344
0.573637
0.583038
0.594824
0.608321
0.620676
0.630221
0.63752
0.643084
0.647316
0.650285
0.651871
0.652366
0.652335
0.536694
0.5366
0.537166
0.53899
0.542463
0.547648
0.554593
0.563676
0.575321
0.58978
0.606149
0.62101
0.63245
0.641219
0.647963
0.653084
0.656654
0.658512
0.659072
0.659035
0.517978
0.517859
0.518621
0.52095
0.525327
0.531922
0.540748
0.552221
0.566758
0.584523
0.604301
0.622037
0.635635
0.646063
0.654118
0.660249
0.664466
0.666592
0.667202
0.667153
0.494373
0.494238
0.495329
0.498441
0.504178
0.512831
0.52432
0.539043
0.557311
0.579119
0.602885
0.623881
0.639866
0.652134
0.661622
0.668867
0.673753
0.676119
0.676752
0.676682
0.463581
0.46347
0.465163
0.469631
0.477643
0.489501
0.504915
0.524119
0.547196
0.573899
0.602216
0.626764
0.645291
0.65951
0.670551
0.678959
0.684464
0.686997
0.687612
0.687509
0.421487
0.421542
0.424558
0.431856
0.444099
0.461203
0.482418
0.507647
0.536685
0.569074
0.602428
0.630785
0.651975
0.668214
0.680848
0.690423
0.696409
0.698973
0.699512
0.69937
0.360406
0.361586
0.368961
0.382648
0.402618
0.428063
0.457436
0.490334
0.526434
0.565191
0.603893
0.636119
0.659962
0.678179
0.692337
0.702903
0.709186
0.711566
0.711933
0.711756
0.287477
0.289508
0.303746
0.327329
0.358053
0.393352
0.431642
0.472739
0.516444
0.562264
0.607232
0.644332
0.671714
0.692575
0.708667
0.720458
0.727022
0.729339
0.729693
0.72961
0.212342
0.21867
0.23986
0.273539
0.314614
0.359516
0.406702
0.456065
0.50748
0.560499
0.61194
0.654106
0.68515
0.70885
0.727133
0.739922
0.74642
0.748427
0.748687
0.748662
0.151009
0.159458
0.185181
0.225898
0.275054
0.328138
0.383374
0.440499
0.499293
0.559249
0.616884
0.663822
0.698237
0.724391
0.744343
0.757981
0.764528
0.766424
0.766853
0.766904
0.100976
0.110039
0.1393
0.185232
0.240492
0.300153
0.362189
0.426161
0.491687
0.55814
0.621638
0.673079
0.710636
0.739063
0.760596
0.775175
0.78212
0.784484
0.785022
0.785107
0.0590169
0.0683569
0.100065
0.150009
0.210269
0.275393
0.343179
0.413123
0.484695
0.557127
0.626117
0.681796
0.722308
0.752925
0.776079
0.791671
0.799346
0.80206
0.802681
0.802781
0.0227478
0.0322088
0.065768
0.118927
0.183326
0.253119
0.325917
0.401144
0.47817
0.556095
0.630205
0.689854
0.73314
0.765771
0.790396
0.806954
0.815345
0.818303
0.819017
0.819118
-0.00948233
3.42743e-05
0.0350246
0.0909055
0.158776
0.232594
0.309826
0.389808
0.471822
0.554843
0.633757
0.697133
0.742988
0.777402
0.803256
0.820643
0.829666
0.832923
0.833659
0.833746
-0.0389198
-0.0293377
0.0068261
0.0650576
0.135916
0.213257
0.294433
0.378731
0.465346
0.553153
0.636628
0.703548
0.751781
0.787819
0.814695
0.832734
0.842195
0.845684
0.846482
0.846564
-0.0664059
-0.0567572
-0.0195301
0.0407036
0.114223
0.194689
0.279389
0.367611
0.458495
0.550829
0.638709
0.709067
0.75958
0.797118
0.824929
0.84343
0.853142
0.856801
0.857636
0.857696
-0.0924948
-0.0827511
-0.0445177
0.0173864
0.0933288
0.176572
0.264447
0.356247
0.451097
0.547741
0.639925
0.713697
0.766465
0.80544
0.834087
0.852913
0.862726
0.866463
0.867298
0.867326
-0.117654
-0.107714
-0.0686363
-0.00510973
0.0729743
0.158696
0.249437
0.344505
0.443046
0.543798
0.640215
0.717444
0.772518
0.812939
0.842319
0.861372
0.871217
0.874932
0.875751
0.875745
-0.142118
-0.131945
-0.0920984
-0.0269697
0.0529935
0.14093
0.234256
0.332307
0.434268
0.538932
0.639532
0.720315
0.777833
0.819777
0.849852
0.869047
0.87887
0.882528
0.883296
0.883268
-0.165984
-0.155586
-0.114879
-0.0483626
0.0332925
0.123216
0.218861
0.319616
0.424732
0.533097
0.637829
0.722314
0.782485
0.826071
0.856829
0.876113
0.885851
0.889382
0.890063
0.890003
-0.189372
-0.178665
-0.137175
-0.0693484
0.013833
0.10553
0.203247
0.306438
0.414441
0.526281
0.63506
0.723415
0.786517
0.831926
0.863391
0.882691
0.892227
0.895547
0.896104
0.895997
-0.212267
-0.201265
-0.158998
-0.0899504
-0.00538336
0.0878916
0.18745
0.292814
0.403427
0.51848
0.631187
0.723565
0.789928
0.837432
0.869696
0.888912
0.898059
0.901044
0.901448
0.901304
-0.234708
-0.223371
-0.180285
-0.110141
-0.0243293
0.0703386
0.171519
0.278811
0.391747
0.509725
0.626182
0.722692
0.792656
0.842654
0.875963
0.895016
0.903498
0.905949
0.906162
0.905988
-0.2565
-0.24491
-0.201023
-0.129873
-0.0429504
0.0529462
0.155526
0.264502
0.379481
0.500079
0.620033
0.720709
0.794591
0.84759
0.882434
0.901393
0.908831
0.910372
0.910279
0.910086
-0.277777
-0.265829
-0.221189
-0.149121
-0.0612103
0.0357577
0.139565
0.249975
0.366721
0.489628
0.612756
0.717516
0.79557
0.852123
0.889265
0.908612
0.914734
0.914677
0.913877
0.913663
-0.298376
-0.286097
-0.240751
-0.167832
-0.0790267
0.0188615
0.123723
0.235352
0.353578
0.478445
0.604395
0.713017
0.795395
0.855986
0.896338
0.917241
0.92254
0.920183
0.917542
0.91657
-0.318345
-0.305755
-0.25965
-0.185948
-0.0963606
0.00232845
0.108087
0.220716
0.340167
0.466669
0.595027
0.70712
0.793852
0.858782
0.903067
0.927203
0.933743
0.930128
0.923617
0.914509
-0.337605
-0.324768
-0.277967
-0.20363
-0.113426
-0.0141221
0.0923161
0.20566
0.326033
0.45379
0.584116
0.699236
0.790424
0.860081
0.908635
0.937521
0.948451
0.945646
0.935454
0.930981
-0.3561
-0.343122
-0.295697