/*--------------------------------*- C++ -*----------------------------------*\
| =========                 |                                                 |
| \\      /  F ield         | OpenFOAM: The Open Source CFD Toolbox           |
|  \\    /   O peration     | Version:  2306                                  |
|   \\  /    A nd           | Website:  www.openfoam.com                      |
|    \\/     M anipulation  |                                                 |
\*---------------------------------------------------------------------------*/
FoamFile
{
    version     2.0;
    format      ascii;
    arch        "LSB;label=32;scalar=64";
    class       surfaceScalarField;
    location    "51";
    object      phi;
}
// * * * * * * * * * * * * * * * * * * * * * * * * * * * * * * * * * * * * * //

dimensions      [0 3 -1 0 0 0 0];

oriented        oriented;

internalField   nonuniform List<scalar> 
17370
(
-0.0910992
0.0935458
0.286564
-0.0749555
0.0569559
0.364775
-0.0409395
0.0299559
0.427152
-0.0212017
0.0156022
0.504851
-0.011353
0.00865404
0.602101
-0.00652211
0.00506996
0.72051
-0.00385185
0.002981
0.863777
-0.00221348
0.00163793
1.03603
-0.00110806
0.000688184
1.24292
-0.000278361
-0.000113816
1.49158
0.000498685
-0.000910237
1.4916
0.00131199
-0.00181365
1.24319
0.00236131
-0.00310036
1.03638
0.00395108
-0.00515515
0.864111
0.00660012
-0.00872626
0.721184
0.0114188
-0.0156592
0.603455
0.0212498
-0.0299941
0.508184
0.0409683
-0.0569765
0.432176
0.0749716
-0.0935551
0.365359
0.0911117
0.197899
-0.127346
0.0881423
0.0392037
-0.364736
0.353788
-0.0726319
0.0835804
-0.446565
0.454367
-0.0817161
0.0739138
-0.520971
0.529523
-0.065806
0.0572542
-0.61285
0.621015
-0.0495043
0.0413392
-0.727001
0.733789
-0.0344124
0.0276243
-0.867514
0.87245
-0.0222824
0.0173462
-1.03855
1.0419
-0.0136264
0.0102728
-1.24471
1.24712
-0.00771671
0.00530466
-1.49284
1.49485
-0.00333742
0.00132099
-1.49269
1.49451
0.000499565
-0.00232016
-1.2441
1.24602
0.00429544
-0.0062093
-1.0376
1.04008
0.0085512
-0.0110369
-0.866159
0.869812
0.0143114
-0.0179644
-0.724479
0.729775
0.0228386
-0.0281344
-0.608888
0.615775
0.0348782
-0.0417653
-0.51499
0.522698
0.0498858
-0.0575935
-0.439772
0.447831
0.066094
-0.0741528
-0.375157
0.377
0.081896
-0.0837392
-0.256918
0.223421
0.0727425
-0.0392463
-0.068651
0.0589197
0.00973124
-0.0520836
0.0587816
-0.37454
0.367842
-0.0578976
0.0540727
-0.453828
0.457653
-0.0487165
0.0443791
-0.527743
0.532081
-0.0401575
0.036376
-0.621103
0.624885
-0.0321527
0.0280809
-0.734876
0.738948
-0.0236071
0.0196127
-0.874047
0.878041
-0.015474
0.0119562
-1.0434
1.04692
-0.00838771
0.00532266
-1.24866
1.25173
-0.0020866
-0.000915068
-1.49695
1.49995
0.00389582
-0.0070714
-1.49743
1.50061
0.0100488
-0.0134997
-1.2501
1.25355
0.0169
-0.0209053
-1.04573
1.04973
0.0247825
-0.0291404
-0.87732
0.881678
0.0331197
-0.0372529
-0.739313
0.743447
0.0409581
-0.0451022
-0.626344
0.630489
0.0493742
-0.0546668
-0.534938
0.54023
0.0584224
-0.0592185
-0.457921
0.458717
0.0524102
-0.0320367
-0.336398
0.316025
0.009786
-0.0685048
0.0587188
-0.0531601
0.0491096
0.00405052
-0.0331744
0.0436706
-0.358369
0.347873
-0.0473909
0.0468064
-0.45951
0.460095
-0.0438319
0.040564
-0.536024
0.539292
-0.0368546
0.0335194
-0.628444
0.631779
-0.0299536
0.0268013
-0.742257
0.74541
-0.0234491
0.0202788
-0.881576
0.884746
-0.0166785
0.0132976
-1.0504
1.05378
-0.00956043
0.00612
-1.25503
1.25847
-0.00229182
-0.00135945
-1.50333
1.50698
0.00497996
-0.00871907
-1.50414
1.50788
0.0120384
-0.0156121
-1.25716
1.26074
0.0188277
-0.0222383
-1.0535
1.05691
0.0252402
-0.028424
-0.885289
0.888473
0.0314406
-0.0348741
-0.746938
0.750372
0.0380983
-0.041693
-0.634505
0.638099
0.0448619
-0.0477248
-0.544461
0.547323
0.0481929
-0.0443089
-0.456887
0.453003
0.0336161
-0.0162587
-0.296658
0.2793
0.00411695
-0.0528996
0.0487827
-0.0459871
0.0434608
0.00252634
-0.022935
0.0333062
-0.337231
0.32686
-0.039092
0.0400803
-0.459806
0.458818
-0.038866
0.0365681
-0.541966
0.544263
-0.0339284
0.0313662
-0.634775
0.637337
-0.0283594
0.0255004
-0.748473
0.751332
-0.0222658
0.0192697
-0.887746
0.890742
-0.0159519
0.0128423
-1.05695
1.06006
-0.00929623
0.0058892
-1.26188
1.26529
-0.00196021
-0.00186124
-1.51074
1.51457
0.00564342
-0.00945309
-1.51169
1.5155
0.0127001
-0.0160325
-1.26421
1.26754
0.0189268
-0.0219981
-1.06007
1.06315
0.0247727
-0.0277806
-0.891619
0.894627
0.0304528
-0.0332767
-0.753561
0.756385
0.0356865
-0.0381722
-0.641104
0.64359
0.0403386
-0.0413789
-0.549143
0.550183
0.04021
-0.0341601
-0.447809
0.44176
0.0235005
-0.0102857
-0.264122
0.250907
0.00260799
-0.0455865
0.0429785
-0.0413617
0.0395739
0.00178771
-0.0168711
0.0261537
-0.316989
0.307706
-0.0327703
0.0349108
-0.457233
0.455093
-0.0344918
0.0328115
-0.546266
0.547947
-0.0306114
0.0285066
-0.639635
0.64174
-0.0260832
0.0237038
-0.753944
0.756324
-0.0208759
0.0181202
-0.893598
0.896353
-0.0149308
0.0118992
-1.06309
1.06612
-0.00844242
0.00513524
-1.26861
1.27191
-0.00130143
-0.00244659
-1.51834
1.52209
0.00614399
-0.00982869
-1.51925
1.52294
0.0129344
-0.0161215
-1.2708
1.27399
0.0188803
-0.0217556
-1.06616
1.06904
0.0242252
-0.0267569
-0.897429
0.899961
0.028893
-0.0310802
-0.758838
0.761025
0.0329906
-0.0349931
-0.645786
0.647788
0.0364817
-0.0366644
-0.550744
0.550927
0.0342464
-0.0272446
-0.435146
0.428144
0.0175752
-0.0074265
-0.239372
0.229223
0.00188735
-0.0407895
0.0389021
-0.0380337
0.0366885
0.00134521
-0.0128996
0.0208904
-0.299075
0.291084
-0.0276695
0.0306067
-0.452526
0.449588
-0.030825
0.0297117
-0.549375
0.550489
-0.0277232
0.0258089
-0.64378
0.645694
-0.0236119
0.021483
-0.758551
0.76068
-0.0189856
0.0165213
-0.898903
0.901367
-0.0136005
0.0107444
-1.06902
1.07187
-0.00741488
0.00420178
-1.27514
1.27835
-0.000475999
-0.00314598
-1.52575
1.52937
0.00670519
-0.0102442
-1.52655
1.53009
0.0132054
-0.0161968
-1.27711
1.2801
0.0187099
-0.0212358
-1.07177
1.07429
0.023342
-0.0254683
-0.902274
0.9044
0.0272892
-0.0291846
-0.763051
0.764946
0.030853
-0.0326049
-0.649642
0.651394
0.0334386
-0.0328898
-0.550749
0.5502
0.0295565
-0.0222512
-0.420935
0.413629
0.013765
-0.00574137
-0.220239
0.212215
0.00146638
-0.0372523
0.0357859
-0.0355126
0.0344748
0.00103779
-0.0100931
0.0168591
-0.283732
0.276966
-0.023384
0.0267823
-0.446403
0.443004
-0.0275816
0.0268986
-0.55138
0.552063
-0.0251478
0.0233757
-0.647579
0.649351
-0.0213239
0.0193264
-0.76274
0.764737
-0.0169759
0.0146689
-0.903683
0.90599
-0.0119539
0.00928869
-1.07456
1.07723
-0.0061493
0.00308286
-1.28145
1.28452
0.000501153
-0.00398675
-1.5329
1.53639
0.00739612
-0.010749
-1.53353
1.53688
0.0135038
-0.0162249
-1.28298
1.2857
0.018467
-0.0206952
-1.07668
1.07891
0.0225591
-0.0244485
-0.906419
0.908309
0.0260628
-0.0277389
-0.766733
0.768409
0.029206
-0.0306299
-0.652997
0.654421
0.0309629
-0.0296986
-0.549305
0.548041
0.0257551
-0.0185392
-0.406345
0.399129
0.0111521
-0.00462031
-0.205008
0.198476
0.00118519
-0.0344773
0.0332921
-0.0335624
0.0327522
0.0008102
-0.00801371
0.0137094
-0.270765
0.265069
-0.0197577
0.0233617
-0.439494
0.43589
-0.0246461
0.0242152
-0.552655
0.553086
-0.0227397
0.0210823
-0.651119
0.652776
-0.0191321
0.0172281
-0.766685
0.768589
-0.0149811
0.0127714
-0.90818
0.91039
-0.0101683
0.00762276
-1.07976
1.0823
-0.00463867
0.00172343
-1.28746
1.29037
0.00168701
-0.00500315
-1.53976
1.54308
0.00822629
-0.0113549
-1.54012
1.54325
0.0138889
-0.0163625
-1.28831
1.29078
0.0183893
-0.0203935
-1.08105
1.08305
0.0220572
-0.0237361
-0.910115
0.911794
0.0251683
-0.0266554
-0.769997
0.771484
0.0279335
-0.0289899
-0.655636
0.656692
0.0289597
-0.0270382
-0.546451
0.544529
0.0227086
-0.0157753
-0.39205
0.385116
0.00930864
-0.00384144
-0.192528
0.187061
0.000989585
-0.0322183
0.0312287
-0.0320391
0.0314046
0.000634523
-0.00641244
0.0111943
-0.259859
0.255077
-0.0166598
0.0202733
-0.432281
0.428667
-0.0218915
0.0216945
-0.553439
0.553636
-0.020461
0.0188699
-0.654454
0.656045
-0.0169827
0.0151345
-0.770459
0.772308
-0.012954
0.0108113
-0.912488
0.914631
-0.00828829
0.00582455
-1.08472
1.08719
-0.00294525
0.000151702
-1.29317
1.29597
0.00310218
-0.00624175
-1.54627
1.54941
0.00926538
-0.012172
-1.54625
1.54915
0.0145073
-0.0167674
-1.29317
1.29543
0.0186
-0.0203923
-1.08499
1.08678
0.021866
-0.0233485
-0.913401
0.914884
0.0246164
-0.0259313
-0.772897
0.774212
0.0270648
-0.0277166
-0.657525
0.658177
0.027326
-0.0248606
-0.542349
0.539883
0.0203037
-0.0137234
-0.37837
0.37179
0.0079913
-0.00329223
-0.182018
0.177319
0.000852277
-0.0303197
0.0294674
-0.0308494
0.0303568
0.000492619
-0.00512584
0.00912041
-0.250715
0.24672
-0.013959
0.0174342
-0.425131
0.421656
-0.0192478
0.0192508
-0.553781
0.553778
-0.0182219
0.0166717
-0.657688
0.659239
-0.0148139
0.0129881
-0.774135
0.77596
-0.0108357
0.00872698
-0.916666
0.918775
-0.00625358
0.00384788
-1.08953
1.09194
-0.0010452
-0.00165744
-1.29865
1.30135
0.00477454
-0.00775194
-1.55242
1.5554
0.010589
-0.013288
-1.55194
1.55464
0.0154317
-0.0174802
-1.2976
1.29965
0.0191201
-0.0207048
-1.08851
1.0901
0.0219975
-0.0233001
-0.916309
0.917611
0.0244213
-0.0255805
-0.775464
0.776623
0.0265271
-0.026817
-0.658623
0.658912
0.0260456
-0.0231273
-0.537202
0.534283
0.0184467
-0.0122175
-0.365406
0.359177
0.00705398
-0.00290826
-0.172931
0.168785
0.000757826
-0.0286741
0.0279163
-0.0299317
0.0295588
0.000372811
-0.00404947
0.00735322
-0.243094
0.239791
-0.0115536
0.0147816
-0.41832
0.415092
-0.0166662
0.0168353
-0.55375
0.553581
-0.0158987
0.014431
-0.660828
0.662296
-0.0125785
0.0107456
-0.777774
0.779607
-0.00858578
0.00647758
-0.920781
0.922889
-0.00401767
0.00163814
-1.09423
1.09661
0.00110984
-0.00374461
-1.30395
1.30658
0.00675523
-0.00959551
-1.55826
1.5611
0.012266
-0.0147684
-1.55721
1.55971
0.0167239
-0.0185625
-1.30161
1.30345
0.0200128
-0.0213945
-1.09164
1.09302
0.0225098
-0.0236356
-0.918863
0.919989
0.0246101
-0.0256041
-0.777719
0.778713
0.0263051
-0.0262981
-0.659057
0.65905
0.0251313
-0.0218203
-0.531177
0.527866
0.0170678
-0.0111427
-0.353128
0.347203
0.00640379
-0.00264843
-0.164868
0.161113
0.000695886
-0.0272017
0.0265058
-0.0292461
0.0289799
0.000266209
-0.00310773
0.00578884
-0.23682
0.234139
-0.00935138
0.0122489
-0.412053
0.409156
-0.0140903
0.0143528
-0.55343
0.553167
-0.0134707
0.0120569
-0.663824
0.665238
-0.0101891
0.00832227
-0.781433
0.7833
-0.00612289
0.00398485
-0.924896
0.927034
-0.00150279
-0.000873334
-1.09887
1.10125
0.00360693
-0.00620051
-1.30912
1.31171
0.00912887
-0.0118519
-1.56383
1.56655
0.014369
-0.0166815
-1.56209
1.56441
0.0184519
-0.0200819
-1.3052
1.30683
0.0213414
-0.0225147
-1.09437
1.09554
0.0234453
-0.024389
-0.921075
0.922019
0.0252161
-0.0260411
-0.779629
0.780454
0.0264759
-0.0262158
-0.658909
0.658649
0.0246181
-0.0209332
-0.52439
0.520705
0.0161174
-0.0104221
-0.341433
0.335738
0.0059813
-0.00248644
-0.157522
0.154027
0.000659695
-0.0258415
0.0251818
-0.0287704
0.0286052
0.000165178
-0.00223689
0.00433366
-0.231771
0.229675
-0.00725274
0.00974925
-0.406487
0.40399
-0.0114401
0.0117193
-0.552973
0.552694
-0.0108606
0.00946509
-0.666747
0.668142
-0.00755708
0.00562924
-0.785163
0.787091
-0.00335717
0.00115719
-0.929066
0.931266
0.00137904
-0.00379487
-1.10353
1.10595
0.0065416
-0.00911876
-1.31421
1.31679
0.0119866
-0.014605
-1.56916
1.57178
0.0169741
-0.0190968
-1.56659
1.56871
0.0206804
-0.0220969
-1.30837
1.30979
0.0231577
-0.0241099
-1.09669
1.09764
0.0248416
-0.0255875
-0.922922
0.923668
0.0262556
-0.0269303
-0.78119
0.781865
0.0270672
-0.0264627
-0.658163
0.657559
0.0244534
-0.0204213
-0.516892
0.51286
0.0155328
-0.00998809
-0.330168
0.324623
0.0057385
-0.00240119
-0.150647
0.147309
0.000643746
-0.0245446
0.0239009
-0.0284963
0.0284329
6.3363e-05
-0.00138746
0.00291336
-0.227883
0.226357
-0.00517359
0.00720505
-0.401757
0.399726
-0.00864328
0.00886
-0.552538
0.552322
-0.00798253
0.00657325
-0.669667
0.671076
-0.00459042
0.00257272
-0.789016
0.791034
-0.000192715
-0.00210427
-0.933357
0.935654
0.0047342
-0.00722112
-1.10827
1.11075
0.0100183
-0.0126077
-1.31927
1.32186
0.0154396
-0.0179681
-1.57429
1.57682
0.0201951
-0.0221263
-1.5707
1.57264
0.0235166
-0.0247089
-1.3111
1.3123
0.0255603
-0.0262746
-1.09858
1.0993
0.0267857
-0.0273122
-0.924382
0.924909
0.0278127
-0.0282907
-0.782388
0.782866
0.0281431
-0.0271401
-0.656695
0.655692
0.0246968
-0.0202971
-0.508713
0.504313
0.0152944
-0.00980805
-0.319171
0.313684
0.00565115
-0.00238232
-0.144047
0.140778
0.000645564
-0.0232729
0.0226274
-0.0284266
0.0284721
-4.55245e-05
-0.000511575
0.00146047
-0.225138
0.224189
-0.00303409
0.00453558
-0.397992
0.396491
-0.00561805
0.00568747
-0.552292
0.552223
-0.00473443
0.00325632
-0.672663
0.674141
-0.00116701
-0.00097884
-0.79305
0.795196
0.00350975
-0.00593722
-0.937842
0.940269
0.00869959
-0.0112888
-1.11314
1.11573
0.0141702
-0.0167997
-1.32436
1.32699
0.0196201
-0.0220712
-1.57924
1.58169
0.0241575
-0.025887
-1.57442
1.57615
0.0270676
-0.0280136
-1.31337
1.31432
0.0286349
-0.029096
-1.10001
1.10047
0.0293734
-0.0296611
-0.925414
0.925702
0.0299707
-0.0301826
-0.783076
0.783288
0.0297715
-0.0282875
-0.654408
0.652924
0.0253709
-0.0205696
-0.49982
0.495018
0.0153937
-0.00986648
-0.308255
0.302728
0.00570749
-0.00242469
-0.137548
0.134266
0.000663789
-0.0219915
0.0213277
-0.0285728
0.0287338
-0.000161008
0.000411764
-7.17569e-05
-0.223561
0.223221
-0.000764979
0.00165342
-0.395319
0.394431
-0.00227513
0.00211328
-0.552413
0.552575
-0.00102784
-0.000583382
-0.675851
0.677462
0.00283209
-0.00515064
-0.797343
0.799661
0.00787702
-0.0104782
-0.942588
0.945189
0.0134199
-0.0161539
-1.11823
1.12096
0.019161
-0.0218607
-1.32953
1.33223
0.0246918
-0.0270741
-1.58403
1.58641
0.0290148
-0.0305266
-1.57773
1.57924
0.0314814
-0.0321542
-1.31513
1.3158
0.0325197
-0.0327046
-1.10092
1.1011
0.0327303
-0.0327558
-0.925966
0.925992
0.0328511
-0.03274
-0.78314
0.783029
0.0319995
-0.0299499
-0.651188
0.649139
0.0265117
-0.02125
-0.490132
0.48487
0.0158237
-0.0101497
-0.297218
0.291544
0.00589658
-0.00252288
-0.130989
0.127615
0.000696789
-0.0206683
0.0199715
-0.0289742
0.0292753
-0.000301063
0.00140977
-0.00172077
-0.22324
0.223551
0.00172783
-0.00155806
-0.393866
0.393696
0.00152608
-0.00202447
-0.553109
0.553607
0.0033248
-0.00511702
-0.67936
0.681152
0.0075789
-0.0101138
-0.801973
0.804508
0.0130896
-0.0159163
-0.947686
0.950513
0.019092
-0.0220156
-1.12361
1.12653
0.0251892
-0.0279883
-1.33485
1.33765
0.0308505
-0.0331692
-1.58867
1.59099
0.0349544
-0.0362181
-1.58058
1.58184
0.0369178
-0.0372756
-1.31631
1.31667
0.0373549
-0.0372345
-1.10123
1.10111
0.0369815
-0.0367183
-0.925966
0.925703
0.036591
-0.0360507
-0.782459
0.781918
0.0348912
-0.0321967
-0.646899
0.644204
0.0281674
-0.0223633
-0.479526
0.473722
0.0165915
-0.0106554
-0.285846
0.27991
0.00621462
-0.00267453
-0.124216
0.120676
0.000743693
-0.0192745
0.0185308
-0.0296489
0.0301257
-0.000476761
0.00269221
-0.00374991
-0.224248
0.225306
0.00462545
-0.00525116
-0.393865
0.394491
0.00594002
-0.00688769
-0.554616
0.555564
0.00848699
-0.0105315
-0.683286
0.68533
0.0132833
-0.0161041
-0.80704
0.809861
0.0193998
-0.0225108
-0.95324
0.956351
0.0259787
-0.0291385
-1.12938
1.13254
0.0325197
-0.0354414
-1.34036
1.34328
0.0383389
-0.0405765
-1.59317
1.59541
0.0421714
-0.043148
-1.58289
1.58387
0.0435346
-0.0435481
-1.31684
1.31685
0.0433022
-0.0428341
-1.10087
1.1004
0.0422659
-0.0416784
-0.925332
0.924745
0.0412419
-0.0402422
-0.780869
0.77987
0.0385492
-0.0351167
-0.641378
0.637946
0.0303996
-0.0239396
-0.467825
0.461365
0.017708
-0.0113841
-0.273906
0.267582
0.00665923
-0.00287757
-0.117081
0.113299
0.000803698
-0.0177827
0.016979
-0.0306754
0.0313686
-0.0006932
0.00417574
-0.00611908
-0.226789
0.228733
0.0080717
-0.009592
-0.395529
0.397049
0.0111013
-0.0126238
-0.557189
0.558711
0.0146605
-0.0170493
-0.687794
0.690183
0.0201948
-0.0233804
-0.812681
0.815867
0.0270766
-0.0305413
-0.959369
0.962834
0.0343708
-0.0378195
-1.13562
1.13907
0.0414485
-0.0445098
-1.34611
1.34917
0.0474391
-0.0495688
-1.59748
1.59961
0.0509285
-0.0515623
-1.5846
1.58524
0.05157
-0.0511866
-1.31662
1.31624
0.0505674
-0.0497008
-1.09973
1.09887
0.0487754
-0.0478122
-0.92398
0.923017
0.0469556
-0.0454631
-0.778331
0.776839
0.0431043
-0.0388084
-0.634418
0.630122
0.0332775
-0.026017
-0.454796
0.447535
0.0191893
-0.0123384
-0.261143
0.254292
0.00722796
-0.00312892
-0.109433
0.105334
0.000875245
-0.0161677
0.0152925
-0.0321328
0.033112
-0.000979208
0.00605137
-0.00906012
-0.231116
0.234125
0.0122514
-0.014829
-0.399116
0.401693
0.0173076
-0.0195331
-0.561098
0.563324
0.0221499
-0.0250034
-0.693078
0.695932
0.0286584
-0.0323108
-0.819057
0.822709
0.0365111
-0.0404145
-0.96622
0.970123
0.0446821
-0.0484687
-1.14245
1.14623
0.0523731
-0.0555728
-1.35212
1.35532
0.0585003
-0.0604618
-1.60154
1.6035
0.0615079
-0.0617059
-1.58558
1.58578
0.0612785
-0.0604041
-1.31552
1.31464
0.0593484
-0.0580214
-1.0977
1.09638
0.0566897
-0.0553104
-0.921797
0.920418
0.0539345
-0.0518441
-0.774763
0.772672
0.0486959
-0.0433704
-0.625749
0.620423
0.0368631
-0.0286212
-0.440145
0.431904
0.0210386
-0.0135088
-0.247279
0.239749
0.00790874
-0.0034201
-0.101124
0.0966352
0.00095495
-0.0144084
0.0134535
-0.0341506
0.0355218
-0.00137119
0.00850476
-0.0128584
-0.237563
0.241917
0.017533
-0.0213406
-0.404999
0.408807
0.0249509
-0.0280305
-0.566676
0.569755
0.0314093
-0.03489
-0.699397
0.702878
0.0392195
-0.0434647
-0.826372
0.830617
0.0482815
-0.0527031
-0.97396
0.978381
0.0574682
-0.0616172
-1.14994
1.15409
0.0657882
-0.0690846
-1.35837
1.36167
0.0719267
-0.0736134
-1.6052
1.60689
0.0742264
-0.0738629
-1.58562
1.58525
0.0729066
-0.0714215
-1.31331
1.31182
0.069858
-0.0679992
-1.09463
1.09277
0.0662123
-0.0643629
-0.918675
0.916825
0.0623698
-0.0595655
-0.769952
0.767148
0.055459
-0.0488906
-0.61503
0.608462
0.0412003
-0.0317571
-0.423514
0.414071
0.0232379
-0.0148676
-0.232015
0.223644
0.00867631
-0.00373611
-0.0920162
0.087076
0.00103753
-0.0124912
0.0114536
-0.036924
0.0388569
-0.00193296
0.0119175
-0.0179732
-0.246638
0.252693
0.0244406
-0.0296882
-0.413663
0.418911
0.0346351
-0.0387557
-0.574314
0.578434
0.0431127
-0.0474264
-0.707093
0.711407
0.0526295
-0.0576073
-0.834878
0.839855
0.0631535
-0.0681585
-0.982744
0.987749
0.0734463
-0.0779341
-1.15813
1.16261
0.0822933
-0.0855707
-1.36475
1.36802
0.0881616
-0.0893951
-1.6082
1.60944
0.089399
-0.0883041
-1.58443
1.58334
0.0866667
-0.0844662
-1.30979
1.30759
0.0822964
-0.0798536
-1.09036
1.08791
0.077572
-0.0751139
-0.914474
0.912016
0.0724966
-0.0687583
-0.763599
0.759861
0.0634829
-0.055412
-0.601819
0.593748
0.0462918
-0.035389
-0.404473
0.393571
0.0257301
-0.0163533
-0.21504
0.205663
0.00948115
-0.0040494
-0.0820002
0.0765684
0.00111356
-0.0104146
0.00930102
-0.0407768
0.0435823
-0.00280549
0.0168631
-0.0251665
-0.259057
0.26736
0.0338534
-0.0408313
-0.42577
0.432748
0.0473975
-0.0527854
-0.584485
0.589873
0.058375
-0.063765
-0.716584
0.721974
0.0700594
-0.0758957
-0.844837
0.850673
0.0822347
-0.0878118
-0.992677
0.998254
0.0935385
-0.0982292
-1.16691
1.1716
0.102572
-0.105608
-1.37096
1.37399
0.107675
-0.108196
-1.61016
1.61068
0.107346
-0.105294
-1.58167
1.57962
0.102807
-0.0997344
-1.30474
1.30167
0.0968586
-0.0937503
-1.08473
1.08162
0.0909198
-0.0877585
-0.908863
0.905702
0.0844613
-0.0795695
-0.755243
0.750351
0.0728503
-0.0629491
-0.585559
0.575658
0.0520999
-0.039436
-0.382521
0.369857
0.0284127
-0.0178664
-0.196055
0.185509
0.0102467
-0.00431938
-0.0710212
0.0650939
0.00116965
-0.00819817
0.00702853
-0.0462799
0.0505545
-0.00427456
0.0245232
-0.0358784
-0.275981
0.287336
0.0474354
-0.0567134
-0.442335
0.451613
0.0652702
-0.0721319
-0.59778
0.604642
0.0792431
-0.0860994
-0.728259
0.735115
0.0935485
-0.100174
-0.856456
0.863082
0.107148
-0.113082
-1.00365
1.00959
0.118936
-0.123494
-1.17593
1.18049
0.127413
-0.129814
-1.37648
1.37888
0.130917
-0.13033
-1.61048
1.6099
0.128284
-0.124997
-1.57685
1.57356
0.121473
-0.117375
-1.29786
1.29377
0.113686
-0.109839
-1.07756
1.07372
0.106421
-0.102466
-0.901599
0.897644
0.0983263
-0.0919757
-0.744386
0.738035
0.0834785
-0.0713623
-0.565542
0.553425
0.058456
-0.0437216
-0.357086
0.342351
0.0311113
-0.0192576
-0.174809
0.162955
0.0108645
-0.00449077
-0.0591202
0.0527465
0.0011872
-0.00588973
0.00470253
-0.0544916
0.0618293
-0.00733773
0.0379485
-0.0537562
-0.299537
0.315345
0.0693341
-0.0817753
-0.464992
0.477434
0.0924812
-0.100708
-0.614643
0.62287
0.109342
-0.117437
-0.742506
0.7506
0.125768
-0.132766
-0.869462
0.87646
0.139791
-0.145483
-1.01508
1.02077
0.150794
-0.154593
-1.18438
1.18817
0.157436
-0.158606
-1.38042
1.38159
0.158176
-0.156016
-1.60832
1.60616
0.152413
-0.147609
-1.56939
1.56458
0.14283
-0.137524
-1.28884
1.28354
0.132877
-0.128176
-1.06872
1.06402
0.1241
-0.119352
-0.892466
0.887719
0.114021
-0.105803
-0.730356
0.722138
0.0950993
-0.0802836
-0.540864
0.526048
0.0649699
-0.0479407
-0.327562
0.310533
0.0336033
-0.0203984
-0.151184
0.137979
0.0112592
-0.00453043
-0.0464952
0.0397664
0.00114867
-0.00357197
0.0024233
-0.0686809
0.0727533
-0.0040724
0.0290158
-0.0427428
-0.333684
0.347411
0.0565672
-0.0679632
-0.495149
0.506545
0.0781009
-0.0875526
-0.634676
0.644128
0.0980456
-0.107567
-0.758204
0.767726
0.118063
-0.127339
-0.882562
0.891838
0.137138
-0.145757
-1.02551
1.03413
0.154612
-0.162017
-1.19086
1.19826
0.169091
-0.174374
-1.38155
1.38683
0.178497
-0.180372
-1.60272
1.60459
0.179947
-0.177764
-1.55866
1.55648
0.174565
-0.170291
-1.27731
1.27303
0.166348
-0.161743
-1.05797
1.05337
0.15782
-0.152865
-0.881125
0.876171
0.145973
-0.134256
-0.712179
0.700463
0.118649
-0.0978152
-0.51049
0.489656
0.0771746
-0.0549291
-0.29333
0.271085
0.0371579
-0.0216588
-0.125343
0.109844
0.0114862
-0.00444111
-0.0335929
0.0265478
0.00108584
-0.00135757
0.000271729
-0.0800223
0.0780575
0.0019649
0.00740932
-0.0164646
-0.36391
0.372965
0.0269756
-0.0350414
-0.522626
0.530692
0.043124
-0.0510824
-0.655998
0.663956
0.0607409
-0.0696516
-0.776852
0.785763
0.0790689
-0.0876112
-0.900563
0.909105
0.0965983
-0.104158
-1.04246
1.05001
0.112086
-0.11833
-1.20545
1.21169
0.124193
-0.128219
-1.39173
1.39576
0.130663
-0.13101
-1.60552
1.60586
0.129043
-0.125271
-1.55337
1.5496
0.120488
-0.114554
-1.26807
1.26213
0.109032
-0.102916
-1.04718
1.04107
0.0972825
-0.0907207
-0.866616
0.860054
0.0836029
-0.0734568
-0.684853
0.674707
0.06185
-0.0479046
-0.4673
0.453355
0.0354231
-0.0235561
-0.248966
0.237099
0.0150595
-0.00836664
-0.0951118
0.0884189
0.0043035
-0.00164038
-0.0198735
0.0172104
0.000373208
0.000828947
-0.00120215
-0.0814413
0.0785397
0.00290159
-0.00167366
-0.00356699
-0.384348
0.389588
0.0107042
-0.0165833
-0.542885
0.548764
0.0226087
-0.0295399
-0.674022
0.680953
0.0379037
-0.0456449
-0.793769
0.80151
0.0540471
-0.0615091
-0.916908
0.92437
0.0691085
-0.075848
-1.05739
1.06413
0.0826899
-0.0881373
-1.21747
1.22292
0.0927609
-0.0956375
-1.39906
1.40193
0.0971266
-0.0963826
-1.60539
1.60465
0.0933546
-0.0885413
-1.54507
1.54026
0.0829434
-0.0763437
-1.25586
1.24926
0.0698073
-0.0627503
-1.03376
1.0267
0.0561882
-0.0487836
-0.850618
0.843214
0.0419384
-0.0334415
-0.661004
0.652508
0.0249968
-0.0162031
-0.437557
0.428764
0.00993298
-0.00534146
-0.224476
0.219885
0.00283545
-0.00138611
-0.0814892
0.0800398
0.000706025
-0.000317412
-0.0143323
0.0139437
3.01044e-05
0.00175521
-0.00178532
-0.0802097
0.0774798
0.00272984
-0.00523059
0.00269921
-0.398009
0.40054
0.00189286
-0.00637346
-0.5579
0.56238
0.0115008
-0.0173227
-0.688906
0.694728
0.0244982
-0.0311484
-0.808599
0.815249
0.0383443
-0.0447563
-0.931312
0.937724
0.0516588
-0.05737
-1.07044
1.07615
0.0633374
-0.0676164
-1.22794
1.23222
0.0714856
-0.0737224
-1.40455
1.40679
0.0743929
-0.0727614
-1.60341
1.60178
0.0693039
-0.0641093
-1.53484
1.52964
0.0581766
-0.0508576
-1.2423
1.23498
0.04397
-0.0364511
-1.01871
1.01119
0.0293318
-0.0219044
-0.833559
0.826131
0.0151998
-0.00821596
-0.640862
0.633879
0.0022756
0.0023153
-0.418583
0.413992
-0.00431513
0.00462828
-0.21318
0.212866
-0.00400907
0.00273028
-0.0775297
0.0788085
-0.00163048
0.000655326
-0.013104
0.0140791
-0.000238184
0.00209877
-0.00186058
-0.0787529
0.0763513
0.00240162
-0.00629473
0.00534397
-0.407147
0.408098
-0.00197834
-0.00127954
-0.569996
0.573254
0.00548741
-0.0107971
-0.701412
0.706721
0.0168574
-0.0227164
-0.821182
0.827041
0.028968
-0.0345513
-0.943692
0.949275
0.0404805
-0.0455722
-1.08173
1.08682
0.0506188
-0.0545459
-1.23635
1.24028
0.057807
-0.0595597
-1.40865
1.4104
0.0597795
-0.0578029
-1.59994
1.59797
0.0540803
-0.0484851
-1.52372
1.51812
0.0424312
-0.0351737
-1.22756
1.2203
0.0282351
-0.0204817
-1.00305
0.995295
0.0133868
-0.00586296
-0.816822
0.809298
-0.000440914
0.00592657
-0.624063
0.618577
-0.00990922
0.0121412
-0.406895
0.404663
-0.0120654
0.0103168
-0.209832
0.21158
-0.00811837
0.00550287
-0.0791112
0.0817267
-0.00330284
0.00139612
-0.0146847
0.0165915
-0.000407759
0.00185072
-0.00144296
-0.0774252
0.0753778
0.00204749
-0.00613864
0.00566949
-0.413459
0.413928
-0.00366229
0.00104894
-0.57936
0.581973
0.00308683
-0.00764875
-0.712051
0.716613
0.0128875
-0.0179937
-0.832093
0.837199
0.0235768
-0.0285889
-0.954517
0.959529
0.0340389
-0.0385192
-1.09164
1.09612
0.0430803
-0.0466244
-1.24392
1.24747
0.0494804
-0.0509349
-1.41189
1.41335
0.0508905
-0.0491336
-1.59589
1.59413
0.0453458
-0.0399813
-1.51211
1.50675
0.0340704
-0.0270189
-1.2129
1.20585
0.0205181
-0.0128799
-0.987285
0.979647
0.00594155
0.00119058
-0.800692
0.79356
-0.00693012
0.0117089
-0.610078
0.605299
-0.0147838
0.0162666
-0.399557
0.398074
-0.0152602
0.0126612
-0.210593
0.213192
-0.00995593
0.00678288
-0.0834418
0.0866148
-0.00410356
0.00178663
-0.0180799
0.0203968
-0.000497431
0.00115148
-0.000654052
-0.076441
0.0748538
0.00158721
-0.00524234
0.00509055
-0.418206
0.418358
-0.00346149
0.00147092
-0.587542
0.589532
0.00241443
-0.00655345
-0.721296
0.725435
0.0115418
-0.0159586
-0.841889
0.846306
0.0208864
-0.0253538
-0.964516
0.968983
0.0305564
-0.0346578
-1.10064
1.10475
0.0387431
-0.0421296
-1.25084
1.25422
0.045176
-0.0465203
-1.41483
1.41617
0.0465856
-0.0448586
-1.59201
1.59028
0.0416
-0.0363489
-1.50126
1.49601
0.0309905
-0.0245546
-1.19877
1.19234
0.0183372
-0.011325
-0.972053
0.965041
0.00472875
0.00216294
-0.785489
0.778598
-0.00730141
0.0118549
-0.597488
0.592934
-0.0146039
0.0158004
-0.39403
0.392834
-0.0150783
0.0127627
-0.212903
0.215219
-0.0101034
0.00693173
-0.0887956
0.0919673
-0.00423559
0.00187971
-0.0221301
0.024486
-0.000519663
0.000242381
0.000277282
-0.0759651
0.0747279
0.00123722
-0.00416288
0.00412934
-0.422024
0.422057
-0.00268211
0.000791782
-0.594699
0.596589
0.00297824
-0.0066979
-0.729628
0.733347
0.0109924
-0.0152654
-0.850647
0.85492
0.0198378
-0.0244622
-0.973263
0.977887
0.0289694
-0.0329187
-1.10895
1.1129
0.0371682
-0.0403525
-1.2575
1.26069
0.0429774
-0.0447878
-1.41744
1.41925
0.0451166
-0.0437853
-1.58866
1.58733
0.0408334
-0.0363154
-1.49106
1.48654
0.0314132
-0.0254359
-1.1857
1.17973
0.0197209
-0.013179
-0.957931
0.951389
0.00709338
-0.00088051
-0.771318
0.765105
-0.00422158
0.00853216
-0.585894
0.581584
-0.0110069
0.0124741
-0.389141
0.387674
-0.0123296
0.010567
-0.214913
0.216676
-0.00848305
0.00589813
-0.0937628
0.0963477
-0.00366302
0.00166798
-0.0260454
0.0280405
-0.000492141
-0.000663297
0.00115544
-0.0760157
0.0749925
0.00102314
-0.00289598
0.00262496
-0.425478
0.425749
-0.00138393
-0.000567073
-0.601254
0.603205
0.00407345
-0.00767407
-0.737405
0.741006
0.0118032
-0.0156838
-0.85896
0.862841
0.0203873
-0.0242469
-0.981943
0.985802
0.0287482
-0.0325456
-1.11702
1.12081
0.0367142
-0.0401271
-1.26387
1.26728
0.043084
-0.0447376
-1.42085
1.4225
0.0454906
-0.0446533
-1.58598
1.58514
0.0424243
-0.0382831
-1.48198
1.47784
0.03386
-0.0283427
-1.17391
1.1684
0.0231206
-0.0171092
-0.944724
0.938713
0.011717
-0.00594001
-0.758424
0.752647
0.000990707
0.00346472
-0.575236
0.570781
-0.0062635
0.00774081
-0.383802
0.382324
-0.00816062
0.00725502
-0.21591
0.216816
-0.0059577
0.00420913
-0.0974786
0.0992272
-0.00266154
0.00126115
-0.029129
0.0305293
-0.000390836
-0.00143695
0.00182779
-0.0763493
0.0756483
0.000700938
-0.00176485
0.00108866
-0.429047
0.429723
-8.42074e-05
-0.00222229
-0.606999
0.609305
0.00536548
-0.00882658
-0.744678
0.748139
0.0127883
-0.0168046
-0.866564
0.87058
0.0209088
-0.0249451
-0.989871
0.993908
0.0294317
-0.0330462
-1.12504
1.12866
0.0373343
-0.0407353
-1.2705
1.27391
0.0437966
-0.0460297
-1.42458
1.42681
0.0473404
-0.0468519
-1.58438
1.58389
0.044913
-0.0415103
-1.4739
1.47049
0.0376691
-0.0326301
-1.16284
1.1578
0.0278506
-0.0226775
-0.932769
0.927596
0.017495
-0.0123062
-0.746444
0.741255
0.00754123
-0.00277021
-0.564924
0.560153
-0.000431433
0.00251141
-0.377992
0.375912
-0.00334599
0.00339418
-0.215622
0.215574
-0.00290312
0.00211812
-0.0994831
0.100268
-0.00141545
0.000718172
-0.0310193
0.0317165
-0.000243016
-0.00197895
0.00222196
-0.0771002
0.0765619
0.000538356
-0.000812551
0.000255297
-0.432847
0.433405
0.00157116
-0.0036307
-0.613058
0.615117
0.00690777
-0.0102467
-0.751446
0.754785
0.0140601
-0.0176855
-0.87425
0.877876
0.0219255
-0.0256644
-0.99795
1.00169
0.03012
-0.0341872
-1.13273
1.13679
0.0381445
-0.0419024
-1.27736
1.28112
0.0454244
-0.0477985
-1.42897
1.43134
0.0495389
-0.0498723
-1.58364
1.58398
0.0484157
-0.0456972
-1.467
1.46429
0.0421825
-0.0378127
-1.15293
1.14856
0.0337005
-0.0289691
-0.922174
0.917442
0.024329
-0.0192568
-0.735353
0.730281
0.0144615
-0.00938653
-0.554193
0.549118
0.00567005
-0.00299885
-0.371412
0.36874
0.00137232
-0.000453046
-0.213599
0.212679
1.14475e-05
0.000213864
-0.099598
0.0993727
-0.000282036
0.000230473
-0.0315797
0.0316313
-0.00010966
-0.00223103
0.00234069
-0.0781215
0.0777776
0.00034389
0.000234861
-0.00109691
-0.43673
0.437592
0.00273163
-0.00509654
-0.618665
0.62103
0.00831318
-0.0115032
-0.757986
0.761176
0.0153984
-0.0188793
-0.881466
0.884947
0.0229741
-0.026847
-1.0059
1.00978
0.0312226
-0.0352714
-1.14072
1.14476
0.0394712
-0.0432826
-1.2848
1.28861
0.0470277
-0.0501858
-1.43401
1.43717
0.0524137
-0.0530851
-1.58427
1.58494
0.052375
-0.0501003
-1.46152
1.45925
0.0473157
-0.0437213
-1.14429
1.1407
0.0398851
-0.0355172
-0.912534
0.908166
0.0310417
-0.0257699
-0.724546
0.719274
0.0208774