/*--------------------------------*- C++ -*----------------------------------*\
| =========                 |                                                 |
| \\      /  F ield         | OpenFOAM: The Open Source CFD Toolbox           |
|  \\    /   O peration     | Version:  2306                                  |
|   \\  /    A nd           | Website:  www.openfoam.com                      |
|    \\/     M anipulation  |                                                 |
\*---------------------------------------------------------------------------*/
FoamFile
{
    version     2.0;
    format      ascii;
    arch        "LSB;label=32;scalar=64";
    class       volScalarField;
    location    "17";
    object      p;
}
// * * * * * * * * * * * * * * * * * * * * * * * * * * * * * * * * * * * * * //

dimensions      [0 2 -2 0 0 0 0];

internalField   nonuniform List<scalar> 
8800
(
0.413484
0.365443
0.327082
0.29846
0.277859
0.263128
0.252541
0.245044
0.240179
0.238024
0.239094
0.243077
0.24954
0.258707
0.271331
0.288821
0.313194
0.346755
0.389162
0.446274
0.245973
0.253187
0.261647
0.265092
0.263212
0.257729
0.251061
0.244937
0.240175
0.237242
0.236801
0.239101
0.243393
0.249181
0.255912
0.262394
0.266423
0.265839
0.259711
0.250691
0.222625
0.228825
0.233068
0.236483
0.239039
0.239899
0.238842
0.236709
0.23463
0.233587
0.234346
0.236508
0.239108
0.241111
0.241451
0.239766
0.236794
0.233054
0.22846
0.224662
0.217407
0.220131
0.222936
0.225345
0.227081
0.22848
0.229442
0.229685
0.229401
0.229226
0.229745
0.230612
0.231106
0.230787
0.229772
0.228379
0.22645
0.223792
0.221268
0.219736
0.212147
0.213591
0.215528
0.217754
0.219669
0.221098
0.22219
0.223065
0.223695
0.224154
0.224514
0.224633
0.224363
0.223728
0.222745
0.221252
0.219275
0.217151
0.215698
0.214885
0.207144
0.208064
0.20949
0.211326
0.213227
0.214962
0.216388
0.217534
0.218493
0.219244
0.219599
0.219504
0.219035
0.218184
0.216897
0.215269
0.213524
0.211919
0.210939
0.210427
0.202497
0.203148
0.204365
0.20604
0.207824
0.209651
0.211398
0.212864
0.21399
0.214824
0.215303
0.215275
0.214688
0.213574
0.212122
0.210572
0.208998
0.207605
0.206834
0.20649
0.198264
0.198704
0.199764
0.201308
0.202913
0.204476
0.206033
0.207615
0.209069
0.210217
0.210745
0.210586
0.209918
0.208983
0.207889
0.206615
0.205223
0.203991
0.203381
0.20317
0.194914
0.195173
0.196057
0.197462
0.198986
0.200533
0.20207
0.203513
0.204891
0.206114
0.206855
0.206985
0.206662
0.205943
0.204955
0.203814
0.202585
0.201545
0.201102
0.201
0.192552
0.192698
0.193288
0.194339
0.195554
0.196851
0.198244
0.199763
0.20129
0.202706
0.203667
0.203995
0.203822
0.203348
0.202691
0.201931
0.201102
0.200451
0.200198
0.200145
0.190277
0.19038
0.19072
0.191348
0.192172
0.193171
0.194347
0.19571
0.197247
0.198843
0.20011
0.200815
0.201079
0.201052
0.200821
0.200507
0.200183
0.199928
0.199811
0.199765
0.187302
0.187382
0.187631
0.188073
0.188787
0.189679
0.190878
0.192356
0.194091
0.19598
0.19761
0.198644
0.199173
0.199398
0.199374
0.199399
0.199363
0.199299
0.199243
0.199203
0.183578
0.183638
0.183877
0.18433
0.184911
0.18582
0.187032
0.188604
0.190545
0.192792
0.194877
0.196355
0.197287
0.197859
0.19824
0.198443
0.198542
0.198548
0.198529
0.198497
0.179284
0.179323
0.17957
0.180094
0.180841
0.181778
0.183169
0.184971
0.187244
0.189968
0.192618
0.194611
0.19597
0.196846
0.197419
0.197762
0.197912
0.197957
0.197976
0.197955
0.174517
0.174542
0.17479
0.175374
0.17627
0.177422
0.179005
0.181113
0.183828
0.187177
0.190517
0.193116
0.194954
0.19623
0.197026
0.197521
0.197755
0.19787
0.197926
0.19791
0.169253
0.169281
0.169537
0.170175
0.171169
0.172574
0.174448
0.176974
0.180287
0.184431
0.188643
0.191959
0.194377
0.196015
0.197141
0.197837
0.198227
0.19844
0.198529
0.198512
0.163267
0.163296
0.163607
0.164311
0.165448
0.167078
0.169356
0.172459
0.176557
0.181723
0.187011
0.191246
0.194276
0.196456
0.197913
0.198854
0.199427
0.199749
0.199868
0.199845
0.156268
0.156304
0.156695
0.157524
0.158831
0.160811
0.163611
0.167455
0.172564
0.179024
0.185653
0.190952
0.194857
0.197574
0.19944
0.200674
0.201451
0.201885
0.202036
0.202006
0.147902
0.147948
0.148414
0.149438
0.151105
0.153549
0.157026
0.161845
0.168258
0.176349
0.184627
0.191265
0.19611
0.199524
0.201872
0.203443
0.204442
0.204996
0.205184
0.205145
0.137792
0.137855
0.138457
0.139743
0.141852
0.144956
0.149379
0.15549
0.163574
0.17371
0.184024
0.192256
0.198246
0.202473
0.205393
0.207356
0.20861
0.209299
0.209533
0.209484
0.125387
0.125467
0.126255
0.127944
0.130686
0.134704
0.140406
0.148212
0.158443
0.171136
0.183922
0.194059
0.201419
0.206623
0.210222
0.212653
0.214209
0.21506
0.215346
0.215283
0.10992
0.110033
0.111093
0.11336
0.117012
0.122311
0.129753
0.139823
0.152824
0.168686
0.184444
0.196842
0.205828
0.212192
0.216611
0.21961
0.221538
0.222577
0.222922
0.222843
0.0902593
0.0904245
0.0919002
0.0950508
0.100054
0.107206
0.117099
0.13021
0.146744
0.166474
0.185744
0.200779
0.211665
0.219406
0.224816
0.228519
0.230917
0.232212
0.232626
0.232521
0.0645673
0.0648241
0.0670168
0.07166
0.0788045
0.0887713
0.102163
0.119339
0.140324
0.164683
0.188007
0.206043
0.219112
0.22847
0.235083
0.239667
0.242664
0.244283
0.244786
0.244649
0.0297787
0.0302715
0.0339338
0.0413185
0.0520846
0.0664329
0.0848198
0.107358
0.133817
0.163556
0.191415
0.212768
0.22828
0.239509
0.247579
0.253292
0.257094
0.259148
0.259755
0.25957
-0.0200679
-0.0184414
-0.0109877
0.00200384
0.019066
0.0401478
0.0654236
0.0947306
0.127636
0.163376
0.196115
0.220998
0.239147
0.252471
0.262277
0.269434
0.274365
0.277096
0.277877
0.277618
-0.0943844
-0.0852838
-0.0683152
-0.0452461
-0.0187298
0.0113154
0.0449809
0.0820707
0.122139
0.164453
0.202547
0.231403
0.252649
0.268565
0.280672
0.289974
0.296777
0.300858
0.302198
0.302161
-0.173506
-0.153609
-0.126394
-0.0929374
-0.0567413
-0.0176246
0.0245076
0.0695624
0.117209
0.166851
0.211356
0.24529
0.270657
0.290099
0.305341
0.317466
0.326893
0.33354
0.336048
0.336181
-0.237229
-0.214604
-0.179139
-0.137373
-0.0926234
-0.045098
0.00511684
0.0578537
0.112786
0.169358
0.219755
0.258144
0.286951
0.309178
0.326729
0.340777
0.351761
0.359443
0.361725
0.362105
-0.288711
-0.263866
-0.22368
-0.175949
-0.12463
-0.0701907
-0.0129811
0.0466695
0.108286
0.171213
0.226835
0.268933
0.300335
0.324408
0.343263
0.35826
0.369903
0.377925
0.380665
0.381101
-0.330642
-0.30495
-0.261258
-0.209153
-0.152649
-0.0926719
-0.0295987
0.0360588
0.103626
0.172247
0.232455
0.277575
0.310853
0.336071
0.355614
0.371015
0.382844
0.390825
0.393779
0.394188
-0.366325
-0.340182
-0.294033
-0.238286
-0.177591
-0.112958
-0.0448767
0.0260008
0.0988669
0.172621
0.236904
0.284641
0.319474
0.345558
0.365499
0.380966
0.392737
0.400674
0.403764
0.404168
-0.397711
-0.37134
-0.323277
-0.26458
-0.200351
-0.131709
-0.0592486
0.0162994
0.0939753
0.17249
0.240643
0.290831
0.327041
0.353806
0.374001
0.389465
0.401166
0.408966
0.412147
0.412537
-0.426252
-0.399683
-0.350075
-0.288889
-0.221631
-0.149485
-0.0731115
0.0066716
0.0888095
0.171837
0.243669
0.296209
0.333778
0.361256
0.38177
0.397324
0.408962
0.416648
0.419838
0.420226
-0.452803
-0.426045
-0.375147
-0.311775
-0.24188
-0.166663
-0.0868039
-0.00316527
0.0831208
0.170426
0.245946
0.300993
0.340074
0.368395
0.389314
0.405013
0.416664
0.424179
0.427334
0.427797
-0.478042
-0.451047
-0.398923
-0.333696
-0.261485
-0.183534
-0.100553
-0.0134057
0.0767589
0.168289
0.247617
0.305344
0.346115
0.37544
0.396895
0.412835
0.424536
0.431974
0.435028
0.435496
-0.502235
-0.474966
-0.421716
-0.354936
-0.280636
-0.200247
-0.114464
-0.0240996
0.0697402
0.165387
0.24859
0.309229
0.351949
0.382501
0.404672
0.420982
0.432819
0.44021
0.443131
0.443537
-0.525726
-0.49808
-0.443961
-0.37566
-0.299477
-0.216932
-0.128614
-0.0353004
0.0619469
0.161561
0.248762
0.312602
0.357592
0.389633
0.412726
0.42955
0.441606
0.448988
0.451755
0.452065
-0.548552
-0.520476
-0.46568
-0.395938
-0.318108
-0.233638
-0.143057
-0.0470932
0.0533014
0.156755
0.24803
0.315347
0.362973
0.396814
0.421052
0.438551
0.450917
0.458316
0.460954
0.461109
-0.570769
-0.542348
-0.486814
-0.415806
-0.336531
-0.250369
-0.157798
-0.0594638
0.043821
0.150909
0.246259
0.3173
0.36792
0.403943
0.429607
0.447956
0.460715
0.468122
0.470623
0.470626
-0.592476
-0.563651
-0.507383
-0.435278
-0.354747
-0.267097
-0.172778
-0.07235
0.0335195
0.143974
0.243325
0.318277
0.372252
0.410882
0.43832
0.457723
0.470956
0.47835
0.480664
0.480522
-0.613685
-0.584385
-0.527399
-0.45433
-0.372697
-0.28376
-0.18793
-0.0857013
0.0224331
0.135937
0.239121
0.318065
0.375743
0.417464
0.447116
0.467813
0.48155
0.488845
0.490877
0.490607
-0.634231
-0.604485
-0.546837
-0.472922
-0.390324
-0.300285
-0.203189
-0.099429
0.0106465
0.126837
0.233563
0.316462
0.37808
0.423414
0.455899
0.478258
0.492455
0.499422
0.501055
0.500652
-0.654077
-0.623925
-0.565668
-0.490998
-0.407573
-0.31661
-0.218455
-0.113437
-0.00174446
0.116725
0.226616
0.313287
0.378923
0.428328
0.464471
0.489239
0.503915
0.509997
0.510882
0.510362
-0.67328
-0.642646
-0.583858
-0.508517
-0.42438
-0.332649
-0.233632
-0.127613
-0.0146298
0.105697
0.218281
0.308419
0.377942
0.431652
0.472381
0.500941
0.516763
0.521045
0.520073
0.519406
-0.691683
-0.660652
-0.601351
-0.525418
-0.440685
-0.348322
-0.248627
-0.141841
-0.0278767
0.0938872
0.208615
0.301775
0.374861
0.432672
0.478672
0.512999
0.532402
0.535301
0.530024
0.5278
-0.70938
-0.677941
-0.618171
-0.541728
-0.456524
-0.363675
-0.263495
-0.156181
-0.041552
0.0812295
0.197513
0.293125
0.369393
0.43058
0.481729
0.523679
0.550726
0.558133
0.548905
0.53247
-0.726309
-0.694514
-0.634449
-0.557625
-0.472175
-0.37903
-0.278635
-0.171106
-0.0561978
0.0670605
0.184269
0.281581
0.360735
0.424161
0.478326
0.527583
0.562033
0.569479
0.554015
0.535108
-0.742331
-0.710447
-0.650029
-0.57288
-0.487393
-0.394069
-0.29383
-0.186287
-0.0714778
0.0517111
0.169121
0.266989
0.348534
0.413051
0.464019
0.51333
0.545378
0.5403
0.471761
0.432228
-0.757051
-0.72683
-0.664501
-0.586923
-0.501505
-0.408321
-0.308805
-0.201486
-0.0871479
0.0353682
0.15215
0.249302
0.332142
0.398045
0.438973
0.469735
0.485886
0.442362
0.367823
0.320392
-0.804497
-0.741441
-0.677622
-0.600948
-0.515631
-0.422949
-0.323551
-0.2169
-0.103473
0.0177124
0.132968
0.228353
0.309345
0.380635
0.393602
0.399076
0.3717
0.307371
0.223798
0.177628
-0.770073
-0.754266
-0.69644
-0.621416
-0.536221
-0.444147
-0.34587
-0.240431
-0.128814
-0.0103783
0.10093
0.19217
0.264269
0.329433
0.334043
0.217971
0.105869
0.0281401
-0.0519587
-0.00668766
-0.798818
-0.770383
-0.711876
-0.636756
-0.552122
-0.460545
-0.362368
-0.257902
-0.147812
-0.0318652
0.0756801
0.162241
0.226836
0.260044
0.209056
0.048723
-0.0958896
-0.200271
-0.313177
-0.241151
-0.82023
-0.789114
-0.729533
-0.654102
-0.569713
-0.4784
-0.380602
-0.277275
-0.169011
-0.0560851
0.0469909
0.127351
0.182112
0.185464
0.0672731
-0.138786
-0.315998
-0.455739
-0.622771
-0.549071
-0.840717
-0.808298
-0.747812
-0.671781
-0.587381
-0.496328
-0.399249
-0.297168
-0.190897
-0.081311
0.016617
0.0900467
0.131459
0.096038
-0.0895657
-0.330829
-0.556687
-0.762664
-0.997162
-0.977678
-0.860187
-0.827712
-0.766618
-0.690079
-0.605646
-0.514915
-0.418648
-0.317908
-0.213827
-0.107879
-0.0156343
0.0504799
0.0741853
-0.00254173
-0.241629
-0.510717
-0.782079
-1.01884
-1.34169
-1.6601
-0.879665
-0.847513
-0.786154
-0.709339
-0.624873
-0.53443
-0.438898
-0.339499
-0.23766
-0.135513
-0.049128
0.00912736
0.0152589
-0.114157
-0.377842
-0.655606
-0.936763
-1.15804
-1.27132
-1.47402
-0.899793
-0.868022
-0.806671
-0.729824
-0.645436
-0.555362
-0.460641
-0.362719
-0.263396
-0.165448
-0.0853819
-0.035997
-0.0540706
-0.239414
-0.500741
-0.764195
-1.00059
-1.14074
-1.16902
-1.19694
-0.920881
-0.889385
-0.828324
-0.751535
-0.667377
-0.577804
-0.484086
-0.387877
-0.291442
-0.198217
-0.125042
-0.0858823
-0.134235
-0.357368
-0.613874
-0.849966
-1.0347
-1.11111
-1.12738
-1.13009
-0.943088
-0.911725
-0.851012
-0.774394
-0.690566
-0.601657
-0.509128
-0.414875
-0.3217
-0.233744
-0.167928
-0.141695
-0.21936
-0.469421
-0.719893
-0.935482
-1.07181
-1.09784
-1.10194
-1.10255
-0.966307
-0.935061
-0.874661
-0.798299
-0.714912
-0.626792
-0.53562
-0.443556
-0.353939
-0.271811
-0.213786
-0.200643
-0.308845
-0.57635
-0.821057
-1.02088
-1.07793
-1.09092
-1.0941
-1.094
-0.990276
-0.959215
-0.89905
-0.823071
-0.740211
-0.653013
-0.563353
-0.473681
-0.387842
-0.311996
-0.262103
-0.260066
-0.406105
-0.677242
-0.918623
-1.09868
-1.12809
-1.10413
-1.09266
-1.08962
-1.01441
-0.983785
-0.923943
-0.848436
-0.766181
-0.680001
-0.591973
-0.504863
-0.422908
-0.353644
-0.311862
-0.324825
-0.498278
-0.765151
-1.00055
-1.13877
-1.11658
-1.0984
-1.08502
-1.07965
-1.03819
-1.00816
-0.948936
-0.873958
-0.792358
-0.707298
-0.620967
-0.536516
-0.45847
-0.395798
-0.361931
-0.395749
-0.587829
-0.814029
-1.04563
-1.1355
-1.15435
-1.10411
-1.08173
-1.07683
-1.06105
-1.03158
-0.973617
-0.898924
-0.818193
-0.73429
-0.649656
-0.567791
-0.493623
-0.437043
-0.41183
-0.46186
-0.698414
-0.848334
-0.978288
-1.16319
-1.23755
-1.28795
-1.27074
-1.24211
-1.08195
-1.05349
-0.996493
-0.922973
-0.842983
-0.760186
-0.677181
-0.597607
-0.527115
-0.475559
-0.460429
-0.520429
-0.844417
-0.980603
-0.750089
-0.751049
-1.30113
-1.66358
-1.6314
-1.60685
-1.09975
-1.0728
-1.01728
-0.944691
-0.865669
-0.784012
-0.702511
-0.624646
-0.557084
-0.509296
-0.505238
-0.5804
-1.02723
-1.41149
-1.38905
-1.59136
-1.75429
-1.76231
-1.64131
-1.67701
-1.11341
-1.08837
-1.03476
-0.963265
-0.885182
-0.804632
-0.724325
-0.64768
-0.581128
-0.536476
-0.54092
-0.645364
-1.26615
-2.18797
-3.26714
-3.80756
-3.77777
-3.22737
-2.68669
-2.50721
-1.12163
-1.0991
-1.04784
-0.977582
-0.900422
-0.820842
-0.741339
-0.665078
-0.597572
-0.551534
-0.554918
-0.693655
-1.3819
-2.47015
-3.69289
-4.12387
-4.09872
-3.76584
-3.35095
-3.09646
-1.12358
-1.10381
-1.05532
-0.986557
-0.910304
-0.831569
-0.752453
-0.675686
-0.604476
-0.54924
-0.541032
-0.612911
-1.08157
-1.62095
-2.17731
-2.47063
-2.3693
-2.08705
-1.80871
-1.63778
-1.1175
-1.10095
-1.056
-0.989048
-0.913643
-0.835793
-0.757154
-0.67911
-0.602092
-0.529633
-0.477334
-0.448493
-0.449751
-0.361543
-0.136185
0.141908
0.443356
0.693472
0.867453
0.942867
-1.1023
-1.08883
-1.04803
-0.983447
-0.909306
-0.832958
-0.75544
-0.676067
-0.591816
-0.495881
-0.389624
-0.298083
0.00519885
0.510051
1.09957
1.66802
2.11377
2.39423
2.5287
2.57073
-1.07648
-1.06637
-1.03002
-0.9683
-0.896309
-0.822844
-0.748178
-0.669668
-0.580687
-0.46642
-0.322231
-0.167971
0.0822708
0.649904
1.30846
1.88172
2.30708
2.56177
2.6832
2.71926
-1.03827
-1.0312
-0.999385
-0.941394
-0.874221
-0.805909
-0.737472
-0.665821
-0.581263
-0.457275
-0.28534
-0.0900874
0.105693
0.522522
1.06377
1.52315
1.86274
2.06727
2.17031
2.20366
-0.98307
-0.978138
-0.952192
-0.902037
-0.842545
-0.783449
-0.726913
-0.670897
-0.600208
-0.489436
-0.306368
-0.0946072
0.116763
0.34454
0.704438
1.03646
1.29718
1.46103
1.55161
1.5818
-0.913507
-0.909542
-0.890159
-0.850989
-0.803544
-0.758188
-0.719465
-0.688837
-0.661301
-0.61015
-0.474668
-0.252342
-0.0277301
0.139397
0.352471
0.576367
0.761009
0.882287
0.944587
0.961317
-0.830756
-0.82831
-0.816333
-0.791452
-0.761002
-0.734288
-0.719292
-0.725931
-0.767623
-0.854905
-0.857798
-0.620609
-0.333486
-0.15861
0.0352453
0.227786
0.374923
0.473315
0.528273
0.540215
-0.753257
-0.75229
-0.746365
-0.734049
-0.720103
-0.71263
-0.723448
-0.776463
-0.921947
-1.21558
-1.41904
-1.16069
-0.754259
-0.526379
-0.309244
-0.103913
0.0527456
0.14835
0.188549
0.193123
-0.681796
-0.682038
-0.680709
-0.6767
-0.675165
-0.683752
-0.717801
-0.813671
-1.0578
-1.54743
-1.96577
-1.66401
-1.15689
-0.839312
-0.5645
-0.340723
-0.190915
-0.110493
-0.0797978
-0.0786289
-0.60448
-0.605931
-0.606582
-0.607276
-0.612714
-0.630418
-0.676279
-0.78882
-1.0633
-1.61063
-2.04993
-1.77943
-1.33001
-0.992097
-0.687715
-0.478452
-0.358899
-0.307156
-0.289625
-0.288585
-0.510579
-0.512263
-0.514029
-0.516978
-0.524531
-0.542946
-0.585381
-0.684892
-0.918673
-1.37021
-1.70738
-1.51511
-1.17778
-0.863141
-0.624677
-0.484675
-0.429998
-0.414183
-0.408087
-0.406163
-0.404094
-0.405593
-0.407557
-0.410553
-0.41677
-0.430148
-0.45917
-0.524671
-0.673224
-0.952193
-1.14083
-1.01195
-0.773414
-0.565066
-0.444225
-0.403601
-0.401558
-0.406934
-0.407464
-0.406166
-0.295935
-0.296945
-0.298631
-0.300751
-0.304391
-0.311103
-0.324796
-0.354701
-0.419868
-0.536511
-0.602105
-0.506592
-0.375681
-0.29414
-0.276336
-0.291549
-0.309155
-0.32021
-0.323428
-0.323276
-0.198014
-0.198538
-0.199737
-0.200935
-0.20223
-0.203741
-0.206287
-0.211729
-0.223258
-0.236599
-0.212702
-0.171609
-0.11786
-0.123489
-0.150675
-0.179393
-0.199183
-0.209965
-0.214042
-0.21474
-0.117925
-0.118106
-0.118909
-0.119563
-0.119534
-0.118235
-0.115112
-0.109036
-0.0981279
-0.0773802
-0.0438942
-0.0257471
-0.0141305
-0.0368211
-0.0673429
-0.0917932
-0.107472
-0.115966
-0.119722
-0.120778
-0.0578081
-0.0578112
-0.0583781
-0.0588745
-0.0585245
-0.0564437
-0.0516484
-0.0424708
-0.0267644
-0.00261255
0.022172
0.0284371
0.0236773
0.00457171
-0.0174687
-0.0344608
-0.0453503
-0.0513745
-0.054246
-0.055151
-0.0159653
-0.015911
-0.0163692
-0.0168912
-0.0167277
-0.0150289
-0.0107893
-0.00255677
0.0110009
0.029717
0.0445888
0.0459972
0.0379622
0.0244219
0.0102875
-0.000752842
-0.0080445
-0.0121827
-0.0141899
-0.0148549
0.011146
0.0111957
0.0108021
0.0102048
0.010093
0.0111704
0.0141929
0.0201758
0.0298718
0.042391
0.0505546
0.0499431
0.043224
0.034018
0.0249642
0.0177423
0.0127638
0.00985976
0.00847786
0.00801957
0.0274104
0.0274303
0.0270813
0.0264475
0.0260925
0.0265854
0.0284998
0.0324322
0.03866
0.0463206
0.0505255
0.0490995
0.044133
0.037886
0.0319375
0.0270651
0.023554
0.0214571
0.0204935
0.020176
0.036193
0.0361801
0.0358573
0.0352178
0.0347065
0.0347364
0.035705
0.0380133
0.0417507
0.046126
0.0480089
0.046324
0.0427259
0.0384492
0.0344045
0.0310174
0.0284911
0.0269559
0.026278
0.0260637
0.0400339
0.0399978
0.039697
0.039075
0.0384979
0.0382379
0.0385624
0.039686
0.0416455
0.0438972
0.0445257
0.0429136
0.040222
0.0371802
0.0343299
0.0319124
0.0300643
0.0289309
0.0284488
0.0283013
0.0406802
0.0406324
0.0403521
0.0397708
0.039171
0.0387392
0.0386582
0.0390566
0.0399142
0.0408408
0.0407106
0.0392135
0.037129
0.0348999
0.0328328
0.0310661
0.0296963
0.0288538
0.0285072
0.0284039
0.0392721
0.0392218
0.0389655
0.0384361
0.0378459
0.0373265
0.0369933
0.0369216
0.0370959
0.0372476
0.0367222
0.0353939
0.0337484
0.0320657
0.0305272
0.0292131
0.0281881
0.0275588
0.0273069
0.0272336
0.036549
0.0365022
0.036278
0.0358118
0.0352622
0.0347244
0.0342724
0.0339467
0.0337255
0.0334346
0.0327177
0.0315484
0.0302266
0.0289299
0.0277637
0.0267716
0.025997
0.0255234
0.025338
0.0252853
0.0329957
0.0329552
0.0327659
0.0323661
0.031875
0.0313603
0.0308696
0.0304251
0.0300088
0.0295007
0.0287183
0.0277
0.0266317
0.0256204
0.0247254
0.0239695
0.0233807
0.0230224
0.022885
0.0228467
0.0289282
0.0288948
0.0287407
0.0284083
0.0279853
0.0275225
0.0270476
0.0265713
0.0260792
0.0254921
0.0247316
0.0238626
0.0230008
0.0222085
0.0215179
0.0209391
0.0204895
0.0202175
0.0201151
0.0200872
0.0245535
0.0245269
0.0244055
0.0241377
0.0237867
0.023391
0.0229655
0.022515
0.0220278
0.0214506
0.0207622
0.0200374
0.0193491
0.0187309
0.0181992
0.0177571
0.0174149
0.0172093
0.0171335
0.0171132
0.0200035
0.0199829
0.0198903
0.0196816
0.0194014
0.0190785
0.0187208
0.0183299
0.0178967
0.0173861
0.0168045
0.0162216
0.015685
0.0152117
0.0148083
0.0144744
0.0142168
0.0140633
0.0140078
0.0139931
0.0153578
0.0153426
0.0152747
0.015119
0.014906
0.0146576
0.0143782
0.0140672
0.0137177
0.0133071
0.0128516
0.01241
0.0120119
0.0116642
0.0113687
0.0111238
0.0109351
0.0108236
0.010784
0.0107734
0.0106625
0.0106517
0.0106047
0.0104952
0.0103451
0.010171
0.00997497
0.00975576
0.00950824
0.00921885
0.00890294
0.0086019
0.00833317
0.00809912
0.00789916
0.00773145
0.0076008
0.00752369
0.00749657
0.00748909
0.00593825
0.00593114
0.00590316
0.00583721
0.0057493
0.00565106
0.00554213
0.00542084
0.00528416
0.00512528
0.00495261
0.00478872
0.00464315
0.00451608
0.00440637
0.00431188
0.00423552
0.00418982
0.00417357
0.004168
0.00120579
0.00120746
0.00121674
0.00121667
0.00120069
0.00117804
0.00115167
0.00112229
0.00108884
0.00104919
0.00100417
0.000960186
0.000921562
0.000888159
0.000859865
0.000835934
0.00081658
0.000807231
0.000812848
0.000818451
-0.745918
-0.501037
-0.245947
-0.0394643
0.127785
0.262791
0.377319
0.473408
0.514458
0.49895
-0.325226
-0.169255
-0.00986229
0.127503
0.244051
0.341841
0.421194
0.477543
0.507644
0.519697
-0.0492599
0.0537537
0.159933
0.254949
0.336922
0.405684
0.460251
0.500411
0.528879
0.545968
0.142851
0.213601
0.288211
0.356265
0.415357
0.465314
0.506114
0.538571
0.563869
0.581632
0.288242
0.338769
0.393356
0.44384
0.488603
0.52739
0.560288
0.587545
0.609124
0.626737
0.40519
0.442657
0.486243
0.52614
0.562552
0.595005
0.623158
0.646724
0.664927
0.682365
0.505451
0.536997
0.574418
0.609422
0.641763
0.670991
0.696448
0.717489
0.732893
0.750298
0.598902
0.629977
0.665986
0.699878
0.730996
0.758891
0.782851
0.802068
0.815268
0.83275
0.697225
0.731746
0.769391
0.804191
0.835178
0.862146
0.884717
0.902307
0.914128
0.931975
0.813983
0.852973
0.891951
0.926891
0.95673
0.981897
1.0026
1.01863
1.03021
1.0486
0.959915
0.999808
1.0356
1.06637
1.09229
1.11464
1.1339
1.14962
1.16243
1.1806
1.13501
1.16745
1.19352
1.21604
1.23629
1.25521
1.27298
1.28964
1.30548
1.32371
1.32299
1.34071
1.35646
1.37321
1.38948
1.40412
1.41724
1.43128
1.44843
1.46814
1.50503
1.51594
1.52814
1.53898
1.54828
1.55793
1.56893
1.58058
1.59057
1.60576
1.71607
1.71813
1.70298
1.68778
1.68148
1.68721
1.70583
1.73629
1.76846
1.79922
2.02198
1.88495
1.80874
1.76676
1.74933
1.75338
1.78079
1.83692
1.94038
2.15567
0.309755
0.306386
0.300474
0.290689
0.277775
0.26539
0.255121
0.247203
0.241544
0.238205
0.237693
0.240208
0.245112
0.252171
0.261445
0.273002
0.286038
0.297962
0.305377
0.310071
0.227713
0.233605
0.240544
0.245821
0.24871
0.248431
0.245575
0.241694
0.238142
0.235792
0.235467
0.237441
0.240884
0.245015
0.248779
0.250631
0.2494
0.245213
0.239243
0.232162
0.21998
0.222329
0.225731
0.228719
0.23102
0.232899
0.233934
0.23374
0.232714
0.231725
0.231706
0.232898
0.234456
0.235473
0.235281
0.233911
0.231929
0.229434
0.226164
0.223153
0.214763
0.215846
0.217783
0.220279
0.222361
0.223859
0.225031
0.225926
0.2264
0.226586
0.226878
0.227351
0.227572
0.227255
0.226476
0.225362
0.223729
0.221465
0.219195
0.21773
0.209604
0.21024
0.211453
0.213382
0.215404
0.217209
0.218611
0.219707
0.220627
0.221375
0.22188
0.222025
0.221799
0.22125
0.220346
0.218967
0.21718
0.215276
0.213713
0.212878
0.204774
0.20519
0.206098
0.207681
0.209495
0.211344
0.213089
0.214547
0.215694
0.216595
0.217209
0.217398
0.217118
0.216366
0.215139
0.213599
0.211953
0.210362
0.209143
0.20858
0.200312
0.200585
0.201328
0.202771
0.204459
0.206154
0.207875
0.209558
0.211038
0.212197
0.212961
0.213162
0.212743
0.211815
0.210584
0.209217
0.207765
0.206311
0.205264
0.204861
0.196446
0.196591
0.19718
0.198478
0.200034
0.201589
0.203082
0.204548
0.205998
0.20734
0.208291
0.208559
0.208283
0.207653
0.206774
0.205665
0.204394
0.203109
0.202231
0.201974
0.19365
0.193712
0.194128
0.195186
0.196561
0.198002
0.199535
0.201073
0.202566
0.203956
0.205067
0.205611
0.205566
0.205074
0.204258
0.203314
0.20227
0.201249
0.200622
0.200477
0.191473
0.191511
0.19176
0.192405
0.193335
0.194382
0.195535
0.196861
0.198343
0.199891
0.201241
0.20204
0.202289
0.202194
0.201899
0.201435
0.200885
0.200367
0.200065
0.199981
0.188889
0.18892
0.189092
0.189495
0.190125
0.190963
0.192036
0.193349
0.194864
0.196557
0.198193
0.199371
0.199994
0.200224
0.200149
0.199979
0.199853
0.199699
0.199588
0.199535
0.185523
0.185543
0.185688
0.18603
0.186544
0.187295
0.188329
0.189679
0.191366
0.193335
0.19535
0.196916
0.197858
0.198365
0.198682
0.198895
0.198948
0.19895
0.198912
0.198878
0.181489
0.181494
0.181629
0.181998
0.182582
0.183341
0.184438
0.185904
0.187783
0.190071
0.192561
0.194649
0.196066
0.196984
0.197562
0.197923
0.198139
0.198208
0.198214
0.198205
0.176958
0.176955
0.177079
0.177489
0.178164
0.179106
0.180336
0.182032
0.184247
0.187003
0.190105
0.192792
0.194703
0.196007
0.196869
0.197413
0.197703
0.197823
0.197878
0.197888
0.171962
0.171944
0.172078
0.172512
0.173265
0.174353
0.175866
0.17784
0.180474
0.183841
0.187699
0.191129
0.193631
0.195371
0.196571
0.197355
0.197789
0.198023
0.198141
0.198165
0.166386
0.166363
0.166521
0.166989
0.167836
0.16909
0.170848
0.173257
0.176485
0.180646
0.185465
0.189821
0.193031
0.195271
0.196863
0.1979
0.198541
0.198917
0.199102
0.199135
0.159943
0.159916
0.160103
0.160647
0.161606
0.163088
0.165205
0.168163
0.17216
0.17734
0.183372
0.18885
0.192879
0.195817
0.197821
0.199171
0.200046
0.200578
0.20083
0.200873
0.152298
0.152264
0.152494
0.153164
0.154354
0.156137
0.158742
0.162426
0.167418
0.173898
0.181446
0.188289
0.193395
0.197041
0.19958
0.201299
0.202438
0.203138
0.203462
0.203515
0.143092
0.143047
0.143349
0.144192
0.145672
0.147935
0.151229
0.155865
0.162146
0.170284
0.179722
0.188251
0.194599
0.199135
0.202293
0.204448
0.205886
0.206773
0.207177
0.207242
0.131893
0.131839
0.132249
0.133353
0.135244
0.138138
0.142351
0.148258
0.156231
0.166477
0.178253
0.188821
0.196646
0.202246
0.206154
0.208827
0.210618
0.211728
0.21223
0.212308
0.118043
0.11798
0.118549
0.12002
0.122507
0.12629
0.13177
0.139404
0.149584
0.162487
0.177124
0.190136
0.199726
0.206588
0.211388
0.214682
0.216894
0.21827
0.218893
0.218986
0.100577
0.100507
0.101323
0.103347
0.106715
0.111799
0.11908
0.129059
0.142119
0.158359
0.176456
0.192355
0.204019
0.212372
0.218237
0.222282
0.225012
0.226715
0.227489
0.227599
0.0780687
0.0780125
0.0792452
0.0821313
0.0868518
0.093884
0.103768
0.116983
0.133818
0.154199
0.176402
0.195644
0.209704
0.219803
0.226942
0.231908
0.235287
0.237399
0.238353
0.238484
0.0481724
0.0481842
0.0501725
0.054543
0.0615421
0.0716802
0.0854334
0.103121
0.124816
0.15021
0.177159
0.200169
0.216928
0.229035
0.237694
0.243804
0.248017
0.250665
0.251849
0.252004
0.00659884
0.00684646
0.0105306
0.018026
0.0292282
0.0445208
0.0640118
0.08772
0.115459
0.146715
0.17896
0.20607
0.225768
0.240117
0.250555
0.258089
0.263411
0.266803
0.268281
0.268454
-0.0544707
-0.0528306
-0.0440623
-0.0299081
-0.0108886
0.0125771
0.0400799
0.0714309
0.106306
0.144097
0.181995
0.21338
0.236153
0.252898
0.26532
0.274565
0.281311
0.285708
0.287649
0.287877
-0.127869
-0.124887
-0.108327
-0.0834913
-0.0539548
-0.0210163
0.0152351
0.0547711
0.09733
0.142395
0.186965
0.22382
0.250858
0.27116
0.28666
0.298631
0.307905
0.313861
0.316055
0.316711
-0.203049
-0.1944
-0.169946
-0.134993
-0.0958166
-0.0537014
-0.00879295
0.0388752
0.0891061
0.141462
0.192764
0.235141
0.266428
0.29022
0.308755
0.323408
0.334923
0.342578
0.346343
0.347556
-0.261085
-0.251216
-0.221874
-0.18026
-0.133678
-0.0839011
-0.0313313
0.0238114
0.0812325
0.140434
0.197936
0.245161
0.279936
0.306363
0.32693
0.343176
0.355902
0.364776
0.369482
0.37091
-0.308105
-0.297685
-0.264945
-0.21864
-0.166546
-0.110748
-0.0518817
0.00970677
0.0735262
0.138923
0.201971
0.253341
0.290834
0.319045
0.340778
0.357809
0.371107
0.38064
0.385635
0.387103
-0.346999
-0.336531
-0.30175
-0.251773
-0.195259
-0.134626
-0.07051
-0.0033965
0.0660361
0.136963
0.204966
0.259875
0.29952
0.329013
0.351484
0.368886
0.382325
0.391863
0.396862
0.398429
-0.380736
-0.370299
-0.333983
-0.281102
-0.220964
-0.15625
-0.0876304
-0.0157144
0.0587241
0.134652
0.207178
0.265354
0.306947
0.337518
0.360496
0.37805
0.391469
0.400996
0.405994
0.407499
-0.410839
-0.400465
-0.363005
-0.307764
-0.244599
-0.176378
-0.103807
-0.0275845
0.0514114
0.132002
0.208843
0.270111
0.313494
0.345028
0.368451
0.386163
0.399579
0.409077
0.414099
0.415474
-0.438514
-0.428156
-0.389793
-0.332521
-0.266777
-0.195492
-0.119427
-0.0393321
0.0438496
0.128824
0.209771
0.274094
0.319349
0.351949
0.375923
0.393858
0.407333
0.416811
0.42183
0.423074
-0.46452
-0.454161
-0.414979
-0.355954
-0.287941
-0.21398
-0.13482
-0.0512286
0.0358009
0.124902
0.209964
0.277513
0.324821
0.358633
0.383268
0.401521
0.415107
0.424568
0.429573
0.430716
-0.489312
-0.478914
-0.438992
-0.378441
-0.308442
-0.232084
-0.150159
-0.0634132
0.0271783
0.120277
0.209463
0.280384
0.329964
0.365208
0.390679
0.409381
0.423167
0.432659
0.437628
0.438721
-0.513242
-0.50276
-0.462097
-0.400266
-0.328451
-0.24995
-0.165556
-0.0759431
0.0179671
0.114854
0.208119
0.282624
0.334767
0.371728
0.398253
0.41756
0.431658
0.441235
0.446108
0.44718
-0.536508
-0.52586
-0.484542
-0.421558
-0.348079
-0.267703
-0.18109
-0.0888796
0.00804985
0.108507
0.205848
0.284143
0.339161
0.378149
0.405992
0.426091
0.440619
0.450349
0.45513
0.456168
-0.559122
-0.54829
-0.506443
-0.442326
-0.367399
-0.285358
-0.196784
-0.102272
-0.00259837
0.101213
0.202554
0.284811
0.343037
0.384399
0.413865
0.434975
0.450062
0.459986
0.464685
0.465612
-0.581213
-0.570167
-0.52779
-0.4626
-0.386416
-0.302916
-0.212623
-0.116073
-0.0139326
0.0929595
0.198138
0.284462
0.346224
0.390372
0.421807
0.444162
0.459939
0.470089
0.474677
0.475465
-0.602719
-0.591461
-0.548532
-0.482396
-0.405114
-0.320336
-0.228539
-0.130218
-0.0259169
0.0837403
0.192536
0.282929
0.348481
0.395859
0.429699
0.453603
0.470198
0.480579
0.485022
0.485616
-0.62365
-0.612154
-0.568665
-0.501691
-0.423443
-0.337556
-0.244473
-0.144638
-0.0384834
0.0736011
0.185709
0.280061
0.349555
0.400572
0.437377
0.463259
0.480802
0.491284
0.495417
0.495799
-0.643865
-0.632193
-0.588154
-0.520442
-0.441341
-0.354501
-0.260352
-0.159248
-0.0515346
0.0626221
0.177651
0.275734
0.349197
0.404183
0.444603
0.47314
0.49188
0.502197
0.505697
0.505784
-0.663449
-0.651535
-0.606979
-0.538612
-0.458774
-0.371127
-0.276078
-0.173949
-0.0649669
0.0509061
0.168404
0.269862
0.347154
0.406257
0.450938
0.483189
0.503865
0.513641
0.515665
0.51521
-0.682282
-0.670121
-0.625113
-0.55615
-0.475661
-0.387347
-0.291565
-0.188621
-0.0786584
0.0385482
0.158056
0.262408
0.343241
0.406308
0.455658
0.492979
0.517386
0.527101
0.526006
0.523713
-0.70039
-0.688026
-0.642505
-0.573007
-0.491965
-0.403099
-0.306733
-0.203178
-0.0924869
0.025709
0.146735
0.253378