/*--------------------------------*- C++ -*----------------------------------*\
| =========                 |                                                 |
| \\      /  F ield         | OpenFOAM: The Open Source CFD Toolbox           |
|  \\    /   O peration     | Version:  2306                                  |
|   \\  /    A nd           | Website:  www.openfoam.com                      |
|    \\/     M anipulation  |                                                 |
\*---------------------------------------------------------------------------*/
FoamFile
{
    version     2.0;
    format      ascii;
    arch        "LSB;label=32;scalar=64";
    class       surfaceScalarField;
    location    "17";
    object      phi;
}
// * * * * * * * * * * * * * * * * * * * * * * * * * * * * * * * * * * * * * //

dimensions      [0 3 -1 0 0 0 0];

oriented        oriented;

internalField   nonuniform List<scalar> 
17370
(
-0.0910932
0.0935362
0.286568
-0.0749403
0.0569349
0.364781
-0.0409135
0.0299275
0.427154
-0.0211721
0.0155725
0.504851
-0.0113224
0.00861845
0.602106
-0.00647322
0.00500882
0.720522
-0.00378641
0.00292498
0.863768
-0.00217836
0.00162527
1.036
-0.00111813
0.00071811
1.2429
-0.000324933
-5.52676e-05
1.49157
0.000428751
-0.000821529
1.49158
0.00121847
-0.0017197
1.24319
0.00226582
-0.00300376
1.03638
0.00385806
-0.00507344
0.864122
0.00653117
-0.00867026
0.721197
0.0113687
-0.0156132
0.603459
0.0212081
-0.0299586
0.50819
0.04094
-0.0569566
0.432185
0.0749573
-0.0935464
0.365365
0.0911017
0.197909
-0.127364
0.0881805
0.0391836
-0.364754
0.353826
-0.0725805
0.0835088
-0.446577
0.454382
-0.081629
0.0738238
-0.520982
0.529558
-0.0657074
0.0571315
-0.612838
0.621047
-0.0493505
0.0411413
-0.726972
0.733779
-0.0341741
0.0273676
-0.867513
0.872394
-0.0220433
0.0171622
-1.03855
1.04183
-0.0135052
0.0102271
-1.24469
1.24704
-0.00773202
0.00537744
-1.4928
1.49477
-0.00345009
0.00148339
-1.49263
1.4944
0.000286278
-0.00205382
-1.24408
1.24598
0.00400747
-0.00590822
-1.03759
1.04006
0.00823028
-0.0106937
-0.866173
0.869794
0.0139345
-0.0175557
-0.724483
0.729774
0.0223966
-0.0276881
-0.60888
0.615823
0.0344695
-0.0414121
-0.515006
0.522759
0.0495901
-0.0573437
-0.439789
0.447884
0.0658918
-0.0739863
-0.375186
0.377036
0.0817659
-0.0836156
-0.256964
0.223523
0.0726524
-0.0392112
-0.0687133
0.0590171
0.00969624
-0.0518884
0.058543
-0.374592
0.367937
-0.0576301
0.0537986
-0.453841
0.457672
-0.0484648
0.0441532
-0.527758
0.532069
-0.0399501
0.0361726
-0.621112
0.62489
-0.0319562
0.0278946
-0.734858
0.73892
-0.0234341
0.0194459
-0.873982
0.87797
-0.0153333
0.0118583
-1.04329
1.04677
-0.00837982
0.00543454
-1.24854
1.25149
-0.00235379
-0.000517425
-1.49677
1.49964
0.00337615
-0.00642849
-1.49729
1.50035
0.00933618
-0.0127611
-1.25
1.25343
0.0161806
-0.0202287
-1.04568
1.04972
0.0241561
-0.0285482
-0.87734
0.881733
0.0325486
-0.0367051
-0.739386
0.743543
0.0404339
-0.0445863
-0.626425
0.630577
0.0488538
-0.0541441
-0.535008
0.540299
0.0579306
-0.0587894
-0.458008
0.458867
0.0520734
-0.0318502
-0.336576
0.316353
0.00972676
-0.0686285
0.0589018
-0.0532956
0.0493024
0.00399315
-0.0327806
0.0431254
-0.35855
0.348205
-0.0467335
0.0460741
-0.459557
0.460216
-0.0430271
0.0397028
-0.53601
0.539334
-0.0359571
0.0326347
-0.628425
0.631748
-0.0291219
0.0260412
-0.742202
0.745283
-0.0227833
0.0197629
-0.881439
0.884459
-0.0163714
0.0131886
-1.05016
1.05335
-0.00966133
0.00639482
-1.25468
1.25794
-0.00272887
-0.000797154
-1.50293
1.50646
0.00430184
-0.00790723
-1.50377
1.50737
0.0111027
-0.0145386
-1.25695
1.26038
0.0176351
-0.02093
-1.05342
1.05671
0.0238616
-0.027022
-0.88532
0.888481
0.0300139
-0.0334322
-0.747072
0.75049
0.0366747
-0.0403444
-0.634627
0.638297
0.0436083
-0.0465889
-0.544586
0.547567
0.04718
-0.0434776
-0.457146
0.453444
0.0330232
-0.0159643
-0.297194
0.280135
0.00402974
-0.0531469
0.0491172
-0.0462497
0.0438083
0.00244138
-0.022286
0.0323881
-0.33775
0.327648
-0.0380088
0.0389587
-0.459977
0.459027
-0.0377577
0.0355126
-0.542025
0.54427
-0.0329122
0.0303807
-0.634708
0.63724
-0.0274255
0.0246422
-0.74824
0.751023
-0.0215176
0.0186527
-0.887355
0.89022
-0.0154826
0.0125393
-1.05637
1.05931
-0.00921435
0.0060547
-1.26118
1.26434
-0.00243114
-0.00107053
-1.51001
1.51351
0.00455245
-0.00810818
-1.511
1.51455
0.0111745
-0.01438
-1.26371
1.26691
0.0172042
-0.0202372
-1.05981
1.06284
0.0229782
-0.0259711
-0.891564
0.894557
0.028641
-0.0314868
-0.75367
0.756516
0.0339221
-0.0364186
-0.641374
0.64387
0.038576
-0.039669
-0.549489
0.550582
0.0386123
-0.032845
-0.448462
0.442694
0.022588
-0.00985159
-0.265324
0.252588
0.00248589
-0.0460236
0.0435377
-0.0418137
0.0401623
0.00165144
-0.0157401
0.0244734
-0.318169
0.309436
-0.0306806
0.0326622
-0.457502
0.45552
-0.0322543
0.0306908
-0.546127
0.54769
-0.0286655
0.0267082
-0.639409
0.641366
-0.0244358
0.0222194
-0.753532
0.755748
-0.0196011
0.0170645
-0.892969
0.895506
-0.0141539
0.0114151
-1.06219
1.06493
-0.00830356
0.00534498
-1.26741
1.27037
-0.00192321
-0.00142576
-1.51695
1.5203
0.0047408
-0.00807022
-1.51801
1.52134
0.0109065
-0.0138543
-1.27002
1.27296
0.0164308
-0.0191584
-1.06577
1.0685
0.0215263
-0.0239655
-0.897317
0.899756
0.0260349
-0.0281561
-0.758954
0.761076
0.0299787
-0.0318705
-0.645979
0.647871
0.0333197
-0.0335906
-0.551166
0.551437
0.0314558
-0.025043
-0.436492
0.430079
0.0161082
-0.00675482
-0.241677
0.232324
0.00170566
-0.0414941
0.0397885
-0.0387887
0.0376465
0.00114219
-0.011131
0.018188
-0.30152
0.294463
-0.0241932
0.0267548
-0.453197
0.450635
-0.0268671
0.0257688
-0.549031
0.550129
-0.0239484
0.0222339
-0.643189
0.644904
-0.0203468
0.0185698
-0.757739
0.759516
-0.0165475
0.0145716
-0.897762
0.899738
-0.0122377
0.00991115
-1.06747
1.0698
-0.00715588
0.00444832
-1.2732
1.2759
-0.00127266
-0.00184365
-1.52353
1.52665
0.00491735
-0.00797086
-1.52453
1.52758
0.0105165
-0.0130677
-1.27573
1.27828
0.015196
-0.0173059
-1.07093
1.07304
0.0190804
-0.0208876
-0.901861
0.903668
0.0224553
-0.0241306
-0.762962
0.764637
0.0256664
-0.0273123
-0.649642
0.651288
0.028236
-0.0279241
-0.551419
0.551107
0.0251464
-0.0188721
-0.423649
0.417375
0.0115697
-0.0047589
-0.22432
0.21751
0.00120752
-0.0383558
0.0371482
-0.036699
0.0359333
0.000765709
-0.00744301
0.0127513
-0.288277
0.282969
-0.0180563
0.0208911
-0.447914
0.445079
-0.0216208
0.0211601
-0.550926
0.551387
-0.019861
0.0185821
-0.646438
0.647717
-0.017122
0.0156917
-0.761104
0.762534
-0.0139777
0.0122766
-0.901527
0.903228
-0.0102279
0.00818689
-1.07195
1.07399
-0.00575194
0.00333311
-1.27848
1.2809
-0.000465943
-0.00233139
-1.52963
1.53243
0.00508141
-0.00780034
-1.53049
1.53321
0.0100276
-0.0122061
-1.28063
1.2828
0.0139807
-0.0157289
-1.07491
1.07666
0.0171554
-0.0185662
-0.905232
0.906643
0.019736
-0.0209342
-0.766084
0.767282
0.0219967
-0.0230674
-0.652723
0.653794
0.0233037
-0.0223161
-0.550487
0.5495
0.0192039
-0.0135656
-0.411377
0.405739
0.00796498
-0.00323894
-0.211775
0.207049
0.000845554
-0.0361281
0.0352825
-0.0353558
0.0349653
0.000390491
-0.00412809
0.00765814
-0.278552
0.275021
-0.0118906
0.0147307
-0.442186
0.439345
-0.0161134
0.0162998
-0.551506
0.55132
-0.0157636
0.01497
-0.648729
0.649523
-0.013896
0.012778
-0.763813
0.764931
-0.0113889
0.00993542
-0.904843
0.906296
-0.00814935
0.00633832
-1.07594
1.07775
-0.00415973
0.00201857
-1.28318
1.28532
0.000509237
-0.00298647
-1.53505
1.53753
0.00540123
-0.00773966
-1.53574
1.53807
0.0096258
-0.0114582
-1.28483
1.28666
0.0129278
-0.0143238
-1.07828
1.07968
0.0154109
-0.0164322
-0.907904
0.908925
0.0172238
-0.0179259
-0.768219
0.768921
0.0184218
-0.0186552
-0.654413
0.654647
0.0181787
-0.0164447
-0.548099
0.546365
0.0132528
-0.00862322
-0.400549
0.395919
0.00475249
-0.00186233
-0.203282
0.200392
0.000487461
-0.0346168
0.0341294
-0.0347444
0.0346543
9.00537e-05
-0.00174504
0.00377446
-0.272316
0.270287
-0.00666564
0.00895968
-0.436718
0.434424
-0.0103874
0.0107959
-0.550947
0.550539
-0.0105892
0.0100822
-0.650169
0.650676
-0.00939523
0.00863888
-0.765864
0.76662
-0.00765719
0.00663427
-0.907525
0.908548
-0.0053473
0.00399747
-1.07934
1.08069
-0.00230994
0.000550239
-1.28728
1.28904
0.00160319
-0.00375303
-1.53986
1.54201
0.00581139
-0.00770619
-1.54019
1.54209
0.00912702
-0.0103876
-1.28822
1.28948
0.0113039
-0.0120872
-1.08075
1.08154
0.0126395
-0.0130718
-0.909641
0.910073
0.0134171
-0.0137345
-0.76945
0.769768
0.0138933
-0.0137012
-0.654614
0.654422
0.0129301
-0.0110787
-0.544482
0.542631
0.00836085
-0.00498695
-0.391931
0.388557
0.00253493
-0.000908344
-0.198234
0.196608
0.000212809
-0.0337999
0.0335871
-0.0346423
0.0346652
-2.29347e-05
-0.000770919
0.0020339
-0.268734
0.267471
-0.00403962
0.00577402
-0.432465
0.430731
-0.00693959
0.00731766
-0.55015
0.549772
-0.00731486
0.00703084
-0.651039
0.651323
-0.00651846
0.00593461
-0.76726
0.767844
-0.00517757
0.00435145
-0.909438
0.910264
-0.00326602
0.00210568
-1.08189
1.08305
-0.000620532
-0.000929156
-1.29064
1.29219
0.00282157
-0.00467422
-1.54398
1.54583
0.00642824
-0.00803108
-1.5438
1.5454
0.00919972
-0.0101712
-1.29054
1.29151
0.0108276
-0.0113578
-1.08214
1.08267
0.0117018
-0.0119568
-0.910395
0.910649
0.0119853
-0.0118421
-0.769806
0.769662
0.0115901
-0.0111004
-0.654084
0.653594
0.0102218
-0.00847126
-0.540861
0.53911
0.00617612
-0.00355273
-0.385652
0.383028
0.00175607
-0.000606
-0.1953
0.19415
0.000129425
-0.0334381
0.0333087
-0.034702
0.0347491
-4.71136e-05
-0.000426869
0.00140111
-0.266378
0.265403
-0.00312148
0.0047974
-0.42908
0.427404
-0.00613171
0.00670621
-0.549333
0.548758
-0.00674387
0.00649876
-0.651613
0.651858
-0.0060707
0.00553704
-0.768401
0.768934
-0.00476799
0.00387506
-0.911088
0.911981
-0.00266666
0.00134013
-1.08424
1.08557
0.000338241
-0.00202617
-1.29376
1.29545
0.00400809
-0.00590368
-1.54765
1.54955
0.00767909
-0.00928385
-1.54697
1.54857
0.0104554
-0.0114525
-1.29247
1.29347
0.0120949
-0.0124974
-1.08312
1.08353
0.0126205
-0.0125846
-0.910771
0.910735
0.0124898
-0.0122789
-0.769465
0.769254
0.0119721
-0.0112628
-0.652998
0.652289
0.0100994
-0.00807303
-0.537287
0.535261
0.0057262
-0.00326012
-0.380535
0.378069
0.00163761
-0.000596035
-0.193073
0.192031
0.000139933
-0.033179
0.033039
-0.0348016
0.0348659
-6.43379e-05
-0.000106059
0.000827483
-0.264539
0.263818
-0.0023896
0.00424252
-0.425639
0.423786
-0.00615634
0.00735861
-0.547947
0.546744
-0.00798743
0.00808435
-0.651963
0.651866
-0.00775462
0.00712512
-0.769515
0.770145
-0.00615996
0.00495394
-0.91302
0.914226
-0.00331725
0.00156589
-1.08708
1.08883
0.000583459
-0.00271418
-1.29732
1.29945
0.00518046
-0.0075138
-1.55162
1.55395
0.00968866
-0.0116694
-1.55033
1.55231
0.013148
-0.0144259
-1.29458
1.29586
0.015305
-0.0159616
-1.08404
1.0847
0.0162888
-0.0163487
-0.910694
0.910754
0.016041
-0.0154844
-0.768873
0.768317
0.0147171
-0.0131946
-0.651275
0.649753
0.0111942
-0.00837076
-0.53288
0.530057
0.00566267
-0.00316438
-0.37558
0.373082
0.00162415
-0.000635895
-0.191016
0.190028
0.000169442
-0.0328871
0.0327177
-0.0349469
0.0350549
-0.00010803
0.000330726
2.31399e-05
-0.26324
0.262886
-0.00117319
0.00291398
-0.421925
0.420184
-0.00517836
0.00701832
-0.545206
0.543366
-0.00840342
0.00877782
-0.651642
0.651267
-0.00860241
0.00809211
-0.770785
0.771295
-0.00698984
0.00555207
-0.915576
0.917014
-0.00357954
0.0014926
-1.09075
1.09283
0.00106752
-0.00364848
-1.30181
1.30439
0.00667487
-0.00951738
-1.55655
1.55939
0.0121361
-0.0145261
-1.55453
1.55692
0.016251
-0.0177275
-1.29728
1.29876
0.0187654
-0.0195444
-1.08543
1.08621
0.0198756
-0.0197602
-0.910724
0.910609
0.0193511
-0.0184017
-0.767611
0.766662
0.0168015
-0.0142719
-0.647715
0.645185
0.0113947
-0.00798916
-0.526872
0.523466
0.00520079
-0.00290145
-0.370648
0.368349
0.0015441
-0.000648317
-0.189088
0.188192
0.000188725
-0.032542
0.0323533
-0.0351868
0.0353513
-0.000164524
0.000879665
-0.000963003
-0.26276
0.262844
0.000451437
0.000728183
-0.418681
0.417501
-0.00263388
0.0044611
-0.541481
0.539654
-0.00608519
0.00699843
-0.650607
0.649694
-0.00708404
0.00649975
-0.771883
0.772467
-0.0052902
0.00376654
-0.918518
0.920041
-0.00169964
-0.000479229
-1.09495
1.09713
0.00316174
-0.00587541
-1.30704
1.30976
0.00904295
-0.0119874
-1.56233
1.56528
0.0146499
-0.0169822
-1.55939
1.56172
0.018656
-0.020055
-1.30021
1.30161
0.0208947
-0.0213066
-1.08687
1.08728
0.021288
-0.020995
-0.910343
0.91005
0.0202099
-0.0185472
-0.765344
0.763682
0.0163261
-0.013329
-0.642361
0.639364
0.010255
-0.00699623
-0.52008
0.516821
0.00456539
-0.00265614
-0.366249
0.364339
0.00150165
-0.000672071
-0.18735
0.186521
0.000205964
-0.0321687
0.0319628
-0.0355546
0.035786
-0.000231451
0.00139781
-0.00192745
-0.263107
0.263637
0.00210704
-0.00172359
-0.416756
0.416373
0.00066312
0.000530123
-0.53823
0.537037
-0.0016627
0.00228852
-0.648956
0.64833
-0.00234777
0.00183438
-0.77299
0.773504
-0.00074381
-0.00066968
-0.921406
0.92282
0.00259604
-0.00464454
-1.09918
1.10122
0.00716488
-0.00965903
-1.31233
1.31482
0.0125047
-0.015072
-1.56804
1.57061
0.0172871
-0.0190729
-1.56386
1.56564
0.0202033
-0.0210827
-1.3028
1.30368
0.0214211
-0.0213838
-1.08741
1.08737
0.0210211
-0.0200727
-0.909398
0.908449
0.0186913
-0.01669
-0.761763
0.759762
0.0144046
-0.0115722
-0.63644
0.633608
0.00889798
-0.0062184
-0.513898
0.511218
0.00426324
-0.00267255
-0.362644
0.361053
0.00161196
-0.000756038
-0.185716
0.18486
0.00023782
-0.0317647
0.0315269
-0.0360715
0.0363762
-0.000304681
0.00191136
-0.00279821
-0.264355
0.265242
0.00355395
-0.00387054
-0.416451
0.416768
0.00373454
-0.00336654
-0.536456
0.536088
0.00300088
-0.00292607
-0.648065
0.64799
0.00324268
-0.00392395
-0.773993
0.774674
0.00508769
-0.00648193
-0.924046
0.92544
0.00832592
-0.0102397
-1.10307
1.10499
0.0125184
-0.0146609
-1.31706
1.3192
0.016978
-0.0189494
-1.57284
1.57481
0.0205
-0.021542
-1.56711
1.56815
0.0219841
-0.0220179
-1.30419
1.30423
0.0217711
-0.021088
-1.08688
1.0862
0.0200819
-0.0186396
-0.907095
0.905653
0.0170495
-0.0150268
-0.757696
0.755673
0.012946
-0.0105257
-0.631041
0.62862
0.00834648
-0.00617716
-0.508934
0.506765
0.00451507
-0.00301625
-0.35962
0.358121
0.00189337
-0.000907758
-0.183996
0.183011
0.000287619
-0.0312993
0.0310117
-0.0367556
0.0371472
-0.000391665
0.00247822
-0.00370206
-0.26636
0.267584
0.00493905
-0.00581881
-0.417449
0.418329
0.00643227
-0.00684699
-0.536332
0.536746
0.00732117
-0.00787314
-0.64832
0.648872
0.00871083
-0.00975483
-0.775442
0.776486
0.0112179
-0.0127852
-0.926695
0.928263
0.0147015
-0.0165752
-1.10668
1.10856
0.0186828
-0.0205335
-1.32107
1.32292
0.0223727
-0.0237538
-1.57642
1.5778
0.0246146
-0.0248798
-1.56883
1.5691
0.0246113
-0.0239141
-1.30392
1.30322
0.0229871
-0.0216654
-1.085
1.08368
0.0202333
-0.0184795
-0.903922
0.902168
0.0167489
-0.0147406
-0.753573
0.751565
0.012826
-0.0106975
-0.626424
0.624295
0.00880388
-0.00685573
-0.504905
0.502957
0.00523889
-0.0036215
-0.356739
0.355121
0.00231023
-0.00111365
-0.181997
0.180801
0.000352143
-0.030732
0.0303799
-0.0376286
0.0381377
-0.000509087
0.00319514
-0.00480776
-0.269096
0.270708
0.00652835
-0.00792061
-0.4196
0.420992
0.00915627
-0.0101541
-0.537681
0.538678
0.011255
-0.0124443
-0.64983
0.65102
0.0139592
-0.0155439
-0.777663
0.779248
0.0174879
-0.0193827
-0.92971
0.931605
0.0215347
-0.0235065
-1.11027
1.11224
0.0255905
-0.0272967
-1.32456
1.32627
0.0288155
-0.0297272
-1.57886
1.57977
0.0299928
-0.0295598
-1.56897
1.56854
0.0286343
-0.0272233
-1.30217
1.30076
0.0256728
-0.02382
-1.08201
1.08016
0.0220052
-0.0199499
-0.90013
0.898075
0.0180466
-0.0159608
-0.749402
0.747316
0.0140579
-0.0119857
-0.622273
0.620201
0.0101197
-0.00811471
-0.501231
0.499226
0.00633916
-0.00446458
-0.353576
0.351701
0.00288151
-0.00139271
-0.179561
0.178072
0.000440166
-0.0300332
0.029593
-0.0387442
0.0394221
-0.000677902
0.00419516
-0.00632107
-0.272652
0.274778
0.00863502
-0.010566
-0.422806
0.424737
0.0123876
-0.0139322
-0.54028
0.541825
0.015675
-0.0174589
-0.652585
0.654369
0.0196524
-0.0218311
-0.780896
0.783075
0.0243361
-0.0266571
-0.933429
0.93575
0.0291815
-0.0313981
-1.11412
1.11634
0.0336238
-0.0353257
-1.32781
1.32951
0.03666
-0.0372092
-1.5804
1.58095
0.036963
-0.0359138
-1.56775
1.5667
0.0344075
-0.0323229
-1.29898
1.2969
0.0301964
-0.0277653
-1.07795
1.07552
0.0255124
-0.0230612
-0.895683
0.893232
0.0208742
-0.0185547
-0.744954
0.742635
0.0164882
-0.0142546
-0.6181
0.615867
0.0122071
-0.00992376
-0.49738
0.495097
0.00782968
-0.00554564
-0.349861
0.347577
0.00358413
-0.00173268
-0.176537
0.174686
0.000546999
-0.0291644
0.0286174
-0.0401998
0.0411081
-0.00090825
0.00555981
-0.00836489
-0.277251
0.280056
0.0114178
-0.0139631
-0.427121
0.429667
0.0163995
-0.0185139
-0.544086
0.546201
0.0209322
-0.0233866
-0.656583
0.659037
0.0263328
-0.0291696
-0.785302
0.788139
0.0323492
-0.0352315
-0.938069
0.940952
0.0382884
-0.040882
-1.11852
1.12112
0.043367
-0.0451464
-1.33109
1.33287
0.0463564
-0.0465721
-1.58122
1.58144
0.0458154
-0.0441137
-1.56528
1.56358
0.0419862
-0.0392274
-1.29445
1.29169
0.036509
-0.0334559
-1.07272
1.06967
0.0306756
-0.0277073
-0.890366
0.887398
0.0251059
-0.0223921
-0.739903
0.73719
0.0200031
-0.0174295
-0.613471
0.610898
0.0150401
-0.0123146
-0.492948
0.490223
0.00975827
-0.0069184
-0.345326
0.342486
0.00446782
-0.00215495
-0.172784
0.170471
0.000679214
-0.0280932
0.0274139
-0.042124
0.0433643
-0.00124032
0.00747436
-0.0111816
-0.283223
0.28693
0.0151565
-0.0184285
-0.432793
0.436065
0.0215669
-0.0243315
-0.54923
0.551994
0.0275413
-0.0307858
-0.661966
0.665211
0.0346292
-0.0382706
-0.791041
0.794683
0.0422864
-0.0458624
-0.943853
0.947429
0.0495663
-0.0526136
-1.12368
1.12673
0.0554159
-0.0572966
-1.33453
1.33641
0.0583765
-0.058223
-1.58137
1.58121
0.0568962
-0.0544585
-1.56146
1.55902
0.0516233
-0.0480939
-1.28851
1.28499
0.044683
-0.0408896
-1.06618
1.06239
0.0374687
-0.0338486
-0.883917
0.880297
0.0307014
-0.0274432
-0.73392
0.730662
0.0245926
-0.0215296
-0.608018
0.604955
0.0186654
-0.0153531
-0.487601
0.484288
0.0121647
-0.00862892
-0.339715
0.336179
0.00556664
-0.00268139
-0.168127
0.165241
0.000842632
-0.0267777
0.0259351
-0.0447064
0.0464646
-0.00175818
0.0103353
-0.0153058
-0.291028
0.295998
0.0204925
-0.0246759
-0.440186
0.44437
0.0286768
-0.032251
-0.555967
0.559542
0.0364619
-0.0406888
-0.668999
0.673226
0.0456186
-0.0502088
-0.79839
0.80298
0.055181
-0.0595193
-0.951018
0.955357
0.0639062
-0.0674094
-1.12974
1.13325
0.0704971
-0.0724148
-1.33813
1.34004
0.0732575
-0.0726104
-1.5807
1.58005
0.0705794
-0.067264
-1.55609
1.55278
0.0635914
-0.0591435
-1.28097
1.27652
0.0549026
-0.0502203
-1.05807
1.05339
0.046023
-0.0416006
-0.876053
0.871631
0.0377701
-0.0338189
-0.726689
0.722738
0.0303737
-0.0266787
-0.601421
0.597726
0.0232068
-0.0191607
-0.481013
0.476967
0.0152141
-0.0107537
-0.332765
0.328304
0.00690924
-0.00329907
-0.162364
0.158754
0.00102565
-0.0251642
0.0241385
-0.0482777
0.0508622
-0.00258457
0.0147595
-0.0215201
-0.301365
0.308126
0.0282948
-0.0336153
-0.44989
0.45521
0.0387045
-0.0433477
-0.564778
0.569421
0.0488724
-0.0543324
-0.678075
0.683535
0.0605701
-0.0662473
-0.807642
0.813319
0.0722594
-0.0773792
-0.959694
0.964814
0.0824063
-0.0862674
-1.13665
1.14051
0.0894712
-0.0912295
-1.34169
1.34344
0.0915897
-0.0902133
-1.57891
1.57753
0.0872586
-0.0828613
-1.54886
1.54446
0.0781856
-0.0726496
-1.2715
1.26596
0.0674337
-0.061711
-1.04811
1.04238
0.0565999
-0.0512232
-0.866473
0.861096
0.0465711
-0.0417794
-0.717903
0.713111
0.0376113
-0.0331456
-0.59336
0.588894
0.0289232
-0.0239598
-0.472848
0.467885
0.01905
-0.0134445
-0.324046
0.31844
0.00857345
-0.00405094
-0.155234
0.150711
0.00124298
-0.0232039
0.021961
-0.053432
0.057473
-0.00404098
0.0220101
-0.0313798
-0.315423
0.324793
0.0402522
-0.0470857
-0.462774
0.469607
0.0536172
-0.0597098
-0.576338
0.58243
0.066948
-0.0739038
-0.689638
0.696594
0.0815777
-0.0883341
-0.819008
0.825765
0.0952627
-0.100966
-0.969808
0.975512
0.106346
-0.110255
-1.14409
1.148
0.113199
-0.114439
-1.34473
1.34597
0.113923
-0.111473
-1.57548
1.57303
0.107296
-0.10156
-1.53931
1.53358
0.0956941
-0.0888982
-1.25975
1.25295
0.0825757
-0.0756862
-1.03599
1.0291
0.0695528
-0.0631009
-0.85489
0.848438
0.0575132
-0.0517537
-0.707263
0.701503
0.046751
-0.041385
-0.583492
0.578126
0.036245
-0.0301349
-0.462674
0.456564
0.0239966
-0.0169271
-0.313101
0.306032
0.010747
-0.00502558
-0.146382
0.14066
0.00151642
-0.0208354
0.019319
-0.0612747
0.0684991
-0.00722448
0.0355805
-0.0491261
-0.335523
0.349069
0.0609827
-0.0695886
-0.48004
0.488646
0.0777706
-0.0855523
-0.591395
0.599177
0.0946152
-0.102902
-0.703953
0.71224
0.111627
-0.118988
-0.832294
0.839655
0.126241
-0.131939
-0.980803
0.986501
0.137011
-0.140361
-1.15131
1.15466
0.142427
-0.142596
-1.34644
1.34661
0.140672
-0.136697
-1.56964
1.56566
0.130937
-0.123588
-1.52692
1.51957
0.116338
-0.108136
-1.24538
1.23718
0.100603
-0.0924669
-1.02147
1.01333
0.0852532
-0.0776792
-0.841096
0.833522
0.071113
-0.0643248
-0.694531
0.687743
0.0584096
-0.0520442
-0.571491
0.565126
0.0458596
-0.0382793
-0.449919
0.442339
0.0305543
-0.0215969
-0.299182
0.290225
0.0136712
-0.00631999
-0.135349
0.127998
0.00182444
-0.0179869
0.0161624
-0.0754489
0.0789175
-0.00346858
0.0251261
-0.0368127
-0.365594
0.377281
0.0472882
-0.0554889
-0.502458
0.510658
0.0643942
-0.0739776
-0.609653
0.619236
0.0846691
-0.0942387
-0.720161
0.729731
0.10488
-0.114276
-0.846241
0.855638
0.124028
-0.132383
-0.991267
0.999622
0.140682
-0.147311
-1.15691
1.16354
0.153188
-0.156985
-1.34559
1.34939
0.158918
-0.158125
-1.56045
1.55966
0.154486
-0.148409
-1.51111
1.50504
0.14132
-0.13236
-1.22811
1.21915
0.123635
-0.11321
-1.00442
0.994
0.1037
-0.0933082
-0.82504
0.814648
0.0840798
-0.0743361
-0.679677
0.669933
0.0654709
-0.0561371
-0.557116
0.547782
0.0474273
-0.0366055
-0.433944
0.423122
0.0265343
-0.0163794
-0.281196
0.271041
0.00877555
-0.00318063
-0.121303
0.115708
0.000584171
-0.0146428
0.0140586
-0.0862317
0.083223
0.00300873
0.00256187
-0.00939822
-0.391762
0.398599
0.0174577
-0.0240649
-0.523659
0.530266
0.0325553
-0.0410114
-0.629422
0.637878
0.0507076
-0.0595339
-0.739173
0.748
0.0689255
-0.077429
-0.864574
0.873077
0.0862649
-0.093554
-1.00771
1.015
0.101003
-0.10663
-1.17002
1.17564
0.111573
-0.114482
-1.35291
1.35582
0.115325
-0.113735
-1.55807
1.55648
0.109432
-0.102834
-1.49817
1.49158
0.0952257
-0.0859064
-1.2097
1.20038
0.0769638
-0.0667727
-0.98325
0.973059
0.0572638
-0.046769
-0.80329
0.792796
0.0374437
-0.0279637
-0.657938
0.648458
0.0199253
-0.011724
-0.535499
0.527297
0.00477277
0.00155793
-0.411403
0.405072
-0.00514673
0.00656073
-0.259672
0.258258
-0.00596675
0.00377772
-0.108975
0.111164
-0.0015528
-0.0126132
0.014166
-0.0858849
0.0825645
0.00332042
-0.00554103
0.00239829
-0.408597
0.41174
0.00270553
-0.00810247
-0.540845
0.546242
0.0151599
-0.0223986
-0.646706
0.653945
0.0306428
-0.0382126
-0.756296
0.763865
0.0464982
-0.0538648
-0.880934
0.8883
0.0613195
-0.0678395
-1.02216
1.02868
0.074335
-0.0793636
-1.18093
1.18596
0.0834026
-0.0855979
-1.35818
1.36038
0.0861347
-0.0842925
-1.55433
1.55249
0.0799837
-0.0736572
-1.48459
1.47826
0.0665801
-0.058214
-1.1912
1.18283
0.0499314
-0.0408308
-0.962823
0.953723
0.0324144
-0.02322
-0.78264
0.773446
0.015296
-0.0071997
-0.638066
0.62997
0.000547537
0.00602972
-0.516898
0.510321
-0.0108571
0.0143277
-0.396494
0.393023
-0.014994
0.0127277
-0.253009
0.255275
-0.00929242
0.0050763
-0.111097
0.115313
-0.00180477
-0.0143611
0.0161658
-0.0837494
0.0805626
0.00318679
-0.00825199
0.00719812
-0.419076
0.42013
-0.00405288
-1.38362e-05
-0.554445
0.558512
0.00617709
-0.0122659
-0.661044
0.667133
0.0193247
-0.0258147
-0.771155
0.777645
0.0328768
-0.0391929
-0.895245
0.901562
0.0459832
-0.0515743
-1.03484
1.04043
0.0573675
-0.0614651
-1.1907
1.1948
0.0650873
-0.0670654
-1.36253
1.36451
0.0674124
-0.0654608
-1.55046
1.54851
0.0616893
-0.0562089
-1.47173
1.46624
0.0500805
-0.0426064
-1.17465
1.16718
0.03562
-0.0280502
-0.944831
0.937261
0.020995
-0.0136565
-0.764755
0.757416
0.00703588
-0.000521841
-0.621311
0.614797
-0.00473937
0.00941557
-0.502199
0.497522
-0.0124528
0.0143247
-0.386778
0.384906
-0.014062
0.0110574
-0.252575
0.25558
-0.00782898
0.00412631
-0.116451
0.120154
-0.0014381
-0.0166142
0.0180523
-0.0815912
0.0789466
0.00264455
-0.00853932
0.00875059
-0.425847
0.425636
-0.00629697
0.00304318
-0.565493
0.568747
0.00187233
-0.00727439
-0.673204
0.678606
0.0131993
-0.0189127
-0.783729
0.789443
0.0250424
-0.0305558
-0.907554
0.913067
0.0364404
-0.0415058
-1.04596
1.05102
0.0465443
-0.0504872
-1.19887
1.20281
0.0538037
-0.055653
-1.36631
1.36816
0.0560671
-0.0544135
-1.54666
1.545
0.0511799
-0.0463082
-1.46045
1.45558
0.0410687
-0.0348453
-1.16008
1.15386
0.0289743
-0.0225346
-0.929867
0.923427
0.0167916
-0.010772
-0.750271
0.744251
0.00560079
-0.00048844
-0.608143
0.603031
-0.00344916
0.0067778
-0.491303
0.487974
-0.00889841
0.00994706
-0.380476
0.379427
-0.0092913
0.00706404
-0.25338
0.255607
-0.00484816
0.00246133
-0.120468
0.122855
-0.000902419
-0.0181564
0.0190589
-0.0798534
0.0776484
0.00220499
-0.00789026
0.00832211
-0.430286
0.429854
-0.00691502
0.00414691
-0.574187
0.576956
0.000423002
-0.00506274
-0.683574
0.688214
0.0102267
-0.0152387
-0.794626
0.799638
0.0207354
-0.0257197
-0.918363
0.923347
0.0311843
-0.0357162
-1.0559
1.06043
0.0403806
-0.0440828
-1.20656
1.21027
0.0472122
-0.049029
-1.3699
1.37171
0.0495552
-0.048546
-1.54349
1.54248
0.045747
-0.0416608
-1.45057
1.44648
0.0370939
-0.0316907
-1.14776
1.14236
0.0268442
-0.0212436
-0.917204
0.911603
0.0163547
-0.0114263
-0.738465
0.733537
0.00715527
-0.00293903
-0.597917
0.593701
-0.000348598
0.0032649
-0.483207
0.480291
-0.00482298
0.00568654
-0.375809
0.374946
-0.00557986
0.0042395
-0.253129
0.25447
-0.00286771
0.00152914
-0.122136
0.123475
-0.000612759
-0.0187623
0.0193751
-0.0786096
0.0769112
0.00169843
-0.00665397
0.0072312
-0.433501
0.432923
-0.00597799
0.00380055
-0.581904
0.584082
0.000344949
-0.00453885
-0.692657
0.696851
0.00947068
-0.013839
-0.804463
0.808832
0.0187281
-0.0232164
-0.928412
0.932901
0.0284811
-0.0326942
-1.06507
1.06929
0.036968
-0.040602
-1.21387
1.21751
0.0440398
-0.0459022
-1.37364
1.37551
0.0467516
-0.0460022
-1.54127
1.54052
0.0439375
-0.0401712
-1.44239
1.43862
0.0363011
-0.0316611
-1.137
1.13236
0.0272713
-0.0224893
-0.906231
0.901449
0.0181261
-0.0135915
-0.728495
0.723961
0.0100266
-0.00619614
-0.589251
0.585421
0.00312419
-0.000557595
-0.476261
0.473694
-0.00112473
0.00226352
-0.371719
0.37058
-0.00251253
0.00206616
-0.251876
0.252322
-0.0014881
0.000868223
-0.122019
0.122639
-0.000414022
-0.0188335
0.0192475
-0.077944
0.0766098
0.00133418
-0.00538482
0.0060228
-0.436046
0.435408
-0.00482375
0.00263472
-0.588637
0.590826
0.00121955
-0.00497863
-0.70089
0.704649
0.00924221
-0.0134869
-0.813306
0.817551
0.0180617
-0.0227272
-0.937302
0.941968
0.0273491
-0.0314494
-1.07367
1.07777
0.0359327
-0.0394288
-1.22111
1.22461
0.0425352
-0.0449353
-1.37737
1.37977
0.0461371
-0.0458468
-1.53994
1.53965
0.0441112
-0.0410437
-1.43512
1.43205
0.0375836
-0.033345
-1.12748
1.12324
0.0293901
-0.0249633
-0.896583
0.892156
0.0209336
-0.0168569
-0.719479
0.715402
0.0132305
-0.00968065
-0.581314
0.577764
0.00683744
-0.00410948
-0.470082
0.467354
0.00218487
-0.000940904
-0.367289
0.366045
0.000149634
0.000265785
-0.249463
0.249048
-0.000429785
0.000407346
-0.120683
0.120706
-0.000286177
-0.0185478
0.018834
-0.0778278
0.0767071
0.00112069
-0.00401145
0.00442717
-0.438418
0.438003
-0.00341234
0.00116987
-0.594815
0.597058
0.00238904
-0.00602082
-0.708573
0.712205
0.0101381
-0.0140276
-0.821734
0.825623
0.0187489
-0.0226883
-0.94616
0.950099
0.0273193
-0.031294
-1.08209
1.08607
0.0357319
-0.0394892
-1.22817
1.23192
0.0429653
-0.0452482
-1.38202
1.3843
0.0468848
-0.0470738
-1.53936
1.53955
0.0460199
-0.0432671
-1.42889
1.42614
0.0401845
-0.0362416
-1.11905
1.11511
0.032549
-0.0282812
-0.887438
0.88317
0.0244954
-0.0204052
-0.71104
0.706949
0.0168365
-0.0132289
-0.57386
0.570252
0.0102171
-0.0075575
-0.463801
0.461142
0.00535048
-0.0036902
-0.362477
0.360817
0.00239203
-0.00133702
-0.245969
0.244914
0.00055769
4.86256e-05
-0.118354
0.117748
-0.000191584
-0.0179555
0.0181471
-0.0779789
0.0771864
0.000792459
-0.00282763
0.00282052
-0.440986
0.440993
-0.0019635
-0.000324785
-0.600272
0.60256
0.00360829
-0.00712419
-0.715764
0.71928
0.011079
-0.0151034
-0.829493
0.833517
0.0192553
-0.0233706
-0.954304
0.95842
0.0279957
-0.0318029
-1.09051
1.09432
0.0363724
-0.0401354
-1.23555
1.23932
0.0437352
-0.046603
-1.38705
1.38992
0.0487974
-0.0493284
-1.53984
1.54037
0.0485447
-0.0464458
-1.42355
1.42146
0.0437849
-0.0400122
-1.11097
1.1072
0.0363495
-0.0323465
-0.878629
0.874626
0.0282585
-0.024294
-0.702505
0.698541
0.0206708
-0.0168735
-0.566498
0.562701
0.0138517
-0.0108407
-0.457358
0.454347
0.00842832
-0.00617471
-0.357265
0.355012
0.00453878
-0.0029035
-0.24153
0.239894
0.00145578
-0.000334188
-0.11522
0.114098
-9.07778e-05
-0.0171273
0.0172181
-0.0785196
0.0778816
0.000638061
-0.00187038
0.00190793
-0.443787
0.44375
-0.000562158
-0.00169862
-0.605675
0.607936
0.00504263
-0.00839848
-0.722491
0.725847
0.0121986
-0.0158457
-0.837311
0.840958
0.0201292
-0.0239565
-0.962595
0.966422
0.0285494
-0.0327978
-1.09861
1.10286
0.0370528
-0.0411726
-1.24318
1.2473
0.0452344
-0.0482545
-1.39276
1.39578
0.0508888
-0.0522406
-1.54118
1.54253
0.0519229
-0.0504064
-1.41924
1.41773
0.0478658
-0.0443689
-1.10339
1.09989
0.040876
-0.0367462
-0.870022
0.865892
0.0327531
-0.0286178
-0.693946
0.689811
0.0248796
-0.0208453
-0.558615
0.554581
0.0175083
-0.0142883
-0.450545
0.447325
0.0113999
-0.00872555
-0.351192
0.348518
0.00656902
-0.00436811
-0.236109
0.233908
0.00245837
-0.000830239
-0.111355
0.109727
7.55079e-05
-0.016139
0.0160635
-0.0793033
0.078824
0.000479331
-0.000867966
0.000693903
-0.446717
0.446891
0.000597216
-0.00306075
-0.61079
0.613253
0.0062613
-0.00944794
-0.728951
0.732137
0.0133199
-0.0168232
-0.844648
0.848151
0.0209624
-0.0249122
-0.970755
0.974705
0.0294217
-0.033649
-1.10701
1.11124
0.0381381
-0.0423113
-1.2514
1.25557
0.0465929
-0.0503838
-1.39914
1.40293
0.0535131
-0.0552214
-1.54389
1.54559
0.055627
-0.0544443
-1.41611
1.41493
0.0524163
-0.0493378
-1.09628
1.0932
0.0457525
-0.0416031
-0.861342