/*--------------------------------*- C++ -*----------------------------------*\
| =========                 |                                                 |
| \\      /  F ield         | OpenFOAM: The Open Source CFD Toolbox           |
|  \\    /   O peration     | Version:  2306                                  |
|   \\  /    A nd           | Website:  www.openfoam.com                      |
|    \\/     M anipulation  |                                                 |
\*---------------------------------------------------------------------------*/
FoamFile
{
    version     2.0;
    format      ascii;
    arch        "LSB;label=32;scalar=64";
    class       volVectorField;
    location    "17";
    object      U;
}
// * * * * * * * * * * * * * * * * * * * * * * * * * * * * * * * * * * * * * //

dimensions      [0 1 -1 0 0 0 0];

internalField   nonuniform List<vector> 
8800
(
(0.984953 -0.0884449 0)
(1.00211 -0.0568101 0)
(0.999666 -0.0305375 0)
(1.00002 -0.0158428 0)
(1.00007 -0.00870182 0)
(1.00003 -0.0050446 0)
(1 -0.00295082 0)
(0.999981 -0.00167578 0)
(0.999977 -0.000808795 0)
(1.00005 -0.000140392 0)
(0.999977 0.000545593 0)
(0.999977 0.00129435 0)
(0.999988 0.00231873 0)
(1.00002 0.00392493 0)
(1.00006 0.00665968 0)
(1.00006 0.0116971 0)
(0.999909 0.0220174 0)
(0.999185 0.0411458 0)
(1.00743 0.0768881 0)
(0.77365 0.0450677 0)
(0.361093 -0.0151618 0)
(1.04564 -0.0741505 0)
(1.08716 -0.0678219 0)
(1.04785 -0.052218 0)
(1.02459 -0.038263 0)
(1.01227 -0.0259147 0)
(1.00635 -0.0166037 0)
(1.00349 -0.0102024 0)
(1.00209 -0.00565944 0)
(1.00147 -0.00212583 0)
(1.00136 0.00100054 0)
(1.00169 0.00429026 0)
(1.00263 0.00816837 0)
(1.00464 0.0134549 0)
(1.00874 0.0211336 0)
(1.01737 0.0320169 0)
(1.03462 0.0454513 0)
(1.06566 0.0596227 0)
(1.09416 0.072864 0)
(0.842443 0.0556629 0)
(0.21734 -0.00163455 0)
(1.07606 -0.0501756 0)
(1.0999 -0.0485015 0)
(1.06467 -0.0399836 0)
(1.03994 -0.032852 0)
(1.02371 -0.0255811 0)
(1.01391 -0.018206 0)
(1.00846 -0.0115055 0)
(1.00563 -0.00583543 0)
(1.00448 -0.000762573 0)
(1.00482 0.00414858 0)
(1.00666 0.00935864 0)
(1.01059 0.0154331 0)
(1.01792 0.0224341 0)
(1.03063 0.0297304 0)
(1.05083 0.0367578 0)
(1.08061 0.0440954 0)
(1.10654 0.0513736 0)
(0.943549 0.0411222 0)
(0.216995 0.00164534 0)
(0.176447 -0.00062882 0)
(1.01939 -0.0350226 0)
(1.1058 -0.0408477 0)
(1.07813 -0.0355671 0)
(1.05274 -0.0294912 0)
(1.03538 -0.0238238 0)
(1.02336 -0.0183045 0)
(1.01542 -0.0126175 0)
(1.01076 -0.00681983 0)
(1.00877 -0.000802428 0)
(1.00932 0.0051878 0)
(1.01248 0.0109293 0)
(1.01859 0.0165251 0)
(1.02839 0.0219465 0)
(1.04283 0.0273288 0)
(1.06366 0.0330471 0)
(1.09426 0.0391962 0)
(1.09504 0.0410679 0)
(0.830803 0.0224072 0)
(0.175872 0.00064083 0)
(0.155361 -0.000469639 0)
(0.959079 -0.0249009 0)
(1.10455 -0.0341762 0)
(1.08804 -0.0317635 0)
(1.06116 -0.0272895 0)
(1.04299 -0.0223837 0)
(1.03057 -0.017293 0)
(1.02195 -0.0120525 0)
(1.01641 -0.00653301 0)
(1.01379 -0.000561501 0)
(1.01451 0.00542036 0)
(1.01839 0.0109696 0)
(1.02528 0.0161198 0)
(1.03554 0.0210419 0)
(1.05043 0.025863 0)
(1.07251 0.03039 0)
(1.10162 0.0343007 0)
(1.07109 0.0326883 0)
(0.745369 0.0137754 0)
(0.154504 0.000483245 0)
(0.141557 -0.00033309 0)
(0.904354 -0.0180161 0)
(1.09724 -0.0283037 0)
(1.09567 -0.027412 0)
(1.06848 -0.023978 0)
(1.04963 -0.0201692 0)
(1.03658 -0.015767 0)
(1.02748 -0.0109796 0)
(1.02147 -0.0058539 0)
(1.01849 -0.000200427 0)
(1.01925 0.00550049 0)
(1.02347 0.0106409 0)
(1.03074 0.0152925 0)
(1.0415 0.019607 0)
(1.05705 0.0234598 0)
(1.07979 0.0267582 0)
(1.10408 0.0293954 0)
(1.04123 0.0259204 0)
(0.682397 0.00931297 0)
(0.14036 0.000349502 0)
(0.132036 -0.000239798 0)
(0.858663 -0.0129145 0)
(1.08599 -0.0229179 0)
(1.10092 -0.0230022 0)
(1.07446 -0.0199339 0)
(1.05487 -0.0168254 0)
(1.04115 -0.0134721 0)
(1.03164 -0.00954502 0)
(1.02552 -0.00497001 0)
(1.02259 0.000263289 0)
(1.02317 0.00554095 0)
(1.02725 0.0101504 0)
(1.03465 0.0140437 0)
(1.0459 0.0172868 0)
(1.06212 0.0201162 0)
(1.08558 0.0228839 0)
(1.10389 0.0248383 0)
(1.01027 0.0201577 0)
(0.63621 0.00648178 0)
(0.130429 0.000259848 0)
(0.125486 -0.000173763 0)
(0.823025 -0.00872646 0)
(1.07296 -0.0175989 0)
(1.10418 -0.0187359 0)
(1.07981 -0.0166163 0)
(1.05984 -0.0141791 0)
(1.04619 -0.0113599 0)
(1.03656 -0.00797074 0)
(1.03007 -0.00392662 0)
(1.02676 0.000820825 0)
(1.02736 0.00556794 0)
(1.03167 0.00961265 0)
(1.03921 0.0128551 0)
(1.05031 0.0154405 0)
(1.06655 0.0175754 0)
(1.09046 0.0195265 0)
(1.10147 0.0203137 0)
(0.981495 0.0149196 0)
(0.603175 0.00434301 0)
(0.123377 0.000199103 0)
(0.121535 -8.49568e-05 0)
(0.797616 -0.00494188 0)
(1.05911 -0.0120528 0)
(1.10469 -0.0142497 0)
(1.08309 -0.0133264 0)
(1.06308 -0.0115907 0)
(1.04946 -0.00924078 0)
(1.0401 -0.00626969 0)
(1.0338 -0.00266879 0)
(1.03046 0.00152099 0)
(1.03087 0.0056831 0)
(1.03481 0.00912695 0)
(1.04191 0.0117933 0)
(1.05279 0.0138129 0)
(1.06896 0.0152403 0)
(1.09252 0.0161336 0)
(1.0959 0.015505 0)
(0.956617 0.00982436 0)
(0.581516 0.0024817 0)
(0.118817 0.000116565 0)
(0.120009 2.95753e-07 0)
(0.781994 -0.00221032 0)
(1.04644 -0.00706464 0)
(1.10313 -0.00937331 0)
(1.08515 -0.00898192 0)
(1.06562 -0.00780388 0)
(1.05225 -0.00623669 0)
(1.04287 -0.00407866 0)
(1.03649 -0.0012609 0)
(1.03307 0.00231784 0)
(1.03322 0.00587142 0)
(1.03694 0.00847459 0)
(1.04385 0.0101763 0)
(1.05441 0.0111417 0)
(1.07037 0.0117843 0)
(1.09234 0.0120433 0)
(1.08832 0.0107868 0)
(0.937418 0.0058704 0)
(0.569052 0.00124465 0)
(0.116539 4.01695e-05 0)
(0.119887 2.85254e-05 0)
(0.772973 -0.00107444 0)
(1.03698 -0.00442797 0)
(1.10157 -0.00629659 0)
(1.08644 -0.00628235 0)
(1.06754 -0.00540799 0)
(1.05455 -0.00414954 0)
(1.04563 -0.00236334 0)
(1.03965 0.000112397 0)
(1.03634 0.00324815 0)
(1.03613 0.00627571 0)
(1.03918 0.00842197 0)
(1.04537 0.00962729 0)
(1.05531 0.0102556 0)
(1.07052 0.0103843 0)
(1.09124 0.00986762 0)
(1.08119 0.00837591 0)
(0.923385 0.0042159 0)
(0.561443 0.000855365 0)
(0.115467 1.87775e-05 0)
(0.12014 3.12523e-05 0)
(0.766672 -0.000660406 0)
(1.02903 -0.00354106 0)
(1.09976 -0.00570431 0)
(1.08731 -0.00575978 0)
(1.0689 -0.00508153 0)
(1.05615 -0.00377665 0)
(1.04751 -0.00177934 0)
(1.04167 0.00102847 0)
(1.03823 0.00429792 0)
(1.03769 0.00736415 0)
(1.04026 0.00951268 0)
(1.04588 0.0107035 0)
(1.0554 0.010977 0)
(1.06997 0.0107519 0)
(1.08921 0.0101741 0)
(1.07385 0.00811197 0)
(0.911384 0.00384952 0)
(0.555217 0.00082676 0)
(0.114558 2.74496e-05 0)
(0.12051 2.95341e-05 0)
(0.761713 -0.000264746 0)
(1.02055 -0.00290586 0)
(1.09645 -0.00607393 0)
(1.08768 -0.00706217 0)
(1.07057 -0.00649021 0)
(1.05866 -0.00486298 0)
(1.05061 -0.00214565 0)
(1.04489 0.00143295 0)
(1.04124 0.00549923 0)
(1.04028 0.0092705 0)
(1.0423 0.0119735 0)
(1.04705 0.0136144 0)
(1.05542 0.0142172 0)
(1.06891 0.0137097 0)
(1.08581 0.0122443 0)
(1.0643 0.00865426 0)
(0.899398 0.00371293 0)
(0.549344 0.000854549 0)
(0.113494 4.31971e-05 0)
(0.121084 3.84806e-05 0)
(0.758429 0.000250769 0)
(1.01161 -0.00171313 0)
(1.09022 -0.00543839 0)
(1.08684 -0.00768566 0)
(1.07228 -0.00737496 0)
(1.06167 -0.00551325 0)
(1.05417 -0.00222298 0)
(1.04853 0.00202586 0)
(1.04457 0.0070091 0)
(1.04309 0.0115618 0)
(1.04445 0.0147354 0)
(1.0484 0.0166548 0)
(1.05534 0.017237 0)
(1.06692 0.0165326 0)
(1.07896 0.0137182 0)
(1.0515 0.00847642 0)
(0.88766 0.00335142 0)
(0.543893 0.000852106 0)
(0.112263 5.41048e-05 0)
(0.122001 4.99822e-05 0)
(0.757735 0.000912634 0)
(1.00437 9.42892e-06 0)
(1.08258 -0.00316742 0)
(1.08463 -0.00578216 0)
(1.07379 -0.0059354 0)
(1.06516 -0.00398938 0)
(1.05828 -0.000554671 0)
(1.0528 0.0038729 0)
(1.04848 0.00911337 0)
(1.04636 0.0137268 0)
(1.0468 0.016797 0)
(1.04972 0.0183956 0)
(1.05475 0.0183862 0)
(1.06326 0.0169998 0)
(1.06947 0.0131012 0)
(1.03782 0.00746887 0)
(0.877447 0.0029819 0)
(0.53895 0.00087414 0)
(0.110939 6.18055e-05 0)
(0.123375 6.97805e-05 0)
(0.759213 0.00147635 0)
(1.00066 0.00176848 0)
(1.07668 2.34996e-05 0)
(1.08213 -0.00181394 0)
(1.07534 -0.00189167 0)
(1.06848 -9.02483e-05 0)
(1.06233 0.0030873 0)
(1.05698 0.00725198 0)
(1.05219 0.0119475 0)
(1.04916 0.0157811 0)
(1.04869 0.0179177 0)
(1.04999 0.0185821 0)
(1.05334 0.0179549 0)
(1.05792 0.0154827 0)
(1.05959 0.0113839 0)
(1.02589 0.00650791 0)
(0.869066 0.00290564 0)
(0.534134 0.000980015 0)
(0.109475 7.24497e-05 0)
(0.125274 9.22831e-05 0)
(0.763217 0.00208431 0)
(1.00083 0.00331903 0)
(1.07406 0.00304703 0)
(1.08124 0.00249154 0)
(1.07691 0.00302199 0)
(1.0716 0.00494908 0)
(1.0661 0.00799244 0)
(1.0607 0.0117477 0)
(1.05523 0.01556 0)
(1.0511 0.0182598 0)
(1.04946 0.0191328 0)
(1.0492 0.018634 0)
(1.05027 0.0168559 0)
(1.05219 0.0139933 0)
(1.05088 0.0102337 0)
(1.01641 0.00625454 0)
(0.86182 0.00321023 0)
(0.528886 0.00117696 0)
(0.107759 8.76959e-05 0)
(0.127778 0.000118893 0)
(0.769421 0.00271123 0)
(1.00376 0.00471562 0)
(1.07473 0.00574166 0)
(1.08232 0.00655815 0)
(1.07927 0.00792206 0)
(1.07486 0.0103504 0)
(1.06966 0.0135059 0)
(1.06389 0.0169673 0)
(1.05748 0.0199803 0)
(1.05201 0.0214841 0)
(1.04891 0.0210568 0)
(1.04693 0.0194338 0)
(1.04638 0.0168233 0)
(1.04644 0.0136946 0)
(1.04341 0.0102262 0)
(1.00856 0.00676681 0)
(0.854741 0.00381746 0)
(0.522711 0.00144773 0)
(0.105659 0.000106685 0)
(0.131002 0.000156304 0)
(0.777897 0.0034905 0)
(1.00947 0.0063049 0)
(1.07809 0.0083703 0)
(1.08544 0.0102421 0)
(1.0828 0.0127335 0)
(1.07862 0.0159434 0)
(1.07323 0.0194768 0)
(1.06666 0.0228911 0)
(1.05897 0.0253642 0)
(1.05187 0.0258417 0)
(1.04718 0.0242154 0)
(1.04377 0.0214659 0)
(1.04181 0.0182058 0)
(1.04059 0.0147605 0)
(1.03657 0.0113085 0)
(1.00118 0.00790215 0)
(0.846798 0.00467848 0)
(0.515162 0.00181346 0)
(0.103058 0.000132695 0)
(0.135187 0.000211817 0)
(0.789017 0.00458025 0)
(1.01775 0.00836641 0)
(1.0839 0.0114142 0)
(1.09061 0.0143104 0)
(1.08779 0.0179554 0)
(1.08321 0.022068 0)
(1.07703 0.0262095 0)
(1.06922 0.0298501 0)
(1.05983 0.0320079 0)
(1.05081 0.0316024 0)
(1.04429 0.0289327 0)
(1.03954 0.0251217 0)
(1.03642 0.0210557 0)
(1.03426 0.017094 0)
(1.02953 0.0133423 0)
(0.99323 0.00961086 0)
(0.837299 0.00580182 0)
(0.505805 0.00225707 0)
(0.0998344 0.000164353 0)
(0.140691 0.000287518 0)
(0.803406 0.00606697 0)
(1.02869 0.011056 0)
(1.09212 0.0151253 0)
(1.09794 0.0191693 0)
(1.09444 0.0240309 0)
(1.08892 0.0292494 0)
(1.08144 0.0342656 0)
(1.07184 0.0383266 0)
(1.06021 0.0402718 0)
(1.04887 0.038991 0)
(1.04033 0.0352067 0)
(1.03416 0.030319 0)
(1.02994 0.0252966 0)
(1.02696 0.0205806 0)
(1.0216 0.0162401 0)
(0.983994 0.011889 0)
(0.825599 0.00723999 0)
(0.494164 0.00280988 0)
(0.0958585 0.000203488 0)
(0.148021 0.000397861 0)
(0.821969 0.00814455 0)
(1.04286 0.0146219 0)
(1.10307 0.019864 0)
(1.10766 0.0252425 0)
(1.10307 0.0315598 0)
(1.09611 0.0381553 0)
(1.0867 0.0442311 0)
(1.07465 0.0488129 0)
(1.06015 0.0505422 0)
(1.04604 0.0482849 0)
(1.03522 0.043225 0)
(1.02747 0.0370801 0)
(1.02207 0.0308948 0)
(1.01826 0.0251877 0)
(1.01217 0.0200038 0)
(0.972857 0.0147868 0)
(0.811121 0.00904746 0)
(0.479719 0.00349369 0)
(0.0909806 0.000251669 0)
(0.157964 0.000574553 0)
(0.846153 0.0112266 0)
(1.06124 0.0196531 0)
(1.1173 0.0263068 0)
(1.12026 0.0333955 0)
(1.114 0.0414801 0)
(1.1049 0.0496453 0)
(1.09279 0.0568487 0)
(1.07756 0.0619084 0)
(1.05953 0.0632507 0)
(1.04214 0.0597849 0)
(1.02879 0.0532072 0)
(1.01922 0.045552 0)
(1.0125 0.0379543 0)
(1.00772 0.0310069 0)
(1.00075 0.0247383 0)
(0.959225 0.0184176 0)
(0.793396 0.0113117 0)
(0.461988 0.00431759 0)
(0.0850661 0.000301858 0)
(0.171781 0.000859482 0)
(0.877905 0.0159436 0)
(1.08531 0.026901 0)
(1.13592 0.0352847 0)
(1.13638 0.0446519 0)
(1.12751 0.0548845 0)
(1.11529 0.0647691 0)
(1.09956 0.0730455 0)
(1.08032 0.0783141 0)
(1.05807 0.0788699 0)
(1.03692 0.0738117 0)
(1.02074 0.0654047 0)
(1.00912 0.0559679 0)
(1.00088 0.046703 0)
(0.994954 0.0382595 0)
(0.986843 0.0306672 0)
(0.942429 0.0229947 0)
(0.771658 0.0141619 0)
(0.440476 0.00533355 0)
(0.0779688 0.000357981 0)
(0.191741 0.00136458 0)
(0.920465 0.0235151 0)
(1.11711 0.0378458 0)
(1.16034 0.0486429 0)
(1.15674 0.0609399 0)
(1.14388 0.0735464 0)
(1.1272 0.084973 0)
(1.10669 0.0938622 0)
(1.08255 0.0987264 0)
(1.05541 0.097848 0)
(1.03008 0.0906681 0)
(1.0108 0.0800734 0)
(0.996887 0.0686048 0)
(0.986882 0.0574666 0)
(0.979557 0.0473149 0)
(0.969918 0.0381769 0)
(0.92164 0.0288565 0)
(0.744863 0.017855 0)
(0.414302 0.00666025 0)
(0.0695097 0.000424503 0)
(0.221245 0.00252914 0)
(0.980212 0.0371158 0)
(1.15888 0.0565107 0)
(1.19167 0.0703381 0)
(1.18137 0.085556 0)
(1.16257 0.0999262 0)
(1.13986 0.11193 0)
(1.11342 0.120337 0)
(1.0836 0.123756 0)
(1.0511 0.120532 0)
(1.02134 0.110578 0)
(0.998772 0.0974252 0)
(0.982364 0.0837323 0)
(0.970345 0.0706157 0)
(0.961272 0.058661 0)
(0.949501 0.0478366 0)
(0.895923 0.0365724 0)
(0.711762 0.0227401 0)
(0.383186 0.00847349 0)
(0.0599195 0.000473368 0)
(0.262255 0.00924594 -2.6679e-20)
(1.06008 0.064966 -2.11381e-20)
(1.20891 0.0889276 5.96964e-21)
(1.22733 0.10596 0)
(1.2078 0.122313 1.72324e-35)
(1.18145 0.136438 8.04778e-23)
(1.15166 0.147263 -2.15697e-21)
(1.11858 0.153793 0)
(1.08257 0.15473 8.8835e-35)
(1.04426 0.148479 -6.88458e-21)
(1.00957 0.135403 0)
(0.983215 0.119597 -1.00175e-20)
(0.963763 0.103719 -3.0715e-20)
(0.949121 0.0887842 -1.48796e-20)
(0.937558 0.0753869 -4.6956e-21)
(0.922635 0.0632852 -2.84319e-21)
(0.862814 0.0501832 0)
(0.669107 0.0322605 2.03127e-21)
(0.345846 0.0138021 2.40208e-21)
(0.0510393 0.00168517 4.1953e-20)
(0.288345 0.0256368 -4.82809e-20)
(1.1244 0.110284 9.94375e-22)
(1.25199 0.136956 -2.85451e-21)
(1.25942 0.155021 0)
(1.23152 0.169694 4.8759e-21)
(1.19782 0.182031 2.99746e-21)
(1.16102 0.190959 -1.22718e-21)
(1.12121 0.195335 -1.10613e-20)
(1.0786 0.193822 0)
(1.03368 0.18482 2.92484e-20)
(0.992895 0.169059 3.26536e-20)
(0.96143 0.151091 1.05633e-20)
(0.93761 0.133556 4.19579e-20)
(0.919047 0.11724 6.19959e-20)
(0.903655 0.102677 0)
(0.883787 0.089639 9.23022e-20)
(0.819711 0.0748165 1.34489e-19)
(0.624644 0.0524072 1.49064e-19)
(0.319246 0.0263308 -1.72392e-19)
(0.0467362 0.00400234 -3.13024e-21)
(0.284639 0.0417922 0)
(1.16147 0.168477 -1.47967e-20)
(1.2844 0.198108 0)
(1.28448 0.213904 2.44667e-20)
(1.25003 0.225045 0)
(1.21 0.233907 1.32819e-20)
(1.16692 0.239585 9.01284e-22)
(1.12091 0.240807 -1.5502e-20)
(1.07221 0.236159 -3.09387e-21)
(1.02119 0.224018 1.40862e-20)
(0.974838 0.205607 7.65072e-20)
(0.938803 0.185855 -5.66798e-22)
(0.911156 0.167288 -3.16026e-20)
(0.889268 0.150533 -6.15835e-20)
(0.870932 0.135848 7.47825e-20)
(0.848861 0.122777 -1.3438e-19)
(0.787501 0.107102 -1.83961e-20)
(0.610635 0.0801221 0)
(0.328486 0.0436753 2.67249e-22)
(0.053364 0.00759022 0)
(0.275243 0.0556096 -3.61783e-19)
(1.17867 0.229655 1.51415e-19)
(1.30504 0.264162 8.24148e-20)
(1.30086 0.277477 -1.593e-20)
(1.26193 0.284714 2.44219e-20)
(1.21713 0.289547 -3.16913e-20)
(1.16901 0.291348 8.82743e-23)
(1.11777 0.288882 0)
(1.06377 0.280671 -5.37965e-20)
(1.0074 0.265115 0)
(0.956278 0.243947 -3.89213e-20)
(0.916496 0.222514 -5.53143e-20)
(0.885921 0.203176 -3.54928e-20)
(0.861693 0.186271 -4.59721e-20)
(0.841563 0.171791 0)
(0.819006 0.15899 0)
(0.763153 0.143215 -1.23958e-19)
(0.605937 0.112138 2.46607e-20)
(0.339951 0.0642292 -1.43221e-20)
(0.0599575 0.0118076 -1.65178e-20)
(0.26594 0.0679266 2.66147e-19)
(1.18342 0.290286 0)
(1.31611 0.330849 -2.29964e-19)
(1.30957 0.342195 -5.96132e-20)
(1.26749 0.345723 -4.59828e-20)
(1.21927 0.346559 0)
(1.16728 0.344453 -7.12063e-21)
(1.11183 0.338175 1.30089e-20)
(1.05338 0.326263 2.30261e-20)
(0.992501 0.307128 7.16367e-20)
(0.937433 0.283066 0)
(0.894801 0.259815 -1.20533e-19)
(0.862275 0.239521 -7.74214e-20)
(0.836727 0.222295 -4.6695e-20)
(0.815788 0.207954 3.07245e-19)
(0.793664 0.195537 3.77247e-20)
(0.743142 0.179547 1.80224e-19)
(0.599728 0.14408 -8.66284e-19)
(0.34431 0.0841137 5.10933e-19)
(0.0633174 0.0157829 -6.1066e-19)
(0.257831 0.0789898 2.80316e-19)
(1.18045 0.348365 -5.29018e-20)
(1.32015 0.396354 4.03316e-20)
(1.31221 0.406185 1.10189e-19)
(1.2679 0.406259 6.81925e-20)
(1.21707 0.403397 3.29725e-21)
(1.16207 0.397573 6.57008e-21)
(1.10327 0.387564 8.49521e-21)
(1.04113 0.371967 -5.06559e-20)
(0.976422 0.3492 0)
(0.91821 0.322067 -5.1534e-20)
(0.873397 0.2967 -2.98886e-21)
(0.839473 0.275112 -8.67419e-20)
(0.813116 0.257223 0)
(0.791932 0.242609 -6.70351e-20)
(0.770674 0.230033 -1.63047e-19)
(0.724428 0.213057 4.50879e-19)
(0.590053 0.172804 -4.46802e-19)
(0.342416 0.101282 6.30873e-19)
(0.0638728 0.0190657 -6.49714e-19)
(0.251296 0.0892437 -8.45199e-22)
(1.17276 0.403383 6.45606e-20)
(1.31895 0.459539 1.92452e-19)
(1.31023 0.468388 -6.72966e-20)
(1.2643 0.465346 3.88712e-20)
(1.21146 0.45911 0)
(1.15406 0.449825 1.88531e-20)
(1.09247 0.436292 -5.35583e-21)
(1.02725 0.417108 -2.26358e-20)
(0.959223 0.390701 0)
(0.898185 0.360347 -5.00589e-20)
(0.851571 0.332591 -7.09679e-20)
(0.816681 0.309341 9.49236e-20)
(0.789978 0.290328 -6.09521e-20)
(0.768931 0.27494 -2.95296e-19)
(0.7486 0.261723 1.81609e-19)
(0.705481 0.243358 5.74149e-20)
(0.577046 0.198087 0)
(0.336039 0.115801 -6.1351e-19)
(0.0628443 0.0217297 -2.22513e-20)
(0.2462 0.099008 4.57827e-20)
(1.16238 0.455222 -7.41257e-20)
(1.31396 0.519977 -1.05097e-19)
(1.3048 0.528178 -2.07207e-19)
(1.25764 0.522392 1.88019e-19)
(1.20322 0.513139 -1.01748e-19)
(1.14385 0.500688 -3.97849e-20)
(1.07992 0.483881 -6.9459e-21)
(1.01201 0.461297 2.39259e-20)
(0.941045 0.431312 -1.74673e-19)
(0.877537 0.397599 -6.19371e-20)
(0.829509 0.36718 0)
(0.79391 0.34193 1.03834e-19)
(0.767029 0.321385 1.28577e-19)
(0.746186 0.304834 1.5847e-19)
(0.726642 0.290553 -1.98125e-19)
(0.685644 0.270384 -5.9579e-20)
(0.561275 0.220001 7.02528e-20)
(0.326362 0.127626 0)
(0.06077 0.0237519 -4.84789e-20)
(0.242305 0.108406 -5.30367e-19)
(1.15069 0.504011 3.39166e-19)
(1.30629 0.577474 1.15446e-19)
(1.29678 0.585188 -1.5789e-19)
(1.24868 0.577042 1.1213e-19)
(1.193 0.565111 -7.69925e-21)
(1.13204 0.549815 3.92993e-20)
(1.06611 0.530031 -3.60003e-21)
(0.995827 0.504286 -4.08819e-20)
(0.922282 0.470851 3.20641e-22)
(0.856466 0.433714 -1.83982e-19)
(0.807021 0.400368 1.81292e-19)
(0.770748 0.372775 -1.16477e-19)
(0.743739 0.350348 1.45133e-19)
(0.723189 0.33226 0)
(0.704357 0.31665 -1.07576e-19)
(0.664733 0.29422 -2.52398e-21)
(0.543298 0.238568 -3.07264e-19)
(0.314228 0.13713 -4.51428e-20)
(0.0578162 0.0251265 0)
(0.239422 0.117531 0)
(1.13844 0.550016 3.67396e-19)
(1.29665 0.631855 2.68748e-19)
(1.28693 0.639322 1.77922e-19)
(1.23808 0.629112 1.08261e-19)
(1.18139 0.614825 0)
(1.1191 0.596999 3.61149e-20)
(1.05147 0.574538 -2.42629e-21)
(0.979077 0.545907 8.6404e-20)
(0.902982 0.509199 -2.11307e-20)
(0.834849 0.468634 -1.35e-19)
(0.783945 0.432159 9.0526e-20)
(0.747052 0.401877 -3.87203e-21)
(0.71995 0.377245 1.52787e-19)
(0.699721 0.357325 1.00075e-19)
(0.681457 0.340048 -2.34353e-19)
(0.642656 0.315035 2.83299e-19)
(0.523359 0.253999 8.42571e-20)
(0.300091 0.1443 3.45902e-19)
(0.0541927 0.025832 -9.14241e-19)
(0.237393 0.126541 -1.35733e-19)
(1.1262 0.593405 2.11696e-19)
(1.28572 0.683191 -1.67001e-19)
(1.27581 0.690534 -2.06071e-19)
(1.22633 0.678516 0)
(1.16882 0.662152 8.76309e-20)
(1.10542 0.6421 -1.04822e-19)
(1.03629 0.617264 -2.45585e-21)
(0.961904 0.586045 0)
(0.883333 0.546331 -3.29755e-19)
(0.812839 0.502428 3.68106e-19)
(0.760301 0.462716 0)
(0.722686 0.429465 1.37985e-19)
(0.695465 0.40231 -3.90466e-21)
(0.675475 0.380279 -3.16654e-19)
(0.657609 0.36101 1.24375e-19)
(0.619215 0.333037 0)
(0.501653 0.266429 4.57133e-19)
(0.284187 0.149143 0)
(0.0500301 0.0259169 -4.35904e-19)
(0.236039 0.13542 1.51107e-19)
(1.11419 0.634402 2.41702e-19)
(1.27407 0.731498 -1.74861e-19)
(1.26382 0.738867 0)
(1.21383 0.725258 1.48162e-19)
(1.15567 0.707064 0)
(1.09133 0.68506 1.36227e-19)
(1.02084 0.658151 1.58795e-20)
(0.944623 0.624665 7.9482e-21)
(0.863653 0.582248 -1.62749e-19)
(0.790598 0.535173 3.55503e-20)
(0.736108 0.492168 0)
(0.697424 0.455736 -2.93476e-19)
(0.669984 0.425767 4.0355e-21)
(0.650174 0.401304 0)
(0.632625 0.379753 4.82944e-21)
(0.594333 0.348359 4.17301e-19)
(0.478065 0.27576 -4.00597e-19)
(0.266545 0.151587 1.17487e-19)
(0.0453301 0.0253591 0)
(0.234993 0.144059 0)
(1.10255 0.673159 2.69987e-19)
(1.262 0.776898 2.04572e-19)
(1.25129 0.78441 -4.3245e-21)
(1.20093 0.769366 9.23695e-20)
(1.14225 0.749575 2.062e-19)
(1.07711 0.725877 -4.40662e-20)
(1.00544 0.697188 7.06013e-21)
(0.927517 0.66176 5.03406e-20)
(0.844117 0.616994 -2.52736e-19)
(0.768315 0.566966 -6.16391e-21)
(0.711567 0.520641 -1.19529e-19)
(0.671362 0.480826 4.81285e-19)
(0.643459 0.447716 -4.83642e-21)
(0.623799 0.420551 -2.5e-19)
(0.606465 0.396383 -4.56738e-19)
(0.567919 0.361147 0)
(0.45249 0.282074 0)
(0.247149 0.151506 1.29393e-19)
(0.0402254 0.0241131 -7.44748e-20)
(0.23452 0.152547 1.874e-19)
(1.09146 0.709649 -5.90344e-19)
(1.24968 0.819539 -2.18759e-19)
(1.2385 0.827214 0)
(1.18787 0.810895 -2.97798e-21)
(1.12878 0.789713 2.46558e-19)
(1.06299 0.764561 -1.45814e-19)
(0.990291 0.734366 -6.9487e-20)
(0.91075 0.697326 4.90906e-20)
(0.824928 0.650592 -1.93311e-19)
(0.74618 0.597962 -3.10411e-19)
(0.686825 0.548442 3.18471e-19)
(0.644773 0.505136 0)
(0.615952 0.468587 -1.12558e-19)
(0.596228 0.43833 -2.74713e-19)
(0.578965 0.411122 -3.31228e-19)
(0.539754 0.371383 -4.01798e-19)
(0.424746 0.285246 1.19877e-19)
(0.225877 0.148546 -7.00115e-20)
(0.0346759 0.0221396 8.2849e-22)
(0.234064 0.160861 0)
(1.08117 0.743833 0)
(1.23727 0.859565 4.83188e-21)
(1.22566 0.867377 0)
(1.17485 0.849936 -3.45534e-19)
(1.11546 0.827539 -2.16988e-19)
(1.04915 0.801136 0)
(0.975534 0.769693 -1.60749e-20)
(0.894504 0.731363 5.59197e-20)
(0.806289 0.683073 -4.43441e-19)
(0.724387 0.628243 0)
(0.661987 0.575791 -2.03799e-19)
(0.617675 0.528974 -5.94756e-21)
(0.587464 0.488722 -4.9127e-21)
(0.567397 0.454886 2.93332e-19)
(0.549981 0.42409 -8.06789e-22)
(0.509674 0.379006 -8.73419e-19)
(0.394529 0.284979 2.61609e-19)
(0.202836 0.14274 7.73224e-20)
(0.0287314 0.0194579 0)
(0.23363 0.168882 -6.86809e-19)
(1.07133 0.776226 -3.62597e-19)
(1.22494 0.897077 -5.45374e-19)
(1.21293 0.904998 7.64887e-19)
(1.16202 0.886557 -6.46184e-19)
(1.10242 0.863111 0)
(1.03569 0.835648 -1.22536e-19)
(0.961315 0.803197 3.03921e-20)
(0.878926 0.763888 7.32454e-21)
(0.788372 0.71446 3.5206e-20)
(0.70314 0.657904 3.873e-19)
(0.637269 0.602867 -6.95205e-20)
(0.590031 0.552586 -2.96686e-19)
(0.557874 0.50832 -1.3379e-19)
(0.53711 0.470412 1.63508e-19)
(0.519312 0.435276 -6.76866e-22)
(0.477516 0.383944 2.39911e-19)
(0.361536 0.281057 -5.67693e-19)
(0.17766 0.133722 6.73466e-19)
(0.0225741 0.0162038 9.59787e-20)
(0.233091 0.17654 2.51668e-19)
(1.06192 0.806839 -1.98048e-19)
(1.2128 0.9322 1.15405e-20)
(1.20043 0.940204 4.30913e-19)
(1.14948 0.920868 1.50499e-19)
(1.08976 0.896501 4.31375e-19)
(1.02275 0.86815 -5.37296e-20)
(0.947735 0.834899 1.44097e-19)
(0.864119 0.794893 -1.69963e-20)
(0.771307 0.744739 -2.3906e-19)
(0.682657 0.686989 0)
(0.612926 0.629827 -3.12904e-19)
(0.562047 0.576321 4.30517e-19)
(0.527124 0.52785 0)
(0.505083 0.485167 -3.49823e-19)
(0.48665 0.44462 2.17023e-19)
(0.44313 0.385617 -2.59286e-19)
(0.326389 0.273028 -3.11328e-19)
(0.15146 0.121854 -5.48523e-19)
(0.016402 0.0124657 -4.21463e-19)
(0.232709 0.183946 -2.75847e-19)
(1.05278 0.835683 2.11429e-19)
(1.20094 0.965028 5.05886e-19)
(1.18823 0.973091 5.90982e-19)
(1.13732 0.952961 -3.14576e-19)
(1.07756 0.927798 2.96387e-19)
(1.01038 0.898696 -1.67078e-19)
(0.934857 0.864841 1.76118e-19)
(0.850157 0.824396 2.33646e-21)
(0.755218 0.773907 2.25433e-19)
(0.663112 0.715513 8.18476e-19)
(0.589206 0.656789 0)
(0.53405 0.600482 0)
(0.49528 0.547879 -1.5457e-19)
(0.470946 0.499688 0)
(0.451281 0.451854 4.72766e-19)
(0.406039 0.38304 5.67141e-19)
(0.289548 0.259981 0)
(0.125447 0.107268 0)
(0.010755 0.00863786 4.59353e-19)
(0.232068 0.190826 3.03466e-19)
(1.04394 0.862778 2.52357e-19)
(1.18941 0.995689 3.62571e-19)
(1.17639 1.00379 -5.25861e-19)
(1.12558 0.982941 -3.49609e-19)
(1.06587 0.957077 -3.91552e-19)
(0.998631 0.927349 2.46851e-19)
(0.922728 0.893054 7.96718e-22)
(0.837099 0.852401 -9.36382e-21)
(0.740187 0.801939 -1.18648e-20)
(0.644676 0.743453 4.13499e-19)
(0.566367 0.683776 0)
(0.506365 0.625294 4.33373e-19)
(0.462553 0.569004 3.25152e-19)
(0.434248 0.514779 8.32315e-19)
(0.411909 0.457084 2.54779e-19)
(0.364986 0.374273 -3.13618e-19)
(0.252319 0.239386 -1.83904e-19)
(0.103359 0.0897768 0)
(0.00690475 0.00527271 4.99462e-19)
(0.231622 0.197604 -6.65099e-19)
(1.03539 0.888238 0)
(1.17821 1.02426 4.03587e-19)
(1.16495 1.03239 -4.29464e-19)
(1.11431 1.0109 3.94193e-19)
(1.05472 0.984427 5.69575e-19)
(0.987524 0.954171 -5.69058e-19)
(0.911367 0.919577 6.51354e-21)
(0.824967 0.878916 0)
(0.726271 0.828792 -2.04577e-19)
(0.627496 0.770758 -8.52099e-19)
(0.544671 0.710789 4.22182e-20)
(0.479426 0.650853 5.87065e-19)
(0.429406 0.59185 0)
(0.394698 0.531842 5.60491e-19)
(0.366565 0.461418 0)
(0.315961 0.35724 0)
(0.21428 0.20329 -2.05099e-19)
(0.0981588 0.0596426 0)
(0.0251011 0.0109684 1.34872e-19)
(0.230856 0.203749 -7.24703e-19)
(1.02709 0.912345 0)
(1.16735 1.05096 6.50981e-19)
(1.15388 1.05912 0)
(1.10348 1.03709 -2.12949e-19)
(1.04404 1.01012 0)
(0.976995 0.979462 -4.21688e-20)
(0.900678 0.944738 -3.00702e-20)
(0.81365 0.904291 -2.56201e-21)
(0.713335 0.854842 -1.96304e-19)
(0.611456 0.797827 2.19943e-20)
(0.524034 0.738347 3.4865e-19)
(0.45316 0.677651 5.66801e-19)
(0.395813 0.617322 8.12227e-20)
(0.351594 0.55314 4.37184e-19)
(0.312315 0.468436 0)
(0.247749 0.334258 6.84278e-19)
(0.152032 0.138532 -4.03748e-19)
(0.058397 0.0648938 4.60167e-19)
(-0.0557995 0.391887 -5.43528e-19)
(0.23007 0.209623 5.89416e-19)
(1.01882 0.935045 9.51023e-19)
(1.15674 1.07608 0)
(1.14305 1.08438 9.22625e-21)
(1.09292 1.06206 5.77121e-19)
(1.03362 1.03481 -1.0947e-18)
(0.96677 1.00398 -2.48936e-19)
(0.890315 0.96943 0)
(0.802701 0.929574 -6.20853e-20)
(0.700823 0.881356 -5.08705e-21)
(0.595793 0.826114 0)
(0.503486 0.768214 0)
(0.426433 0.707568 4.95937e-19)
(0.360958 0.64736 -2.53389e-19)
(0.303333 0.582735 -4.34533e-19)
(0.245589 0.486534 0)
(0.13791 0.318962 3.41891e-19)
(0.0306076 0.443227 -4.01302e-19)
(0.0449031 1.76773 -2.10882e-19)
(0.0812669 2.74641 -2.81189e-19)
(0.229095 0.214728 -4.27327e-19)
(1.01076 0.956424 -1.19501e-18)
(1.14637 1.09964 3.72743e-19)
(1.13248 1.10804 3.60929e-19)
(1.08269 1.08561 0)
(1.02349 1.05822 -7.81493e-19)
(0.957018 1.02742 -4.15274e-19)
(0.880427 0.993239 1.97409e-20)
(0.79234 0.954255 -8.40081e-21)
(0.689057 0.907711 1.41575e-19)
(0.581058 0.854887 3.72528e-19)
(0.483979 0.799784 3.54625e-19)
(0.400457 0.74012 4.84636e-19)
(0.327251 0.68017 -5.75044e-19)
(0.256031 0.62178 -6.39443e-19)
(0.17227 0.524168 0)
(0.076903 0.810891 0)
(0.131224 2.46104 1.77102e-19)
(0.137941 3.16084 0)
(0.139067 3.37133 3.79771e-19)
(0.230969 0.219692 0)
(1.00345 0.976654 0)
(1.136 1.12149 0)
(1.12194 1.12989 1.00118e-19)
(1.07249 1.10753 5.12425e-19)
(1.01343 1.08023 -5.94316e-19)
(0.947643 1.04968 -2.96509e-19)
(0.870957 1.01606 2.23007e-20)
(0.78252 0.978192 -1.41549e-19)
(0.678045 0.933745 -1.99275e-20)
(0.567362 0.883986 6.63121e-19)
(0.465856 0.832803 -4.15662e-20)
(0.375719 0.775813 5.40415e-20)
(0.295954 0.713134 8.13287e-20)
(0.216626 0.666847 3.30955e-21)
(0.14005 0.915174 3.3395e-21)
(0.180586 2.59004 -8.73679e-19)
(0.20164 3.26611 -3.27611e-19)
(0.184146 3.42413 1.47691e-19)
(0.165296 3.45093 -1.48864e-19)
(0.15012 0.172203 2.34526e-19)
(0.990237 0.998811 0)
(1.12546 1.1418 -7.27089e-19)
(1.11211 1.15047 -9.25975e-19)
(1.06293 1.12846 1.06748e-18)
(1.00423 1.10137 6.31389e-19)
(0.938502 1.07085 3.43091e-19)
(0.86197 1.03798 -3.7602e-19)
(0.773384 1.00148 1.48666e-19)
(0.668132 0.959422 0)
(0.555265 0.913228 2.78692e-19)
(0.449882 0.866603 -2.60029e-19)
(0.35307 0.816195 0)
(0.267726 0.75026 6.90224e-20)
(0.20053 0.851678 1.66651e-19)
(0.186748 2.23813 -2.09303e-19)
(0.272986 3.3029 2.28055e-19)
(0.24997 3.44524 1.08317e-19)
(0.208547 3.47208 1.21137e-19)
(0.181103 3.4844 1.44576e-19)
(0.268288 0.25384 -4.22786e-19)
(0.971417 1.00416 0)
(1.10577 1.16388 7.34194e-19)
(1.0985 1.181 9.52048e-19)
(1.04765 1.1591 -1.08579e-18)
(0.988983 1.13257 -6.64563e-19)
(0.922907 1.1034 -5.28863e-19)
(0.846367 1.07181 -2.80118e-20)
(0.757258 1.03766 -2.11758e-19)
(0.650371 0.999916 -1.6401e-20)
(0.534036 0.960816 9.98925e-21)
(0.422925 0.923203 1.95749e-19)
(0.315567 0.888313 4.30345e-20)
(0.242836 0.985832 -6.22709e-20)
(0.276923 2.13604 -1.44137e-19)
(0.351263 3.30069 9.28281e-20)
(0.340495 3.48542 -7.84126e-20)
(0.298094 3.51201 -4.35348e-20)
(0.255134 3.54324 2.64614e-20)
(0.193814 3.53429 5.34246e-22)
(0.25599 0.250027 0)
(0.9675 1.02412 1.92364e-19)
(1.09734 1.18509 -1.46053e-19)
(1.08853 1.20214 -1.06508e-19)
(1.03808 1.18033 -7.1486e-19)
(0.979746 1.15402 6.50143e-19)
(0.913691 1.12506 3.56209e-19)
(0.837472 1.0943 -2.93658e-20)
(0.748579 1.06173 2.61251e-19)
(0.641499 1.02702 -2.76301e-20)
(0.524019 0.993079 -3.29324e-19)
(0.410564 0.962365 2.76473e-20)
(0.305232 0.950192 -3.65733e-20)
(0.289247 1.37974 -5.01967e-20)
(0.388711 2.97374 3.69145e-20)
(0.430724 3.47172 1.97838e-21)
(0.380365 3.55353 -1.05191e-19)
(0.33794 3.58191 -1.2617e-19)
(0.279244 3.60859 1.66398e-19)
(0.210162 3.60146 5.89088e-20)
(0.239177 0.246716 4.68355e-19)
(0.961648 1.04621 1.30327e-18)
(1.08822 1.20797 -4.1827e-19)
(1.07815 1.22462 -4.05556e-19)
(1.02808 1.20269 0)
(0.97011 1.17639 9.5223e-19)
(0.904374 1.14767 5.43651e-19)
(0.828769 1.1177 -3.08696e-20)
(0.740447 1.08677 2.71977e-20)
(0.633737 1.05526 1.49205e-19)
(0.515954 1.02671 -8.49922e-20)
(0.402078 1.004 -1.8092e-19)
(0.312184 1.05235 -2.31459e-19)
(0.369988 1.95331 2.53008e-19)
(0.48944 3.34046 9.44863e-20)
(0.489632 3.54917 0)
(0.429334 3.60171 0)
(0.38778 3.6565 1.64126e-19)
(0.307801 3.72959 0)
(0.223361 3.69221 2.88122e-19)
(0.227386 0.246769 -6.85889e-19)
(0.953608 1.06888 -1.08765e-18)
(1.07768 1.23176 0)
(1.06658 1.24779 1.04253e-20)
(1.01693 1.22547 -6.98499e-19)
(0.959462 1.19905 1.41662e-18)
(0.894383 1.17056 3.65781e-19)
(0.819629 1.14128 -3.82016e-20)
(0.732166 1.11188 2.90011e-19)
(0.626281 1.08351 -1.55272e-20)
(0.509021 1.06043 0)
(0.396942 1.04738 0)