0.490941 	1.37431 	0.00584645 	3.0006 	-4.22478e-20
0.561075 	1.37431 	0.00584645 	3.0006 	-4.22478e-20
0.63121 	1.37431 	0.00584645 	3.0006 	-4.22478e-20
0.701344 	1.37431 	0.00584645 	3.0006 	-4.22478e-20
0.771478 	1.37431 	0.00584645 	3.0006 	-4.22478e-20
0.841613 	1.37431 	0.00584645 	3.0006 	-4.22478e-20
0.911747 	1.37431 	0.00584645 	3.0006 	-4.22478e-20
0.981881 	1.37431 	0.00584645 	3.0006 	-4.22478e-20
1.05202 	1.37431 	0.00584645 	3.0006 	-4.22478e-20
1.12215 	1.37431 	0.00584645 	3.0006 	-4.22478e-20
1.19228 	1.37431 	0.00584645 	3.0006 	-4.22478e-20
1.26242 	1.37431 	0.00584645 	3.0006 	-4.22478e-20
1.33255 	1.33501 	0.0138833 	3.01468 	-4.25447e-20
1.40269 	1.33501 	0.0138833 	3.01468 	-4.25447e-20
1.47282 	1.33501 	0.0138833 	3.01468 	-4.25447e-20
1.54296 	1.33501 	0.0138833 	3.01468 	-4.25447e-20
1.61309 	1.33501 	0.0138833 	3.01468 	-4.25447e-20
1.68323 	1.33501 	0.0138833 	3.01468 	-4.25447e-20
1.75336 	1.33501 	0.0138833 	3.01468 	-4.25447e-20
1.82349 	1.33501 	0.0138833 	3.01468 	-4.25447e-20
1.89363 	1.33501 	0.0138833 	3.01468 	-4.25447e-20
1.96376 	1.33501 	0.0138833 	3.01468 	-4.25447e-20
2.0339 	1.33501 	0.0138833 	3.01468 	-4.25447e-20
2.10403 	1.33501 	0.0138833 	3.01468 	-4.25447e-20
2.17417 	1.27424 	0.0143476 	3.03153 	8.96017e-20
2.2443 	1.27424 	0.0143476 	3.03153 	8.96017e-20
2.31443 	1.27424 	0.0143476 	3.03153 	8.96017e-20
2.38457 	1.27424 	0.0143476 	3.03153 	8.96017e-20
2.4547 	1.27424 	0.0143476 	3.03153 	8.96017e-20
2.52484 	1.27424 	0.0143476 	3.03153 	8.96017e-20
2.59497 	1.27424 	0.0143476 	3.03153 	8.96017e-20
2.66511 	1.27424 	0.0143476 	3.03153 	8.96017e-20
2.73524 	1.27424 	0.0143476 	3.03153 	8.96017e-20
2.80538 	1.27424 	0.0143476 	3.03153 	8.96017e-20
2.87551 	1.27424 	0.0143476 	3.03153 	8.96017e-20
2.94564 	1.27424 	0.0143476 	3.03153 	8.96017e-20
3.01578 	1.20027 	0.0162562 	3.05921 	-1.02003e-20
3.08591 	1.20027 	0.0162562 	3.05921 	-1.02003e-20
3.15605 	1.20027 	0.0162562 	3.05921 	-1.02003e-20
3.22618 	1.20027 	0.0162562 	3.05921 	-1.02003e-20
3.29632 	1.20027 	0.0162562 	3.05921 	-1.02003e-20
3.36645 	1.20027 	0.0162562 	3.05921 	-1.02003e-20
3.43659 	1.20027 	0.0162562 	3.05921 	-1.02003e-20
3.50672 	1.20027 	0.0162562 	3.05921 	-1.02003e-20
3.57685 	1.20027 	0.0162562 	3.05921 	-1.02003e-20
3.64699 	1.20027 	0.0162562 	3.05921 	-1.02003e-20
3.71712 	1.20027 	0.0162562 	3.05921 	-1.02003e-20
3.78726 	1.19307 	0.00726467 	3.05518 	2.00098e-20
3.85739 	1.11419 	-0.00089692 	3.08456 	-1.4374e-19
3.92753 	1.11419 	-0.00089692 	3.08456 	-1.4374e-19
3.99766 	1.11419 	-0.00089692 	3.08456 	-1.4374e-19
4.06779 	1.11419 	-0.00089692 	3.08456 	-1.4374e-19
4.13793 	1.11419 	-0.00089692 	3.08456 	-1.4374e-19
4.20806 	1.11419 	-0.00089692 	3.08456 	-1.4374e-19
4.2782 	1.11419 	-0.00089692 	3.08456 	-1.4374e-19
4.34833 	1.11419 	-0.00089692 	3.08456 	-1.4374e-19
4.41847 	1.11419 	-0.00089692 	3.08456 	-1.4374e-19
4.4886 	1.11419 	-0.00089692 	3.08456 	-1.4374e-19
4.55874 	1.11419 	-0.00089692 	3.08456 	-1.4374e-19
4.62887 	1.11419 	-0.00089692 	3.08456 	-1.4374e-19
4.699 	1.11419 	-0.00089692 	3.08456 	-1.4374e-19
4.76914 	1.03546 	0.00569861 	3.10624 	2.77145e-19
4.83927 	1.03546 	0.00569861 	3.10624 	2.77145e-19
4.90941 	1.03546 	0.00569861 	3.10624 	2.77145e-19
4.97954 	1.03546 	0.00569861 	3.10624 	2.77145e-19
5.04968 	1.03546 	0.00569861 	3.10624 	2.77145e-19
5.11981 	1.03546 	0.00569861 	3.10624 	2.77145e-19
5.18994 	1.03546 	0.00569861 	3.10624 	2.77145e-19
5.26008 	1.03546 	0.00569861 	3.10624 	2.77145e-19
5.33021 	1.03546 	0.00569861 	3.10624 	2.77145e-19
5.40035 	1.03546 	0.00569861 	3.10624 	2.77145e-19
5.47048 	1.03546 	0.00569861 	3.10624 	2.77145e-19
5.54062 	1.03546 	0.00569861 	3.10624 	2.77145e-19
5.61075 	0.960822 	-0.00218018 	3.13404 	-1.33177e-19
5.68089 	0.960822 	-0.00218018 	3.13404 	-1.33177e-19
5.75102 	0.960822 	-0.00218018 	3.13404 	-1.33177e-19
5.82115 	0.960822 	-0.00218018 	3.13404 	-1.33177e-19
5.89129 	0.960822 	-0.00218018 	3.13404 	-1.33177e-19
5.96142 	0.960822 	-0.00218018 	3.13404 	-1.33177e-19
6.03156 	0.960822 	-0.00218018 	3.13404 	-1.33177e-19
6.10169 	0.960822 	-0.00218018 	3.13404 	-1.33177e-19
6.17183 	0.960822 	-0.00218018 	3.13404 	-1.33177e-19
6.24196 	0.960822 	-0.00218018 	3.13404 	-1.33177e-19
6.3121 	0.960822 	-0.00218018 	3.13404 	-1.33177e-19
6.38223 	0.960822 	-0.00218018 	3.13404 	-1.33177e-19
6.45236 	0.88957 	0.00568135 	3.15284 	0
6.5225 	0.88957 	0.00568135 	3.15284 	0
6.59263 	0.88957 	0.00568135 	3.15284 	0
6.66277 	0.88957 	0.00568135 	3.15284 	0
6.7329 	0.88957 	0.00568135 	3.15284 	0
6.80304 	0.88957 	0.00568135 	3.15284 	0
6.87317 	0.88957 	0.00568135 	3.15284 	0
6.9433 	0.88957 	0.00568135 	3.15284 	0
7.01344 	0.88957 	0.00568135 	3.15284 	0
7.08357 	0.88957 	0.00568135 	3.15284 	0
7.15371 	0.88957 	0.00568135 	3.15284 	0
7.22384 	0.88957 	0.00568135 	3.15284 	0
7.29398 	0.821657 	-0.00099449 	3.17834 	0
7.36411 	0.821657 	-0.00099449 	3.17834 	0
7.43425 	0.821657 	-0.00099449 	3.17834 	0
7.50438 	0.821657 	-0.00099449 	3.17834 	0
7.57451 	0.821657 	-0.00099449 	3.17834 	0
7.64465 	0.821657 	-0.00099449 	3.17834 	0
7.71478 	0.821657 	-0.00099449 	3.17834 	0
7.78492 	0.821657 	-0.00099449 	3.17834 	0
7.85505 	0.821657 	-0.00099449 	3.17834 	0
7.92519 	0.821657 	-0.00099449 	3.17834 	0
7.99532 	0.821657 	-0.00099449 	3.17834 	0
8.06545 	0.821657 	-0.00099449 	3.17834 	0
8.13559 	0.821657 	-0.00099449 	3.17834 	0
8.20572 	0.7545 	0.00876033 	3.19545 	3.81283e-22
8.27586 	0.7545 	0.00876033 	3.19545 	3.81283e-22
8.34599 	0.7545 	0.00876033 	3.19545 	3.81283e-22
8.41613 	0.7545 	0.00876033 	3.19545 	3.81283e-22
8.48626 	0.7545 	0.00876033 	3.19545 	3.81283e-22
8.5564 	0.7545 	0.00876033 	3.19545 	3.81283e-22
8.62653 	0.7545 	0.00876033 	3.19545 	3.81283e-22
8.69666 	0.7545 	0.00876033 	3.19545 	3.81283e-22
8.7668 	0.7545 	0.00876033 	3.19545 	3.81283e-22
8.83693 	0.7545 	0.00876033 	3.19545 	3.81283e-22
8.90707 	0.7545 	0.00876033 	3.19545 	3.81283e-22
8.9772 	0.7545 	0.00876033 	3.19545 	3.81283e-22
9.04734 	0.688111 	0.00483843 	3.22033 	1.74724e-19
9.11747 	0.688111 	0.00483843 	3.22033 	1.74724e-19
9.18761 	0.688111 	0.00483843 	3.22033 	1.74724e-19
9.25774 	0.688111 	0.00483843 	3.22033 	1.74724e-19
9.32787 	0.688111 	0.00483843 	3.22033 	1.74724e-19
9.39801 	0.688111 	0.00483843 	3.22033 	1.74724e-19
9.46814 	0.688111 	0.00483843 	3.22033 	1.74724e-19
9.53828 	0.688111 	0.00483843 	3.22033 	1.74724e-19
9.60841 	0.688111 	0.00483843 	3.22033 	1.74724e-19
9.67855 	0.688111 	0.00483843 	3.22033 	1.74724e-19
9.74868 	0.688111 	0.00483843 	3.22033 	1.74724e-19
9.81881 	0.688111 	0.00483843 	3.22033 	1.74724e-19
9.88895 	0.688111 	0.00483843 	3.22033 	1.74724e-19
9.95908 	0.620817 	0.0203692 	3.2371 	-8.15055e-21
10.0292 	0.620817 	0.0203692 	3.2371 	-8.15055e-21
10.0994 	0.620817 	0.0203692 	3.2371 	-8.15055e-21
10.1695 	0.620817 	0.0203692 	3.2371 	-8.15055e-21
10.2396 	0.620817 	0.0203692 	3.2371 	-8.15055e-21
10.3098 	0.620817 	0.0203692 	3.2371 	-8.15055e-21
10.3799 	0.620817 	0.0203692 	3.2371 	-8.15055e-21
10.45 	0.620817 	0.0203692 	3.2371 	-8.15055e-21
10.5202 	0.620817 	0.0203692 	3.2371 	-8.15055e-21
10.5903 	0.620817 	0.0203692 	3.2371 	-8.15055e-21
10.6604 	0.620817 	0.0203692 	3.2371 	-8.15055e-21
10.7306 	0.620817 	0.0203692 	3.2371 	-8.15055e-21
10.8007 	0.552255 	0.0275232 	3.26244 	-1.64556e-19
10.8708 	0.552255 	0.0275232 	3.26244 	-1.64556e-19
10.941 	0.552255 	0.0275232 	3.26244 	-1.64556e-19
11.0111 	0.552255 	0.0275232 	3.26244 	-1.64556e-19
11.0812 	0.552255 	0.0275232 	3.26244 	-1.64556e-19
11.1514 	0.552255 	0.0275232 	3.26244 	-1.64556e-19
11.2215 	0.552255 	0.0275232 	3.26244 	-1.64556e-19
11.2916 	0.552255 	0.0275232 	3.26244 	-1.64556e-19
11.3618 	0.552255 	0.0275232 	3.26244 	-1.64556e-19
11.4319 	0.552255 	0.0275232 	3.26244 	-1.64556e-19
11.502 	0.552255 	0.0275232 	3.26244 	-1.64556e-19
11.5722 	0.552255 	0.0275232 	3.26244 	-1.64556e-19
11.6423 	0.552255 	0.0275232 	3.26244 	-1.64556e-19
11.7124 	0.476507 	0.0615281 	3.28205 	-2.2251e-19
11.7826 	0.476507 	0.0615281 	3.28205 	-2.2251e-19
11.8527 	0.476507 	0.0615281 	3.28205 	-2.2251e-19
11.9228 	0.476507 	0.0615281 	3.28205 	-2.2251e-19
11.993 	0.476507 	0.0615281 	3.28205 	-2.2251e-19
12.0631 	0.476507 	0.0615281 	3.28205 	-2.2251e-19
12.1332 	0.476507 	0.0615281 	3.28205 	-2.2251e-19
12.2034 	0.476507 	0.0615281 	3.28205 	-2.2251e-19
12.2735 	0.476507 	0.0615281 	3.28205 	-2.2251e-19
12.3437 	0.476507 	0.0615281 	3.28205 	-2.2251e-19
12.4138 	0.476507 	0.0615281 	3.28205 	-2.2251e-19
12.4839 	0.476507 	0.0615281 	3.28205 	-2.2251e-19
12.5541 	0.476507 	0.0615281 	3.28205 	-2.2251e-19
12.6242 	0.387901 	0.0894917 	3.31124 	4.01471e-19
12.6943 	0.387901 	0.0894917 	3.31124 	4.01471e-19
12.7645 	0.387901 	0.0894917 	3.31124 	4.01471e-19
12.8346 	0.387901 	0.0894917 	3.31124 	4.01471e-19
12.9047 	0.387901 	0.0894917 	3.31124 	4.01471e-19
12.9749 	0.387901 	0.0894917 	3.31124 	4.01471e-19
13.045 	0.387901 	0.0894917 	3.31124 	4.01471e-19
13.1151 	0.387901 	0.0894917 	3.31124 	4.01471e-19
13.1853 	0.387901 	0.0894917 	3.31124 	4.01471e-19
13.2554 	0.387901 	0.0894917 	3.31124 	4.01471e-19
13.3255 	0.387901 	0.0894917 	3.31124 	4.01471e-19
13.3957 	0.387901 	0.0894917 	3.31124 	4.01471e-19
13.4658 	0.387901 	0.0894917 	3.31124 	4.01471e-19
13.5359 	0.26826 	0.170493 	3.34861 	-1.77576e-19
13.6061 	0.26826 	0.170493 	3.34861 	-1.77576e-19
13.6762 	0.26826 	0.170493 	3.34861 	-1.77576e-19
13.7463 	0.26826 	0.170493 	3.34861 	-1.77576e-19
13.8165 	0.26826 	0.170493 	3.34861 	-1.77576e-19
13.8866 	0.26826 	0.170493 	3.34861 	-1.77576e-19
13.9567 	0.26826 	0.170493 	3.34861 	-1.77576e-19
14.0269 	0.26826 	0.170493 	3.34861 	-1.77576e-19
14.097 	0.26826 	0.170493 	3.34861 	-1.77576e-19
14.1671 	0.26826 	0.170493 	3.34861 	-1.77576e-19
14.2373 	0.26826 	0.170493 	3.34861 	-1.77576e-19
14.3074 	0.26826 	0.170493 	3.34861 	-1.77576e-19
14.3776 	0.152514 	0.196701 	3.37456 	0
14.4477 	-0.0635413 	0.193079 	3.4363 	-5.15979e-20
14.5178 	-0.0635413 	0.193079 	3.4363 	-5.15979e-20
14.588 	-0.0635413 	0.193079 	3.4363 	-5.15979e-20
14.6581 	-0.0635413 	0.193079 	3.4363 	-5.15979e-20
14.7282 	-0.0635413 	0.193079 	3.4363 	-5.15979e-20
14.7984 	-0.0635413 	0.193079 	3.4363 	-5.15979e-20
14.8685 	-0.0408071 	0.219559 	3.42773 	9.91114e-20
14.9386 	-0.0408071 	0.219559 	3.42773 	9.91114e-20
15.0088 	-0.0408071 	0.219559 	3.42773 	9.91114e-20
15.0789 	-0.0408071 	0.219559 	3.42773 	9.91114e-20
15.149 	-0.0408071 	0.219559 	3.42773 	9.91114e-20
15.2192 	-0.292889 	0.286745 	3.49822 	-4.66908e-19
15.2893 	-0.292889 	0.286745 	3.49822 	-4.66908e-19
15.3594 	-0.292889 	0.286745 	3.49822 	-4.66908e-19
15.4296 	-0.164475 	0.363102 	3.45315 	2.1442e-19
15.4997 	-0.164475 	0.363102 	3.45315 	2.1442e-19
15.5698 	-0.164475 	0.363102 	3.45315 	2.1442e-19
15.64 	-0.164475 	0.363102 	3.45315 	2.1442e-19
15.7101 	-0.164475 	0.363102 	3.45315 	2.1442e-19
15.7802 	-0.164475 	0.363102 	3.45315 	2.1442e-19
15.8504 	-0.164475 	0.363102 	3.45315 	2.1442e-19
15.9205 	-0.441064 	0.362471 	3.55422 	1.02013e-19
15.9906 	-0.441064 	0.362471 	3.55422 	1.02013e-19
16.0608 	-0.441064 	0.362471 	3.55422 	1.02013e-19
16.1309 	-0.220588 	0.453867 	3.46506 	-7.25046e-20
16.201 	-0.220588 	0.453867 	3.46506 	-7.25046e-20
16.2712 	-0.220588 	0.453867 	3.46506 	-7.25046e-20
16.3413 	-0.220588 	0.453867 	3.46506 	-7.25046e-20
16.4114 	-0.220588 	0.453867 	3.46506 	-7.25046e-20
16.4816 	-0.220588 	0.453867 	3.46506 	-7.25046e-20
16.5517 	-0.220588 	0.453867 	3.46506 	-7.25046e-20
16.6219 	-0.425232 	0.558335 	3.54618 	0
16.692 	-0.425232 	0.558335 	3.54618 	0
16.7621 	-0.425232 	0.558335 	3.54618 	0
16.8323 	-0.425232 	0.558335 	3.54618 	0
16.9024 	-0.425232 	0.558335 	3.54618 	0
16.9725 	-0.175962 	0.563233 	3.43999 	-4.4391e-20
17.0427 	-0.175962 	0.563233 	3.43999 	-4.4391e-20
17.1128 	-0.175962 	0.563233 	3.43999 	-4.4391e-20
17.1829 	-0.175962 	0.563233 	3.43999 	-4.4391e-20
17.2531 	-0.343062 	0.659377 	3.5021 	-3.52823e-19
17.3232 	-0.343062 	0.659377 	3.5021 	-3.52823e-19
17.3933 	-0.343062 	0.659377 	3.5021 	-3.52823e-19
17.4635 	-0.343062 	0.659377 	3.5021 	-3.52823e-19
17.5336 	-0.343062 	0.659377 	3.5021 	-3.52823e-19
17.6037 	-0.343062 	0.659377 	3.5021 	-3.52823e-19
17.6739 	-0.343062 	0.659377 	3.5021 	-3.52823e-19
17.744 	-0.343062 	0.659377 	3.5021 	-3.52823e-19
17.8141 	-0.343062 	0.659377 	3.5021 	-3.52823e-19
17.8843 	-0.343062 	0.659377 	3.5021 	-3.52823e-19
17.9544 	-0.251424 	0.678495 	3.4091 	0
18.0245 	-0.251424 	0.678495 	3.4091 	0
18.0947 	-0.251424 	0.678495 	3.4091 	0
18.1648 	-0.251424 	0.678495 	3.4091 	0
18.2349 	-0.251424 	0.678495 	3.4091 	0
18.3051 	-0.251424 	0.678495 	3.4091 	0
18.3752 	-0.251424 	0.678495 	3.4091 	0
18.4453 	-0.251424 	0.678495 	3.4091 	0
18.5155 	-0.251424 	0.678495 	3.4091 	0
18.5856 	-0.358108 	0.776054 	3.45749 	0
18.6557 	-0.358108 	0.776054 	3.45749 	0
18.7259 	-0.358108 	0.776054 	3.45749 	0
18.796 	-0.358108 	0.776054 	3.45749 	0
18.8662 	-0.358108 	0.776054 	3.45749 	0
18.9363 	-0.358108 	0.776054 	3.45749 	0
19.0064 	-0.358108 	0.776054 	3.45749 	0
19.0766 	-0.358108 	0.776054 	3.45749 	0
19.1467 	-0.358108 	0.776054 	3.45749 	0
19.2168 	-0.416728 	0.836144 	3.44542 	2.19342e-19
19.287 	-0.160063 	0.753135 	3.18325 	1.02044e-19
19.3571 	-0.160063 	0.753135 	3.18325 	1.02044e-19
19.4272 	-0.160063 	0.753135 	3.18325 	1.02044e-19
19.4974 	-0.160063 	0.753135 	3.18325 	1.02044e-19
19.5675 	-0.160063 	0.753135 	3.18325 	1.02044e-19
19.6376 	-0.160063 	0.753135 	3.18325 	1.02044e-19
19.7078 	-0.160063 	0.753135 	3.18325 	1.02044e-19
19.7779 	-0.160063 	0.753135 	3.18325 	1.02044e-19
19.848 	-0.160063 	0.753135 	3.18325 	1.02044e-19
19.9182 	-0.213613 	0.828075 	3.27929 	2.08014e-19
19.9883 	-0.213613 	0.828075 	3.27929 	2.08014e-19
20.0584 	-0.213613 	0.828075 	3.27929 	2.08014e-19
20.1286 	-0.213613 	0.828075 	3.27929 	2.08014e-19
20.1987 	-0.213613 	0.828075 	3.27929 	2.08014e-19
20.2688 	-0.213613 	0.828075 	3.27929 	2.08014e-19
20.339 	-0.213613 	0.828075 	3.27929 	2.08014e-19
20.4091 	-0.213613 	0.828075 	3.27929 	2.08014e-19
20.4792 	-0.213613 	0.828075 	3.27929 	2.08014e-19
20.5494 	-0.213613 	0.828075 	3.27929 	2.08014e-19
20.6195 	-0.275515 	0.880796 	3.31743 	1.56085e-19
20.6896 	-0.275515 	0.880796 	3.31743 	1.56085e-19
20.7598 	-0.275515 	0.880796 	3.31743 	1.56085e-19
20.8299 	-0.275515 	0.880796 	3.31743 	1.56085e-19
20.9 	-0.170734 	0.75331 	2.63921 	1.51115e-19
20.9702 	-0.170734 	0.75331 	2.63921 	1.51115e-19
21.0403 	-0.170734 	0.75331 	2.63921 	1.51115e-19
21.1105 	-0.170734 	0.75331 	2.63921 	1.51115e-19
21.1806 	-0.170734 	0.75331 	2.63921 	1.51115e-19
21.2507 	-0.170734 	0.75331 	2.63921 	1.51115e-19
21.3209 	-0.219486 	0.827946 	2.84139 	0
21.391 	-0.219486 	0.827946 	2.84139 	0
21.4611 	-0.219486 	0.827946 	2.84139 	0
21.5313 	-0.219486 	0.827946 	2.84139 	0
21.6014 	-0.219486 	0.827946 	2.84139 	0
21.6715 	-0.219486 	0.827946 	2.84139 	0
21.7417 	-0.219486 	0.827946 	2.84139 	0
21.8118 	-0.219486 	0.827946 	2.84139 	0
21.8819 	-0.219486 	0.827946 	2.84139 	0
21.9521 	-0.219486 	0.827946 	2.84139 	0
22.0222 	-0.219486 	0.827946 	2.84139 	0
22.0923 	-0.265786 	0.883166 	2.98537 	1.88975e-19
22.1625 	-0.265786 	0.883166 	2.98537 	1.88975e-19
22.2326 	-0.265786 	0.883166 	2.98537 	1.88975e-19
22.3027 	-0.265786 	0.883166 	2.98537 	1.88975e-19
22.3729 	-0.265786 	0.883166 	2.98537 	1.88975e-19
22.443 	-0.265786 	0.883166 	2.98537 	1.88975e-19
22.5131 	-0.265786 	0.883166 	2.98537 	1.88975e-19
22.5833 	-0.265786 	0.883166 	2.98537 	1.88975e-19
22.6534 	-0.265786 	0.883166 	2.98537 	1.88975e-19
22.7235 	-0.265786 	0.883166 	2.98537 	1.88975e-19
22.7937 	-0.265786 	0.883166 	2.98537 	1.88975e-19
22.8638 	-0.320897 	0.944223 	3.07169 	-4.90588e-19
22.9339 	-0.320897 	0.944223 	3.07169 	-4.90588e-19
23.0041 	-0.320897 	0.944223 	3.07169 	-4.90588e-19
23.0742 	-0.264707 	0.738256 	2.0656 	-7.60186e-20
23.1443 	-0.264707 	0.738256 	2.0656 	-7.60186e-20
23.2145 	-0.264707 	0.738256 	2.0656 	-7.60186e-20
23.2846 	-0.264707 	0.738256 	2.0656 	-7.60186e-20
23.3548 	-0.264707 	0.738256 	2.0656 	-7.60186e-20
23.4249 	-0.264707 	0.738256 	2.0656 	-7.60186e-20
23.495 	-0.264707 	0.738256 	2.0656 	-7.60186e-20
23.5652 	-0.264707 	0.738256 	2.0656 	-7.60186e-20
23.6353 	-0.264707 	0.738256 	2.0656 	-7.60186e-20
23.7054 	-0.312437 	0.788716 	2.21693 	5.75486e-20
23.7756 	-0.312437 	0.788716 	2.21693 	5.75486e-20
23.8457 	-0.312437 	0.788716 	2.21693 	5.75486e-20
23.9158 	-0.312437 	0.788716 	2.21693 	5.75486e-20
23.986 	-0.312437 	0.788716 	2.21693 	5.75486e-20
24.0561 	-0.312437 	0.788716 	2.21693 	5.75486e-20
24.1262 	-0.312437 	0.788716 	2.21693 	5.75486e-20
24.1964 	-0.312437 	0.788716 	2.21693 	5.75486e-20
24.2665 	-0.312437 	0.788716 	2.21693 	5.75486e-20
24.3366 	-0.312437 	0.788716 	2.21693 	5.75486e-20
24.4068 	-0.312437 	0.788716 	2.21693 	5.75486e-20
24.4769 	-0.312437 	0.788716 	2.21693 	5.75486e-20
24.547 	-0.312437 	0.788716 	2.21693 	5.75486e-20
24.6172 	-0.354024 	0.845011 	2.34108 	-4.91816e-19
24.6873 	-0.354024 	0.845011 	2.34108 	-4.91816e-19
24.7574 	-0.354024 	0.845011 	2.34108 	-4.91816e-19
24.8276 	-0.354024 	0.845011 	2.34108 	-4.91816e-19
24.8977 	-0.354024 	0.845011 	2.34108 	-4.91816e-19
24.9678 	-0.354024 	0.845011 	2.34108 	-4.91816e-19
25.038 	-0.354024 	0.845011 	2.34108 	-4.91816e-19
25.1081 	-0.354024 	0.845011 	2.34108 	-4.91816e-19
25.1782 	-0.354024 	0.845011 	2.34108 	-4.91816e-19
25.2484 	-0.354024 	0.845011 	2.34108 	-4.91816e-19
25.3185 	-0.354024 	0.845011 	2.34108 	-4.91816e-19
25.3886 	-0.354024 	0.845011 	2.34108 	-4.91816e-19
25.4588 	-0.384026 	0.89131 	2.42249 	4.93797e-19
25.5289 	-0.384026 	0.89131 	2.42249 	4.93797e-19
25.5991 	-0.384026 	0.89131 	2.42249 	4.93797e-19
25.6692 	-0.384026 	0.89131 	2.42249 	4.93797e-19
25.7393 	-0.384026 	0.89131 	2.42249 	4.93797e-19
25.8095 	-0.384026 	0.89131 	2.42249 	4.93797e-19
25.8796 	-0.384026 	0.89131 	2.42249 	4.93797e-19
25.9497 	-0.384026 	0.89131 	2.42249 	4.93797e-19
26.0199 	-0.384026 	0.89131 	2.42249 	4.93797e-19
26.09 	-0.363382 	0.643705 	1.59307 	8.72309e-20
26.1601 	-0.363382 	0.643705 	1.59307 	8.72309e-20
26.2303 	-0.363382 	0.643705 	1.59307 	8.72309e-20
26.3004 	-0.363382 	0.643705 	1.59307 	8.72309e-20
26.3705 	-0.363382 	0.643705 	1.59307 	8.72309e-20
26.4407 	-0.397478 	0.657389 	1.63816 	-1.08391e-19
26.5108 	-0.397478 	0.657389 	1.63816 	-1.08391e-19
26.5809 	-0.397478 	0.657389 	1.63816 	-1.08391e-19
26.6511 	-0.397478 	0.657389 	1.63816 	-1.08391e-19
26.7212 	-0.397478 	0.657389 	1.63816 	-1.08391e-19
26.7913 	-0.397478 	0.657389 	1.63816 	-1.08391e-19
26.8615 	-0.397478 	0.657389 	1.63816 	-1.08391e-19
26.9316 	-0.397478 	0.657389 	1.63816 	-1.08391e-19
27.0017 	-0.397478 	0.657389 	1.63816 	-1.08391e-19
27.0719 	-0.397478 	0.657389 	1.63816 	-1.08391e-19
27.142 	-0.397478 	0.657389 	1.63816 	-1.08391e-19
27.2121 	-0.397478 	0.657389 	1.63816 	-1.08391e-19
27.2823 	-0.397478 	0.657389 	1.63816 	-1.08391e-19
27.3524 	-0.427897 	0.656024 	1.65224 	0
27.4225 	-0.427897 	0.656024 	1.65224 	0
27.4927 	-0.427897 	0.656024 	1.65224 	0
27.5628 	-0.427897 	0.656024 	1.65224 	0
27.6329 	-0.427897 	0.656024 	1.65224 	0
27.7031 	-0.427897 	0.656024 	1.65224 	0
27.7732 	-0.427897 	0.656024 	1.65224 	0
27.8434 	-0.427897 	0.656024 	1.65224 	0
27.9135 	-0.427897 	0.656024 	1.65224 	0
27.9836 	-0.427897 	0.656024 	1.65224 	0
28.0538 	-0.427897 	0.656024 	1.65224 	0
28.1239 	-0.427897 	0.656024 	1.65224 	0
28.194 	-0.427897 	0.656024 	1.65224 	0
28.2642 	-0.427897 	0.656024 	1.65224 	0
28.3343 	-0.427897 	0.656024 	1.65224 	0
28.4044 	-0.444469 	0.645795 	1.65506 	0
28.4746 	-0.444469 	0.645795 	1.65506 	0
28.5447 	-0.444469 	0.645795 	1.65506 	0
28.6148 	-0.444469 	0.645795 	1.65506 	0
28.685 	-0.444469 	0.645795 	1.65506 	0
28.7551 	-0.444469 	0.645795 	1.65506 	0
28.8252 	-0.444469 	0.645795 	1.65506 	0
28.8954 	-0.444469 	0.645795 	1.65506 	0
28.9655 	-0.444469 	0.645795 	1.65506 	0
29.0356 	-0.444469 	0.645795 	1.65506 	0
29.1058 	-0.444469 	0.645795 	1.65506 	0
29.1759 	-0.444469 	0.645795 	1.65506 	0
29.246 	-0.444469 	0.645795 	1.65506 	0
29.3162 	-0.444469 	0.645795 	1.65506 	0
29.3863 	-0.444469 	0.645795 	1.65506 	0
29.4564 	-0.436632 	0.622587 	1.62394 	-1.77072e-19
29.5266 	-0.436632 	0.622587 	1.62394 	-1.77072e-19
29.5967 	-0.436632 	0.622587 	1.62394 	-1.77072e-19
29.6668 	-0.436632 	0.622587 	1.62394 	-1.77072e-19
29.737 	-0.436632 	0.622587 	1.62394 	-1.77072e-19
29.8071 	-0.436632 	0.622587 	1.62394 	-1.77072e-19
29.8773 	-0.436632 	0.622587 	1.62394 	-1.77072e-19
29.9474 	-0.436632 	0.622587 	1.62394 	-1.77072e-19
30.0175 	-0.436632 	0.622587 	1.62394 	-1.77072e-19
30.0877 	-0.436632 	0.622587 	1.62394 	-1.77072e-19
30.1578 	-0.436632 	0.622587 	1.62394 	-1.77072e-19
30.2279 	-0.436632 	0.622587 	1.62394 	-1.77072e-19
30.2981 	-0.436632 	0.622587 	1.62394 	-1.77072e-19
30.3682 	-0.436632 	0.622587 	1.62394 	-1.77072e-19
30.4383 	-0.436632 	0.622587 	1.62394 	-1.77072e-19
30.5085 	-0.436632 	0.622587 	1.62394 	-1.77072e-19
30.5786 	-0.401147 	0.572702 	1.56972 	3.15075e-20
30.6487 	-0.401147 	0.572702 	1.56972 	3.15075e-20
30.7189 	-0.401147 	0.572702 	1.56972 	3.15075e-20
30.789 	-0.401147 	0.572702 	1.56972 	3.15075e-20
30.8591 	-0.401147 	0.572702 	1.56972 	3.15075e-20
30.9293 	-0.401147 	0.572702 	1.56972 	3.15075e-20
30.9994 	-0.401147 	0.572702 	1.56972 	3.15075e-20
31.0695 	-0.401147 	0.572702 	1.56972 	3.15075e-20
31.1397 	-0.401147 	0.572702 	1.56972 	3.15075e-20
31.2098 	-0.401147 	0.572702 	1.56972 	3.15075e-20
31.2799 	-0.401147 	0.572702 	1.56972 	3.15075e-20
31.3501 	-0.401147 	0.572702 	1.56972 	3.15075e-20
31.4202 	-0.401147 	0.572702 	1.56972 	3.15075e-20
31.4903 	-0.401147 	0.572702 	1.56972 	3.15075e-20
31.5605 	-0.441637 	0.518971 	1.44227 	-2.67591e-19
31.6306 	-0.441637 	0.518971 	1.44227 	-2.67591e-19
31.7007 	-0.406698 	0.47917 	1.42643 	1.64263e-19
31.7709 	-0.406698 	0.47917 	1.42643 	1.64263e-19
31.841 	-0.406698 	0.47917 	1.42643 	1.64263e-19
31.9111 	-0.406698 	0.47917 	1.42643 	1.64263e-19
31.9813 	-0.406698 	0.47917 	1.42643 	1.64263e-19
32.0514 	-0.406698 	0.47917 	1.42643 	1.64263e-19
32.1216 	-0.406698 	0.47917 	1.42643 	1.64263e-19
32.1917 	-0.406698 	0.47917 	1.42643 	1.64263e-19
32.2618 	-0.406698 	0.47917 	1.42643 	1.64263e-19
32.332 	-0.406698 	0.47917 	1.42643 	1.64263e-19
32.4021 	-0.406698 	0.47917 	1.42643 	1.64263e-19
32.4722 	-0.406698 	0.47917 	1.42643 	1.64263e-19
32.5424 	-0.406698 	0.47917 	1.42643 	1.64263e-19
32.6125 	-0.406698 	0.47917 	1.42643 	1.64263e-19
32.6826 	-0.406698 	0.47917 	1.42643 	1.64263e-19
32.7528 	-0.406698 	0.47917 	1.42643 	1.64263e-19
32.8229 	-0.406698 	0.47917 	1.42643 	1.64263e-19
32.893 	-0.406698 	0.47917 	1.42643 	1.64263e-19
32.9632 	-0.366923 	0.427225 	1.40158 	4.22632e-20
33.0333 	-0.366923 	0.427225 	1.40158 	4.22632e-20
33.1034 	-0.366923 	0.427225 	1.40158 	4.22632e-20
33.1736 	-0.366923 	0.427225 	1.40158 	4.22632e-20
33.2437 	-0.366923 	0.427225 	1.40158 	4.22632e-20
33.3138 	-0.366923 	0.427225 	1.40158 	4.22632e-20
33.384 	-0.366923 	0.427225 	1.40158 	4.22632e-20
33.4541 	-0.366923 	0.427225 	1.40158 	4.22632e-20
33.5242 	-0.366923 	0.427225 	1.40158 	4.22632e-20
33.5944 	-0.366923 	0.427225 	1.40158 	4.22632e-20
33.6645 	-0.366923 	0.427225 	1.40158 	4.22632e-20
33.7346 	-0.366923 	0.427225 	1.40158 	4.22632e-20
33.8048 	-0.366923 	0.427225 	1.40158 	4.22632e-20
33.8749 	-0.366923 	0.427225 	1.40158 	4.22632e-20
33.945 	-0.366923 	0.427225 	1.40158 	4.22632e-20
34.0152 	-0.366923 	0.427225 	1.40158 	4.22632e-20
34.0853 	-0.366923 	0.427225 	1.40158 	4.22632e-20
34.1554 	-0.366923 	0.427225 	1.40158 	4.22632e-20
34.2256 	-0.34018 	0.344697 	1.39774 	-2.40099e-20
34.2957 	-0.34018 	0.344697 	1.39774 	-2.40099e-20
34.3659 	-0.34018 	0.344697 	1.39774 	-2.40099e-20
34.436 	-0.34018 	0.344697 	1.39774 	-2.40099e-20
34.5061 	-0.34018 	0.344697 	1.39774 	-2.40099e-20
34.5763 	-0.34018 	0.344697 	1.39774 	-2.40099e-20
34.6464 	-0.34018 	0.344697 	1.39774 	-2.40099e-20
34.7165 	-0.34018 	0.344697 	1.39774 	-2.40099e-20
34.7867 	-0.34018 	0.344697 	1.39774 	-2.40099e-20
34.8568 	-0.34018 	0.344697 	1.39774 	-2.40099e-20
34.9269 	-0.34018 	0.344697 	1.39774 	-2.40099e-20
34.9971 	-0.34018 	0.344697 	1.39774 	-2.40099e-20
35.0672 	-0.34018 	0.344697 	1.39774 	-2.40099e-20
35.1373 	-0.34018 	0.344697 	1.39774 	-2.40099e-20
35.2075 	-0.34018 	0.344697 	1.39774 	-2.40099e-20
35.2776 	-0.34018 	0.344697 	1.39774 	-2.40099e-20
35.3477 	-0.34018 	0.344697 	1.39774 	-2.40099e-20
35.4179 	-0.34018 	0.344697 	1.39774 	-2.40099e-20
35.488 	-0.34018 	0.344697 	1.39774 	-2.40099e-20
35.5581 	-0.34018 	0.344697 	1.39774 	-2.40099e-20
35.6283 	-0.335958 	0.254656 	1.42287 	-7.8987e-21
35.6984 	-0.335958 	0.254656 	1.42287 	-7.8987e-21
35.7685 	-0.335958 	0.254656 	1.42287 	-7.8987e-21
35.8387 	-0.335958 	0.254656 	1.42287 	-7.8987e-21
35.9088 	-0.335958 	0.254656 	1.42287 	-7.8987e-21
35.9789 	-0.335958 	0.254656 	1.42287 	-7.8987e-21
36.0491 	-0.335958 	0.254656 	1.42287 	-7.8987e-21
36.1192 	-0.335958 	0.254656 	1.42287 	-7.8987e-21
36.1893 	-0.335958 	0.254656 	1.42287 	-7.8987e-21
36.2595 	-0.335958 	0.254656 	1.42287 	-7.8987e-21
36.3296 	-0.335958 	0.254656 	1.42287 	-7.8987e-21
36.3997 	-0.335958 	0.254656 	1.42287 	-7.8987e-21
36.4699 	-0.335958 	0.254656 	1.42287 	-7.8987e-21
36.54 	-0.335958 	0.254656 	1.42287 	-7.8987e-21
36.6102 	-0.335958 	0.254656 	1.42287 	-7.8987e-21
36.6803 	-0.335958 	0.254656 	1.42287 	-7.8987e-21
36.7504 	-0.335958 	0.254656 	1.42287 	-7.8987e-21
36.8206 	-0.335958 	0.254656 	1.42287 	-7.8987e-21
36.8907 	-0.335958 	0.254656 	1.42287 	-7.8987e-21
36.9608 	-0.335958 	0.254656 	1.42287 	-7.8987e-21
37.031 	-0.335958 	0.254656 	1.42287 	-7.8987e-21
37.1011 	-0.342233 	0.195384 	1.45202 	0
37.1712 	-0.342233 	0.195384 	1.45202 	0
37.2414 	-0.342233 	0.195384 	1.45202 	0
37.3115 	-0.342233 	0.195384 	1.45202 	0
37.3816 	-0.342233 	0.195384 	1.45202 	0
37.4518 	-0.342233 	0.195384 	1.45202 	0
37.5219 	-0.342233 	0.195384 	1.45202 	0
37.592 	-0.342233 	0.195384 	1.45202 	0
37.6622 	-0.342233 	0.195384 	1.45202 	0
37.7323 	-0.342233 	0.195384 	1.45202 	0
37.8024 	-0.342233 	0.195384 	1.45202 	0
37.8726 	-0.342233 	0.195384 	1.45202 	0
37.9427 	-0.342233 	0.195384 	1.45202 	0
38.0128 	-0.342233 	0.195384 	1.45202 	0
38.083 	-0.342233 	0.195384 	1.45202 	0
38.1531 	-0.342233 	0.195384 	1.45202 	0
38.2232 	-0.342233 	0.195384 	1.45202 	0
38.2934 	-0.349396 	0.169213 	1.47542 	0
38.3635 	-0.349396 	0.169213 	1.47542 	0
38.4336 	-0.349396 	0.169213 	1.47542 	0
38.5038 	-0.349396 	0.169213 	1.47542 	0
38.5739 	-0.349396 	0.169213 	1.47542 	0
38.644 	-0.349396 	0.169213 	1.47542 	0
38.7142 	-0.349396 	0.169213 	1.47542 	0
38.7843 	-0.349396 	0.169213 	1.47542 	0
38.8545 	-0.349396 	0.169213 	1.47542 	0
38.9246 	-0.349396 	0.169213 	1.47542 	0
38.9947 	-0.349396 	0.169213 	1.47542 	0
39.0649 	-0.349396 	0.169213 	1.47542 	0
39.135 	-0.349396 	0.169213 	1.47542 	0
39.2051 	-0.349396 	0.169213 	1.47542 	0
39.2753 	-0.349396 	0.169213 	1.47542 	0
39.3454 	-0.349396 	0.169213 	1.47542 	0
39.4155 	-0.349396 	0.169213 	1.47542 	0
39.4857 	-0.349396 	0.169213 	1.47542 	0
39.5558 	-0.354356 	0.169114 	1.4918 	0
39.6259 	-0.354356 	0.169114 	1.4918 	0
39.6961 	-0.354356 	0.169114 	1.4918 	0
39.7662 	-0.354356 	0.169114 	1.4918 	0
39.8363 	-0.354356 	0.169114 	1.4918 	0
39.9065 	-0.354356 	0.169114 	1.4918 	0
39.9766 	-0.354356 	0.169114 	1.4918 	0
40.0467 	-0.354356 	0.169114 	1.4918 	0
40.1169 	-0.354356 	0.169114 	1.4918 	0
40.187 	-0.354356 	0.169114 	1.4918 	0
40.2571 	-0.354356 	0.169114 	1.4918 	0
40.3273 	-0.354356 	0.169114 	1.4918 	0
40.3974 	-0.354356 	0.169114 	1.4918 	0
40.4675 	-0.354356 	0.169114 	1.4918 	0
40.5377 	-0.354356 	0.169114 	1.4918 	0
40.6078 	-0.354356 	0.169114 	1.4918 	0
40.6779 	-0.354356 	0.169114 	1.4918 	0
40.7481 	-0.362593 	0.184752 	1.49632 	0
40.8182 	-0.362593 	0.184752 	1.49632 	0
40.8883 	-0.362593 	0.184752 	1.49632 	0
40.9585 	-0.362593 	0.184752 	1.49632 	0
41.0286 	-0.362593 	0.184752 	1.49632 	0
41.0988 	-0.362593 	0.184752 	1.49632 	0
41.1689 	-0.362593 	0.184752 	1.49632 	0
41.239 	-0.362593 	0.184752 	1.49632 	0
41.3092 	-0.362593 	0.184752 	1.49632 	0
41.3793 	-0.362593 	0.184752 	1.49632 	0
41.4494 	-0.362593 	0.184752 	1.49632 	0
41.5196 	-0.362593 	0.184752 	1.49632 	0
41.5897 	-0.362593 	0.184752 	1.49632 	0
41.6598 	-0.362593 	0.184752 	1.49632 	0
41.73 	-0.362593 	0.184752 	1.49632 	0
41.8001 	-0.362593 	0.184752 	1.49632 	0
41.8702 	-0.362593 	0.184752 	1.49632 	0
41.9404 	-0.362593 	0.184752 	1.49632 	0
42.0105 	-0.3832 	0.242038 	1.48534 	0
42.0806 	-0.3832 	0.242038 	1.48534 	0
42.1508 	-0.3832 	0.242038 	1.48534 	0
42.2209 	-0.3832 	0.242038 	1.48534 	0
42.291 	-0.3832 	0.242038 	1.48534 	0
42.3612 	-0.3832 	0.242038 	1.48534 	0
42.4313 	-0.3832 	0.242038 	1.48534 	0
42.5014 	-0.3832 	0.242038 	1.48534 	0
42.5716 	-0.3832 	0.242038 	1.48534 	0
42.6417 	-0.3832 	0.242038 	1.48534 	0
42.7118 	-0.3832 	0.242038 	1.48534 	0
42.782 	-0.3832 	0.242038 	1.48534 	0
42.8521 	-0.3832 	0.242038 	1.48534 	0
42.9222 	-0.3832 	0.242038 	1.48534 	0
42.9924 	-0.3832 	0.242038 	1.48534 	0
43.0625 	-0.3832 	0.242038 	1.48534 	0
43.1327 	-0.3832 	0.242038 	1.48534 	0
43.2028 	-0.420379 	0.342844 	1.45244 	0
43.2729 	-0.420379 	0.342844 	1.45244 	0
43.3431 	-0.420379 	0.342844 	1.45244 	0
43.4132 	-0.420379 	0.342844 	1.45244 	0
43.4833 	-0.420379 	0.342844 	1.45244 	0
43.5535 	-0.420379 	0.342844 	1.45244 	0
43.6236 	-0.420379 	0.342844 	1.45244 	0
43.6937 	-0.420379 	0.342844 	1.45244 	0
43.7639 	-0.420379 	0.342844 	1.45244 	0
43.834 	-0.420379 	0.342844 	1.45244 	0
43.9041 	-0.420379 	0.342844 	1.45244 	0
43.9743 	-0.420379 	0.342844 	1.45244 	0
44.0444 	-0.420379 	0.342844 	1.45244 	0
44.1145 	-0.420379 	0.342844 	1.45244 	0
44.1847 	-0.420379 	0.342844 	1.45244 	0
44.2548 	-0.420379 	0.342844 	1.45244 	0
44.3249 	-0.420379 	0.342844 	1.45244 	0
44.3951 	-0.420379 	0.342844 	1.45244 	0