0.490941 	1.12323 	0.00610324 	3.00275 	0
0.561075 	1.12323 	0.00610324 	3.00275 	0
0.63121 	1.12323 	0.00610324 	3.00275 	0
0.701344 	1.12323 	0.00610324 	3.00275 	0
0.771478 	1.12323 	0.00610324 	3.00275 	0
0.841613 	1.12323 	0.00610324 	3.00275 	0
0.911747 	1.12323 	0.00610324 	3.00275 	0
0.981881 	1.12323 	0.00610324 	3.00275 	0
1.05202 	1.12323 	0.00610324 	3.00275 	0
1.12215 	1.12323 	0.00610324 	3.00275 	0
1.19228 	1.12323 	0.00610324 	3.00275 	0
1.26242 	1.0971 	0.011492 	3.0081 	0
1.33255 	1.0971 	0.011492 	3.0081 	0
1.40269 	1.0971 	0.011492 	3.0081 	0
1.47282 	1.0971 	0.011492 	3.0081 	0
1.54296 	1.0971 	0.011492 	3.0081 	0
1.61309 	1.0971 	0.011492 	3.0081 	0
1.68323 	1.0971 	0.011492 	3.0081 	0
1.75336 	1.0971 	0.011492 	3.0081 	0
1.82349 	1.04727 	0.0149252 	3.02364 	4.01692e-19
1.89363 	1.04727 	0.0149252 	3.02364 	4.01692e-19
1.96376 	1.04727 	0.0149252 	3.02364 	4.01692e-19
2.0339 	1.04727 	0.0149252 	3.02364 	4.01692e-19
2.10403 	1.04727 	0.0149252 	3.02364 	4.01692e-19
2.17417 	1.04727 	0.0149252 	3.02364 	4.01692e-19
2.2443 	1.04727 	0.0149252 	3.02364 	4.01692e-19
2.31443 	1.04727 	0.0149252 	3.02364 	4.01692e-19
2.38457 	1.04727 	0.0149252 	3.02364 	4.01692e-19
2.4547 	1.04727 	0.0149252 	3.02364 	4.01692e-19
2.52484 	1.04727 	0.0149252 	3.02364 	4.01692e-19
2.59497 	1.01253 	0.00743 	3.03692 	-6.3648e-19
2.66511 	1.01253 	0.00743 	3.03692 	-6.3648e-19
2.73524 	1.01253 	0.00743 	3.03692 	-6.3648e-19
2.80538 	1.01253 	0.00743 	3.03692 	-6.3648e-19
2.87551 	1.01253 	0.00743 	3.03692 	-6.3648e-19
2.94564 	1.01253 	0.00743 	3.03692 	-6.3648e-19
3.01578 	1.01253 	0.00743 	3.03692 	-6.3648e-19
3.08591 	1.01253 	0.00743 	3.03692 	-6.3648e-19
3.15605 	1.01253 	0.00743 	3.03692 	-6.3648e-19
3.22618 	1.01253 	0.00743 	3.03692 	-6.3648e-19
3.29632 	0.98017 	0.0201913 	3.04333 	6.42014e-19
3.36645 	0.98017 	0.0201913 	3.04333 	6.42014e-19
3.43659 	0.98017 	0.0201913 	3.04333 	6.42014e-19
3.50672 	0.98017 	0.0201913 	3.04333 	6.42014e-19
3.57685 	0.98017 	0.0201913 	3.04333 	6.42014e-19
3.64699 	0.98017 	0.0201913 	3.04333 	6.42014e-19
3.71712 	0.98017 	0.0201913 	3.04333 	6.42014e-19
3.78726 	0.98017 	0.0201913 	3.04333 	6.42014e-19
3.85739 	0.98017 	0.0201913 	3.04333 	6.42014e-19
3.92753 	0.98017 	0.0201913 	3.04333 	6.42014e-19
3.99766 	0.98017 	0.0201913 	3.04333 	6.42014e-19
4.06779 	0.962055 	0.0036427 	3.05027 	-1.80519e-20
4.13793 	0.962055 	0.0036427 	3.05027 	-1.80519e-20
4.20806 	0.962055 	0.0036427 	3.05027 	-1.80519e-20
4.2782 	0.962055 	0.0036427 	3.05027 	-1.80519e-20
4.34833 	0.962055 	0.0036427 	3.05027 	-1.80519e-20
4.41847 	0.962055 	0.0036427 	3.05027 	-1.80519e-20
4.4886 	0.937167 	0.0166292 	3.05775 	0
4.55874 	0.937167 	0.0166292 	3.05775 	0
4.62887 	0.937167 	0.0166292 	3.05775 	0
4.699 	0.937167 	0.0166292 	3.05775 	0
4.76914 	0.937167 	0.0166292 	3.05775 	0
4.83927 	0.937167 	0.0166292 	3.05775 	0
4.90941 	0.937167 	0.0166292 	3.05775 	0
4.97954 	0.937167 	0.0166292 	3.05775 	0
5.04968 	0.937167 	0.0166292 	3.05775 	0
5.11981 	0.937167 	0.0166292 	3.05775 	0
5.18994 	0.914787 	0.00558252 	3.06472 	-8.52482e-21
5.26008 	0.914787 	0.00558252 	3.06472 	-8.52482e-21
5.33021 	0.914787 	0.00558252 	3.06472 	-8.52482e-21
5.40035 	0.914787 	0.00558252 	3.06472 	-8.52482e-21
5.47048 	0.914787 	0.00558252 	3.06472 	-8.52482e-21
5.54062 	0.914787 	0.00558252 	3.06472 	-8.52482e-21
5.61075 	0.914787 	0.00558252 	3.06472 	-8.52482e-21
5.68089 	0.885942 	0.0113963 	3.07447 	0
5.75102 	0.885942 	0.0113963 	3.07447 	0
5.82115 	0.885942 	0.0113963 	3.07447 	0
5.89129 	0.885942 	0.0113963 	3.07447 	0
5.96142 	0.885942 	0.0113963 	3.07447 	0
6.03156 	0.885942 	0.0113963 	3.07447 	0
6.10169 	0.885942 	0.0113963 	3.07447 	0
6.17183 	0.885942 	0.0113963 	3.07447 	0
6.24196 	0.885942 	0.0113963 	3.07447 	0
6.3121 	0.857395 	0.00712944 	3.08229 	0
6.38223 	0.857395 	0.00712944 	3.08229 	0
6.45236 	0.857395 	0.00712944 	3.08229 	0
6.5225 	0.857395 	0.00712944 	3.08229 	0
6.59263 	0.857395 	0.00712944 	3.08229 	0
6.66277 	0.857395 	0.00712944 	3.08229 	0
6.7329 	0.857395 	0.00712944 	3.08229 	0
6.80304 	0.857395 	0.00712944 	3.08229 	0
6.87317 	0.831215 	0.00621755 	3.09096 	2.85084e-19
6.9433 	0.831215 	0.00621755 	3.09096 	2.85084e-19
7.01344 	0.831215 	0.00621755 	3.09096 	2.85084e-19
7.08357 	0.831215 	0.00621755 	3.09096 	2.85084e-19
7.15371 	0.831215 	0.00621755 	3.09096 	2.85084e-19
7.22384 	0.831215 	0.00621755 	3.09096 	2.85084e-19
7.29398 	0.831215 	0.00621755 	3.09096 	2.85084e-19
7.36411 	0.831215 	0.00621755 	3.09096 	2.85084e-19
7.43425 	0.831215 	0.00621755 	3.09096 	2.85084e-19
7.50438 	0.799519 	0.00856821 	3.10026 	-2.12056e-18
7.57451 	0.799519 	0.00856821 	3.10026 	-2.12056e-18
7.64465 	0.799519 	0.00856821 	3.10026 	-2.12056e-18
7.71478 	0.799519 	0.00856821 	3.10026 	-2.12056e-18
7.78492 	0.799519 	0.00856821 	3.10026 	-2.12056e-18
7.85505 	0.799519 	0.00856821 	3.10026 	-2.12056e-18
7.92519 	0.799519 	0.00856821 	3.10026 	-2.12056e-18
7.99532 	0.799519 	0.00856821 	3.10026 	-2.12056e-18
8.06545 	0.781195 	0.00221456 	3.105 	2.09519e-18
8.13559 	0.781195 	0.00221456 	3.105 	2.09519e-18
8.20572 	0.781195 	0.00221456 	3.105 	2.09519e-18
8.27586 	0.781195 	0.00221456 	3.105 	2.09519e-18
8.34599 	0.781195 	0.00221456 	3.105 	2.09519e-18
8.41613 	0.781195 	0.00221456 	3.105 	2.09519e-18
8.48626 	0.781195 	0.00221456 	3.105 	2.09519e-18
8.5564 	0.781195 	0.00221456 	3.105 	2.09519e-18
8.62653 	0.781195 	0.00221456 	3.105 	2.09519e-18
8.69666 	0.747984 	0.0130992 	3.11903 	1.92288e-18
8.7668 	0.747984 	0.0130992 	3.11903 	1.92288e-18
8.83693 	0.747984 	0.0130992 	3.11903 	1.92288e-18
8.90707 	0.747984 	0.0130992 	3.11903 	1.92288e-18
8.9772 	0.747984 	0.0130992 	3.11903 	1.92288e-18
9.04734 	0.747984 	0.0130992 	3.11903 	1.92288e-18
9.11747 	0.747984 	0.0130992 	3.11903 	1.92288e-18
9.18761 	0.747984 	0.0130992 	3.11903 	1.92288e-18
9.25774 	0.717196 	0.0021724 	3.11916 	-1.77273e-18
9.32787 	0.717196 	0.0021724 	3.11916 	-1.77273e-18
9.39801 	0.717196 	0.0021724 	3.11916 	-1.77273e-18
9.46814 	0.717196 	0.0021724 	3.11916 	-1.77273e-18
9.53828 	0.717196 	0.0021724 	3.11916 	-1.77273e-18
9.60841 	0.717196 	0.0021724 	3.11916 	-1.77273e-18
9.67855 	0.717196 	0.0021724 	3.11916 	-1.77273e-18
9.74868 	0.717196 	0.0021724 	3.11916 	-1.77273e-18
9.81881 	0.701056 	0.0165989 	3.1298 	-5.43207e-19
9.88895 	0.701056 	0.0165989 	3.1298 	-5.43207e-19
9.95908 	0.701056 	0.0165989 	3.1298 	-5.43207e-19
10.0292 	0.701056 	0.0165989 	3.1298 	-5.43207e-19
10.0994 	0.701056 	0.0165989 	3.1298 	-5.43207e-19
10.1695 	0.701056 	0.0165989 	3.1298 	-5.43207e-19
10.2396 	0.701056 	0.0165989 	3.1298 	-5.43207e-19
10.3098 	0.701056 	0.0165989 	3.1298 	-5.43207e-19
10.3799 	0.701056 	0.0165989 	3.1298 	-5.43207e-19
10.45 	0.701056 	0.0165989 	3.1298 	-5.43207e-19
10.5202 	0.701056 	0.0165989 	3.1298 	-5.43207e-19
10.5903 	0.701056 	0.0165989 	3.1298 	-5.43207e-19
10.6604 	0.722319 	0.0153223 	3.12584 	7.99508e-19
10.7306 	0.67035 	0.0351784 	3.13973 	0
10.8007 	0.67035 	0.0351784 	3.13973 	0
10.8708 	0.67035 	0.0351784 	3.13973 	0
10.941 	0.67035 	0.0351784 	3.13973 	0
11.0111 	0.67035 	0.0351784 	3.13973 	0
11.0812 	0.67035 	0.0351784 	3.13973 	0
11.1514 	0.67035 	0.0351784 	3.13973 	0
11.2215 	0.67035 	0.0351784 	3.13973 	0
11.2916 	0.67035 	0.0351784 	3.13973 	0
11.3618 	0.67035 	0.0351784 	3.13973 	0
11.4319 	0.67035 	0.0351784 	3.13973 	0
11.502 	0.67035 	0.0351784 	3.13973 	0
11.5722 	0.67035 	0.0351784 	3.13973 	0
11.6423 	0.67035 	0.0351784 	3.13973 	0
11.7124 	0.677604 	0.0224444 	3.12964 	0
11.7826 	0.618295 	0.0745258 	3.15995 	9.01607e-19
11.8527 	0.618295 	0.0745258 	3.15995 	9.01607e-19
11.9228 	0.618295 	0.0745258 	3.15995 	9.01607e-19
11.993 	0.618295 	0.0745258 	3.15995 	9.01607e-19
12.0631 	0.618295 	0.0745258 	3.15995 	9.01607e-19
12.1332 	0.618295 	0.0745258 	3.15995 	9.01607e-19
12.2034 	0.524055 	0.0671684 	3.18534 	-4.44802e-19
12.2735 	0.524055 	0.0671684 	3.18534 	-4.44802e-19
12.3437 	0.524055 	0.0671684 	3.18534 	-4.44802e-19
12.4138 	0.524055 	0.0671684 	3.18534 	-4.44802e-19
12.4839 	0.524055 	0.0671684 	3.18534 	-4.44802e-19
12.5541 	0.524055 	0.0671684 	3.18534 	-4.44802e-19
12.6242 	0.524055 	0.0671684 	3.18534 	-4.44802e-19
12.6943 	0.524055 	0.0671684 	3.18534 	-4.44802e-19
12.7645 	0.524055 	0.0671684 	3.18534 	-4.44802e-19
12.8346 	0.411974 	0.0341372 	3.1772 	4.08775e-19
12.9047 	0.399094 	0.133389 	3.22016 	-1.98074e-19
12.9749 	0.399094 	0.133389 	3.22016 	-1.98074e-19
13.045 	0.399094 	0.133389 	3.22016 	-1.98074e-19
13.1151 	0.399094 	0.133389 	3.22016 	-1.98074e-19
13.1853 	0.399094 	0.133389 	3.22016 	-1.98074e-19
13.2554 	0.399094 	0.133389 	3.22016 	-1.98074e-19
13.3255 	0.399094 	0.133389 	3.22016 	-1.98074e-19
13.3957 	0.622637 	0.138308 	3.1924 	1.39636e-18
13.4658 	0.622637 	0.138308 	3.1924 	1.39636e-18
13.5359 	0.622637 	0.138308 	3.1924 	1.39636e-18
13.6061 	0.622637 	0.138308 	3.1924 	1.39636e-18
13.6762 	0.622637 	0.138308 	3.1924 	1.39636e-18
13.7463 	0.622637 	0.138308 	3.1924 	1.39636e-18
13.8165 	0.700512 	0.105778 	2.86482 	-1.15662e-18
13.8866 	0.916921 	0.129506 	2.95879 	5.31775e-19
13.9567 	0.916921 	0.129506 	2.95879 	5.31775e-19
14.0269 	0.336065 	0.240074 	3.03119 	-1.77704e-18
14.097 	0.336065 	0.240074 	3.03119 	-1.77704e-18
14.1671 	0.336065 	0.240074 	3.03119 	-1.77704e-18
14.2373 	0.336065 	0.240074 	3.03119 	-1.77704e-18
14.3074 	0.336065 	0.240074 	3.03119 	-1.77704e-18
14.3776 	0.336065 	0.240074 	3.03119 	-1.77704e-18
14.4477 	0.336065 	0.240074 	3.03119 	-1.77704e-18
14.5178 	0.336065 	0.240074 	3.03119 	-1.77704e-18
14.588 	0.336065 	0.240074 	3.03119 	-1.77704e-18
14.6581 	0.336065 	0.240074 	3.03119 	-1.77704e-18
14.7282 	0.336065 	0.240074 	3.03119 	-1.77704e-18
14.7984 	0.336065 	0.240074 	3.03119 	-1.77704e-18
14.8685 	0.336065 	0.240074 	3.03119 	-1.77704e-18
14.9386 	0.163386 	0.33354 	3.18941 	0
15.0088 	0.163386 	0.33354 	3.18941 	0
15.0789 	0.163386 	0.33354 	3.18941 	0
15.149 	0.163386 	0.33354 	3.18941 	0
15.2192 	0.163386 	0.33354 	3.18941 	0
15.2893 	-0.342515 	0.33599 	3.4144 	-2.14904e-19
15.3594 	-0.342515 	0.33599 	3.4144 	-2.14904e-19
15.4296 	-0.342515 	0.33599 	3.4144 	-2.14904e-19
15.4997 	-0.342515 	0.33599 	3.4144 	-2.14904e-19
15.5698 	-0.342515 	0.33599 	3.4144 	-2.14904e-19
15.64 	-0.342515 	0.33599 	3.4144 	-2.14904e-19
15.7101 	-0.831469 	0.391058 	3.48437 	0
15.7802 	-0.831469 	0.391058 	3.48437 	0
15.8504 	-0.721666 	0.641882 	3.53983 	1.26227e-18
15.9205 	-0.721666 	0.641882 	3.53983 	1.26227e-18
15.9906 	-0.721666 	0.641882 	3.53983 	1.26227e-18
16.0608 	-0.721666 	0.641882 	3.53983 	1.26227e-18
16.1309 	-0.721666 	0.641882 	3.53983 	1.26227e-18
16.201 	-0.721666 	0.641882 	3.53983 	1.26227e-18
16.2712 	-0.721666 	0.641882 	3.53983 	1.26227e-18
16.3413 	-0.721666 	0.641882 	3.53983 	1.26227e-18
16.4114 	-0.721666 	0.641882 	3.53983 	1.26227e-18
16.4816 	-0.721666 	0.641882 	3.53983 	1.26227e-18
16.5517 	-0.721666 	0.641882 	3.53983 	1.26227e-18
16.6219 	-0.721666 	0.641882 	3.53983 	1.26227e-18
16.692 	-0.721666 	0.641882 	3.53983 	1.26227e-18
16.7621 	-0.721666 	0.641882 	3.53983 	1.26227e-18
16.8323 	-0.266831 	0.863542 	3.10842 	7.17e-20
16.9024 	-0.266831 	0.863542 	3.10842 	7.17e-20
16.9725 	-0.266831 	0.863542 	3.10842 	7.17e-20
17.0427 	-0.266831 	0.863542 	3.10842 	7.17e-20
17.1128 	-0.266831 	0.863542 	3.10842 	7.17e-20
17.1829 	-0.266831 	0.863542 	3.10842 	7.17e-20
17.2531 	-0.266831 	0.863542 	3.10842 	7.17e-20
17.3232 	-0.266831 	0.863542 	3.10842 	7.17e-20
17.3933 	-0.266831 	0.863542 	3.10842 	7.17e-20
17.4635 	-0.266831 	0.863542 	3.10842 	7.17e-20
17.5336 	-0.169033 	0.907921 	3.0246 	-3.23254e-20
17.6037 	-0.169033 	0.907921 	3.0246 	-3.23254e-20
17.6739 	-0.169033 	0.907921 	3.0246 	-3.23254e-20
17.744 	-0.259914 	1.03676 	3.15423 	1.28892e-19
17.8141 	-0.259914 	1.03676 	3.15423 	1.28892e-19
17.8843 	-0.259914 	1.03676 	3.15423 	1.28892e-19
17.9544 	-0.259914 	1.03676 	3.15423 	1.28892e-19
18.0245 	-0.259914 	1.03676 	3.15423 	1.28892e-19
18.0947 	-0.259914 	1.03676 	3.15423 	1.28892e-19
18.1648 	-0.259914 	1.03676 	3.15423 	1.28892e-19
18.2349 	-0.259914 	1.03676 	3.15423 	1.28892e-19
18.3051 	-0.259914 	1.03676 	3.15423 	1.28892e-19
18.3752 	0.0277442 	1.00057 	2.75338 	-9.80255e-20
18.4453 	0.0277442 	1.00057 	2.75338 	-9.80255e-20
18.5155 	0.0277442 	1.00057 	2.75338 	-9.80255e-20
18.5856 	0.0277442 	1.00057 	2.75338 	-9.80255e-20
18.6557 	0.0277442 	1.00057 	2.75338 	-9.80255e-20
18.7259 	0.0277442 	1.00057 	2.75338 	-9.80255e-20
18.796 	0.0277442 	1.00057 	2.75338 	-9.80255e-20
18.8662 	0.0861191 	1.04138 	2.81438 	-1.65148e-19
18.9363 	0.0861191 	1.04138 	2.81438 	-1.65148e-19
19.0064 	0.0861191 	1.04138 	2.81438 	-1.65148e-19
19.0766 	0.0861191 	1.04138 	2.81438 	-1.65148e-19
19.1467 	0.0861191 	1.04138 	2.81438 	-1.65148e-19
19.2168 	0.0861191 	1.04138 	2.81438 	-1.65148e-19
19.287 	0.0861191 	1.04138 	2.81438 	-1.65148e-19
19.3571 	0.0861191 	1.04138 	2.81438 	-1.65148e-19
19.4272 	0.0861191 	1.04138 	2.81438 	-1.65148e-19
19.4974 	0.0861191 	1.04138 	2.81438 	-1.65148e-19
19.5675 	0.0861191 	1.04138 	2.81438 	-1.65148e-19
19.6376 	0.0861191 	1.04138 	2.81438 	-1.65148e-19
19.7078 	0.0861191 	1.04138 	2.81438 	-1.65148e-19
19.7779 	0.231116 	0.986845 	2.43722 	-1.12905e-19
19.848 	0.231116 	0.986845 	2.43722 	-1.12905e-19
19.9182 	0.231116 	0.986845 	2.43722 	-1.12905e-19
19.9883 	0.231116 	0.986845 	2.43722 	-1.12905e-19
20.0584 	0.231116 	0.986845 	2.43722 	-1.12905e-19
20.1286 	0.231116 	0.986845 	2.43722 	-1.12905e-19
20.1987 	0.231116 	0.986845 	2.43722 	-1.12905e-19
20.2688 	0.224641 	0.993721 	2.43022 	2.96327e-19
20.339 	0.224641 	0.993721 	2.43022 	2.96327e-19
20.4091 	0.224641 	0.993721 	2.43022 	2.96327e-19
20.4792 	0.224641 	0.993721 	2.43022 	2.96327e-19
20.5494 	0.224641 	0.993721 	2.43022 	2.96327e-19
20.6195 	0.224641 	0.993721 	2.43022 	2.96327e-19
20.6896 	0.224641 	0.993721 	2.43022 	2.96327e-19
20.7598 	0.224641 	0.993721 	2.43022 	2.96327e-19
20.8299 	0.224641 	0.993721 	2.43022 	2.96327e-19
20.9 	0.224641 	0.993721 	2.43022 	2.96327e-19
20.9702 	0.224641 	0.993721 	2.43022 	2.96327e-19
21.0403 	0.224641 	0.993721 	2.43022 	2.96327e-19
21.1105 	0.224641 	0.993721 	2.43022 	2.96327e-19
21.1806 	0.224641 	0.993721 	2.43022 	2.96327e-19
21.2507 	0.224641 	0.993721 	2.43022 	2.96327e-19
21.3209 	0.224641 	0.993721 	2.43022 	2.96327e-19
21.391 	0.224641 	0.993721 	2.43022 	2.96327e-19
21.4611 	0.239982 	0.693921 	1.88967 	-4.06902e-19
21.5313 	0.239982 	0.693921 	1.88967 	-4.06902e-19
21.6014 	0.239982 	0.693921 	1.88967 	-4.06902e-19
21.6715 	0.13394 	0.604682 	1.38168 	-4.13324e-20
21.7417 	0.13394 	0.604682 	1.38168 	-4.13324e-20
21.8118 	0.13394 	0.604682 	1.38168 	-4.13324e-20
21.8819 	0.13394 	0.604682 	1.38168 	-4.13324e-20
21.9521 	0.13394 	0.604682 	1.38168 	-4.13324e-20
22.0222 	-0.00119608 	0.929062 	2.33001 	1.00645e-19
22.0923 	-0.00119608 	0.929062 	2.33001 	1.00645e-19
22.1625 	-0.00119608 	0.929062 	2.33001 	1.00645e-19
22.2326 	-0.00119608 	0.929062 	2.33001 	1.00645e-19
22.3027 	-0.00119608 	0.929062 	2.33001 	1.00645e-19
22.3729 	-0.00119608 	0.929062 	2.33001 	1.00645e-19
22.443 	-0.00119608 	0.929062 	2.33001 	1.00645e-19
22.5131 	-0.00119608 	0.929062 	2.33001 	1.00645e-19
22.5833 	-0.00119608 	0.929062 	2.33001 	1.00645e-19
22.6534 	-0.00119608 	0.929062 	2.33001 	1.00645e-19
22.7235 	-0.00119608 	0.929062 	2.33001 	1.00645e-19
22.7937 	-0.00119608 	0.929062 	2.33001 	1.00645e-19
22.8638 	-0.00119608 	0.929062 	2.33001 	1.00645e-19
22.9339 	-0.00119608 	0.929062 	2.33001 	1.00645e-19
23.0041 	-0.00119608 	0.929062 	2.33001 	1.00645e-19
23.0742 	-0.00119608 	0.929062 	2.33001 	1.00645e-19
23.1443 	-0.00119608 	0.929062 	2.33001 	1.00645e-19
23.2145 	-0.00119608 	0.929062 	2.33001 	1.00645e-19
23.2846 	-0.00119608 	0.929062 	2.33001 	1.00645e-19
23.3548 	-0.00119608 	0.929062 	2.33001 	1.00645e-19
23.4249 	-0.00119608 	0.929062 	2.33001 	1.00645e-19
23.495 	0.189217 	0.89687 	2.30936 	-8.33783e-20
23.5652 	0.189217 	0.89687 	2.30936 	-8.33783e-20
23.6353 	0.189217 	0.89687 	2.30936 	-8.33783e-20
23.7054 	0.189217 	0.89687 	2.30936 	-8.33783e-20
23.7756 	0.189217 	0.89687 	2.30936 	-8.33783e-20
23.8457 	0.189217 	0.89687 	2.30936 	-8.33783e-20
23.9158 	0.189217 	0.89687 	2.30936 	-8.33783e-20
23.986 	0.318909 	0.834264 	2.1656 	3.8343e-21
24.0561 	0.318909 	0.834264 	2.1656 	3.8343e-21
24.1262 	0.318909 	0.834264 	2.1656 	3.8343e-21
24.1964 	0.318909 	0.834264 	2.1656 	3.8343e-21
24.2665 	0.318909 	0.834264 	2.1656 	3.8343e-21
24.3366 	0.318909 	0.834264 	2.1656 	3.8343e-21
24.4068 	0.318909 	0.834264 	2.1656 	3.8343e-21
24.4769 	0.318909 	0.834264 	2.1656 	3.8343e-21
24.547 	0.318909 	0.834264 	2.1656 	3.8343e-21
24.6172 	0.318909 	0.834264 	2.1656 	3.8343e-21
24.6873 	0.318909 	0.834264 	2.1656 	3.8343e-21
24.7574 	0.318909 	0.834264 	2.1656 	3.8343e-21
24.8276 	0.318909 	0.834264 	2.1656 	3.8343e-21
24.8977 	0.318909 	0.834264 	2.1656 	3.8343e-21
24.9678 	0.318909 	0.834264 	2.1656 	3.8343e-21
25.038 	0.318909 	0.834264 	2.1656 	3.8343e-21
25.1081 	0.318909 	0.834264 	2.1656 	3.8343e-21
25.1782 	0.266185 	0.492264 	1.33113 	0
25.2484 	0.266185 	0.492264 	1.33113 	0
25.3185 	0.266185 	0.492264 	1.33113 	0
25.3886 	0.266185 	0.492264 	1.33113 	0
25.4588 	0.266185 	0.492264 	1.33113 	0
25.5289 	0.266185 	0.492264 	1.33113 	0
25.5991 	0.266185 	0.492264 	1.33113 	0
25.6692 	0.266185 	0.492264 	1.33113 	0
25.7393 	0.266185 	0.492264 	1.33113 	0
25.8095 	0.266185 	0.492264 	1.33113 	0
25.8796 	0.266185 	0.492264 	1.33113 	0
25.9497 	0.266185 	0.492264 	1.33113 	0
26.0199 	0.266185 	0.492264 	1.33113 	0
26.09 	0.266185 	0.492264 	1.33113 	0
26.1601 	0.266185 	0.492264 	1.33113 	0
26.2303 	0.171518 	0.496606 	1.35788 	-2.7599e-19
26.3004 	0.171518 	0.496606 	1.35788 	-2.7599e-19
26.3705 	0.171518 	0.496606 	1.35788 	-2.7599e-19
26.4407 	0.171518 	0.496606 	1.35788 	-2.7599e-19
26.5108 	0.171518 	0.496606 	1.35788 	-2.7599e-19
26.5809 	0.171518 	0.496606 	1.35788 	-2.7599e-19
26.6511 	0.171518 	0.496606 	1.35788 	-2.7599e-19
26.7212 	0.171518 	0.496606 	1.35788 	-2.7599e-19
26.7913 	0.171518 	0.496606 	1.35788 	-2.7599e-19
26.8615 	0.171518 	0.496606 	1.35788 	-2.7599e-19
26.9316 	0.171518 	0.496606 	1.35788 	-2.7599e-19
27.0017 	0.171518 	0.496606 	1.35788 	-2.7599e-19
27.0719 	0.171518 	0.496606 	1.35788 	-2.7599e-19
27.142 	0.171518 	0.496606 	1.35788 	-2.7599e-19
27.2121 	0.171518 	0.496606 	1.35788 	-2.7599e-19
27.2823 	0.171518 	0.496606 	1.35788 	-2.7599e-19
27.3524 	0.109285 	0.49013 	1.35825 	3.03201e-19
27.4225 	0.109285 	0.49013 	1.35825 	3.03201e-19
27.4927 	0.109285 	0.49013 	1.35825 	3.03201e-19
27.5628 	0.109285 	0.49013 	1.35825 	3.03201e-19
27.6329 	0.109285 	0.49013 	1.35825 	3.03201e-19
27.7031 	0.109285 	0.49013 	1.35825 	3.03201e-19
27.7732 	0.109285 	0.49013 	1.35825 	3.03201e-19
27.8434 	0.109285 	0.49013 	1.35825 	3.03201e-19
27.9135 	0.109285 	0.49013 	1.35825 	3.03201e-19
27.9836 	0.109285 	0.49013 	1.35825 	3.03201e-19
28.0538 	0.109285 	0.49013 	1.35825 	3.03201e-19
28.1239 	0.109285 	0.49013 	1.35825 	3.03201e-19
28.194 	0.109285 	0.49013 	1.35825 	3.03201e-19
28.2642 	0.109285 	0.49013 	1.35825 	3.03201e-19
28.3343 	0.109285 	0.49013 	1.35825 	3.03201e-19
28.4044 	0.109285 	0.49013 	1.35825 	3.03201e-19
28.4746 	0.109285 	0.49013 	1.35825 	3.03201e-19
28.5447 	0.109285 	0.49013 	1.35825 	3.03201e-19
28.6148 	0.109285 	0.49013 	1.35825 	3.03201e-19
28.685 	0.109285 	0.49013 	1.35825 	3.03201e-19
28.7551 	0.109285 	0.49013 	1.35825 	3.03201e-19
28.8252 	0.109285 	0.49013 	1.35825 	3.03201e-19
28.8954 	0.109285 	0.49013 	1.35825 	3.03201e-19
28.9655 	0.0589114 	0.436333 	1.28442 	7.77707e-21
29.0356 	0.0589114 	0.436333 	1.28442 	7.77707e-21
29.1058 	0.0589114 	0.436333 	1.28442 	7.77707e-21
29.1759 	0.0589114 	0.436333 	1.28442 	7.77707e-21
29.246 	0.0589114 	0.436333 	1.28442 	7.77707e-21
29.3162 	0.0589114 	0.436333 	1.28442 	7.77707e-21
29.3863 	0.0589114 	0.436333 	1.28442 	7.77707e-21
29.4564 	0.0589114 	0.436333 	1.28442 	7.77707e-21
29.5266 	0.0589114 	0.436333 	1.28442 	7.77707e-21
29.5967 	0.0589114 	0.436333 	1.28442 	7.77707e-21
29.6668 	0.0589114 	0.436333 	1.28442 	7.77707e-21
29.737 	0.0589114 	0.436333 	1.28442 	7.77707e-21
29.8071 	0.0589114 	0.436333 	1.28442 	7.77707e-21
29.8773 	0.0589114 	0.436333 	1.28442 	7.77707e-21
29.9474 	0.0589114 	0.436333 	1.28442 	7.77707e-21
30.0175 	0.0589114 	0.436333 	1.28442 	7.77707e-21
30.0877 	0.0589114 	0.436333 	1.28442 	7.77707e-21
30.1578 	0.0589114 	0.436333 	1.28442 	7.77707e-21
30.2279 	0.0589114 	0.436333 	1.28442 	7.77707e-21
30.2981 	0.0589114 	0.436333 	1.28442 	7.77707e-21
30.3682 	0.0589114 	0.436333 	1.28442 	7.77707e-21
30.4383 	0.0589114 	0.436333 	1.28442 	7.77707e-21
30.5085 	0.0589114 	0.436333 	1.28442 	7.77707e-21
30.5786 	0.0589114 	0.436333 	1.28442 	7.77707e-21
30.6487 	0.0589114 	0.436333 	1.28442 	7.77707e-21
30.7189 	0.0589114 	0.436333 	1.28442 	7.77707e-21
30.789 	0.0545419 	0.374051 	1.30721 	-7.26162e-20
30.8591 	0.0545419 	0.374051 	1.30721 	-7.26162e-20
30.9293 	0.0545419 	0.374051 	1.30721 	-7.26162e-20
30.9994 	0.0545419 	0.374051 	1.30721 	-7.26162e-20
31.0695 	0.0545419 	0.374051 	1.30721 	-7.26162e-20
31.1397 	0.0545419 	0.374051 	1.30721 	-7.26162e-20
31.2098 	0.0545419 	0.374051 	1.30721 	-7.26162e-20
31.2799 	0.0545419 	0.374051 	1.30721 	-7.26162e-20
31.3501 	0.0545419 	0.374051 	1.30721 	-7.26162e-20
31.4202 	0.0545419 	0.374051 	1.30721 	-7.26162e-20
31.4903 	0.0545419 	0.374051 	1.30721 	-7.26162e-20
31.5605 	0.0545419 	0.374051 	1.30721 	-7.26162e-20
31.6306 	0.0545419 	0.374051 	1.30721 	-7.26162e-20
31.7007 	0.0545419 	0.374051 	1.30721 	-7.26162e-20
31.7709 	0.0545419 	0.374051 	1.30721 	-7.26162e-20
31.841 	0.0545419 	0.374051 	1.30721 	-7.26162e-20
31.9111 	0.0545419 	0.374051 	1.30721 	-7.26162e-20
31.9813 	0.0545419 	0.374051 	1.30721 	-7.26162e-20
32.0514 	0.0545419 	0.374051 	1.30721 	-7.26162e-20
32.1216 	0.0545419 	0.374051 	1.30721 	-7.26162e-20
32.1917 	0.0545419 	0.374051 	1.30721 	-7.26162e-20
32.2618 	0.0545419 	0.374051 	1.30721 	-7.26162e-20
32.332 	0.0545419 	0.374051 	1.30721 	-7.26162e-20
32.4021 	0.0545419 	0.374051 	1.30721 	-7.26162e-20
32.4722 	0.0545419 	0.374051 	1.30721 	-7.26162e-20
32.5424 	0.0545419 	0.374051 	1.30721 	-7.26162e-20
32.6125 	0.0545419 	0.374051 	1.30721 	-7.26162e-20
32.6826 	0.0545419 	0.374051 	1.30721 	-7.26162e-20
32.7528 	0.0545419 	0.374051 	1.30721 	-7.26162e-20
32.8229 	0.0545419 	0.374051 	1.30721 	-7.26162e-20
32.893 	0.0545419 	0.374051 	1.30721 	-7.26162e-20
32.9632 	0.0545419 	0.374051 	1.30721 	-7.26162e-20
33.0333 	0.0545419 	0.374051 	1.30721 	-7.26162e-20
33.1034 	0.0545419 	0.374051 	1.30721 	-7.26162e-20
33.1736 	0.0545419 	0.374051 	1.30721 	-7.26162e-20
33.2437 	0.0545419 	0.374051 	1.30721 	-7.26162e-20
33.3138 	0.0545419 	0.374051 	1.30721 	-7.26162e-20
33.384 	0.0545419 	0.374051 	1.30721 	-7.26162e-20
33.4541 	0.0545419 	0.374051 	1.30721 	-7.26162e-20
33.5242 	0.0545419 	0.374051 	1.30721 	-7.26162e-20
33.5944 	0.0545419 	0.374051 	1.30721 	-7.26162e-20
33.6645 	0.0545419 	0.374051 	1.30721 	-7.26162e-20
33.7346 	0.0138566 	0.371448 	1.38083 	3.71704e-20
33.8048 	0.0138566 	0.371448 	1.38083 	3.71704e-20
33.8749 	0.0138566 	0.371448 	1.38083 	3.71704e-20
33.945 	0.0138566 	0.371448 	1.38083 	3.71704e-20
34.0152 	0.0138566 	0.371448 	1.38083 	3.71704e-20
34.0853 	0.0138566 	0.371448 	1.38083 	3.71704e-20
34.1554 	0.012657 	0.278656 	1.33885 	-1.0403e-19
34.2256 	0.012657 	0.278656 	1.33885 	-1.0403e-19
34.2957 	0.012657 	0.278656 	1.33885 	-1.0403e-19
34.3659 	0.012657 	0.278656 	1.33885 	-1.0403e-19
34.436 	0.012657 	0.278656 	1.33885 	-1.0403e-19
34.5061 	0.012657 	0.278656 	1.33885 	-1.0403e-19
34.5763 	0.012657 	0.278656 	1.33885 	-1.0403e-19
34.6464 	0.012657 	0.278656 	1.33885 	-1.0403e-19
34.7165 	0.208813 	0.267776 	1.61637 	1.13026e-19
34.7867 	0.208813 	0.267776 	1.61637 	1.13026e-19
34.8568 	0.208813 	0.267776 	1.61637 	1.13026e-19
34.9269 	0.208813 	0.267776 	1.61637 	1.13026e-19
34.9971 	0.208813 	0.267776 	1.61637 	1.13026e-19
35.0672 	0.208813 	0.267776 	1.61637 	1.13026e-19
35.1373 	0.208813 	0.267776 	1.61637 	1.13026e-19
35.2075 	0.208813 	0.267776 	1.61637 	1.13026e-19
35.2776 	0.208813 	0.267776 	1.61637 	1.13026e-19
35.3477 	0.208813 	0.267776 	1.61637 	1.13026e-19
35.4179 	0.208813 	0.267776 	1.61637 	1.13026e-19
35.488 	0.208813 	0.267776 	1.61637 	1.13026e-19
35.5581 	0.208813 	0.267776 	1.61637 	1.13026e-19
35.6283 	0.208813 	0.267776 	1.61637 	1.13026e-19
35.6984 	0.208813 	0.267776 	1.61637 	1.13026e-19
35.7685 	0.208813 	0.267776 	1.61637 	1.13026e-19
35.8387 	0.208813 	0.267776 	1.61637 	1.13026e-19
35.9088 	0.208813 	0.267776 	1.61637 	1.13026e-19
35.9789 	0.208813 	0.267776 	1.61637 	1.13026e-19
36.0491 	0.18088 	0.243536 	1.57924 	0
36.1192 	0.18088 	0.243536 	1.57924 	0
36.1893 	0.18088 	0.243536 	1.57924 	0
36.2595 	0.18088 	0.243536 	1.57924 	0
36.3296 	0.18088 	0.243536 	1.57924 	0
36.3997 	0.18088 	0.243536 	1.57924 	0
36.4699 	0.18088 	0.243536 	1.57924 	0
36.54 	0.18088 	0.243536 	1.57924 	0
36.6102 	0.18088 	0.243536 	1.57924 	0
36.6803 	0.18088 	0.243536 	1.57924 	0
36.7504 	0.18088 	0.243536 	1.57924 	0
36.8206 	0.18088 	0.243536 	1.57924 	0
36.8907 	0.0533585 	0.194026 	1.46379 	6.31403e-20
36.9608 	0.0533585 	0.194026 	1.46379 	6.31403e-20
37.031 	0.0533585 	0.194026 	1.46379 	6.31403e-20
37.1011 	0.0533585 	0.194026 	1.46379 	6.31403e-20
37.1712 	0.0533585 	0.194026 	1.46379 	6.31403e-20
37.2414 	0.0533585 	0.194026 	1.46379 	6.31403e-20
37.3115 	0.0533585 	0.194026 	1.46379 	6.31403e-20
37.3816 	0.0533585 	0.194026 	1.46379 	6.31403e-20
37.4518 	0.0533585 	0.194026 	1.46379 	6.31403e-20
37.5219 	0.0533585 	0.194026 	1.46379 	6.31403e-20
37.592 	0.0533585 	0.194026 	1.46379 	6.31403e-20
37.6622 	0.0533585 	0.194026 	1.46379 	6.31403e-20
37.7323 	0.0533585 	0.194026 	1.46379 	6.31403e-20
37.8024 	0.0533585 	0.194026 	1.46379 	6.31403e-20
37.8726 	0.0533585 	0.194026 	1.46379 	6.31403e-20
37.9427 	0.0533585 	0.194026 	1.46379 	6.31403e-20
38.0128 	0.0533585 	0.194026 	1.46379 	6.31403e-20
38.083 	0.0533585 	0.194026 	1.46379 	6.31403e-20
38.1531 	0.0533585 	0.194026 	1.46379 	6.31403e-20
38.2232 	0.0767917 	0.136793 	1.59919 	-7.24317e-20
38.2934 	0.0767917 	0.136793 	1.59919 	-7.24317e-20
38.3635 	0.0767917 	0.136793 	1.59919 	-7.24317e-20
38.4336 	0.0767917 	0.136793 	1.59919 	-7.24317e-20
38.5038 	0.0767917 	0.136793 	1.59919 	-7.24317e-20
38.5739 	0.0767917 	0.136793 	1.59919 	-7.24317e-20
38.644 	0.0767917 	0.136793 	1.59919 	-7.24317e-20
38.7142 	0.0767917 	0.136793 	1.59919 	-7.24317e-20
38.7843 	0.0767917 	0.136793 	1.59919 	-7.24317e-20
38.8545 	0.0767917 	0.136793 	1.59919 	-7.24317e-20
38.9246 	0.0767917 	0.136793 	1.59919 	-7.24317e-20
38.9947 	0.0767917 	0.136793 	1.59919 	-7.24317e-20
39.0649 	0.0767917 	0.136793 	1.59919 	-7.24317e-20
39.135 	0.0767917 	0.136793 	1.59919 	-7.24317e-20
39.2051 	0.0379403 	0.118746 	1.57821 	0
39.2753 	0.0379403 	0.118746 	1.57821 	0
39.3454 	0.0379403 	0.118746 	1.57821 	0
39.4155 	0.0379403 	0.118746 	1.57821 	0
39.4857 	0.0379403 	0.118746 	1.57821 	0
39.5558 	0.0379403 	0.118746 	1.57821 	0
39.6259 	0.0379403 	0.118746 	1.57821 	0
39.6961 	0.0379403 	0.118746 	1.57821 	0
39.7662 	0.0379403 	0.118746 	1.57821 	0
39.8363 	0.0379403 	0.118746 	1.57821 	0
39.9065 	0.0379403 	0.118746 	1.57821 	0
39.9766 	0.0379403 	0.118746 	1.57821 	0
40.0467 	0.0379403 	0.118746 	1.57821 	0
40.1169 	0.0379403 	0.118746 	1.57821 	0
40.187 	0.0379403 	0.118746 	1.57821 	0
40.2571 	0.0379403 	0.118746 	1.57821 	0
40.3273 	0.0379403 	0.118746 	1.57821 	0
40.3974 	0.0379403 	0.118746 	1.57821 	0
40.4675 	0.0379403 	0.118746 	1.57821 	0
40.5377 	0.0379403 	0.118746 	1.57821 	0
40.6078 	0.0379403 	0.118746 	1.57821 	0
40.6779 	0.0237442 	0.118838 	1.54426 	-1.3382e-20
40.7481 	0.0237442 	0.118838 	1.54426 	-1.3382e-20
40.8182 	0.0237442 	0.118838 	1.54426 	-1.3382e-20
40.8883 	0.0237442 	0.118838 	1.54426 	-1.3382e-20
40.9585 	0.0237442 	0.118838 	1.54426 	-1.3382e-20
41.0286 	0.0237442 	0.118838 	1.54426 	-1.3382e-20
41.0988 	0.0237442 	0.118838 	1.54426 	-1.3382e-20
41.1689 	0.0237442 	0.118838 	1.54426 	-1.3382e-20
41.239 	0.0226123 	0.093161 	1.54982 	2.50693e-20
41.3092 	0.0226123 	0.093161 	1.54982 	2.50693e-20
41.3793 	0.0226123 	0.093161 	1.54982 	2.50693e-20
41.4494 	0.0226123 	0.093161 	1.54982 	2.50693e-20
41.5196 	0.0226123 	0.093161 	1.54982 	2.50693e-20
41.5897 	0.0226123 	0.093161 	1.54982 	2.50693e-20
41.6598 	0.0226123 	0.093161 	1.54982 	2.50693e-20
41.73 	0.0226123 	0.093161 	1.54982 	2.50693e-20
41.8001 	0.0226123 	0.093161 	1.54982 	2.50693e-20
41.8702 	0.0226123 	0.093161 	1.54982 	2.50693e-20
41.9404 	0.0226123 	0.093161 	1.54982 	2.50693e-20
42.0105 	0.0226123 	0.093161 	1.54982 	2.50693e-20
42.0806 	0.0226123 	0.093161 	1.54982 	2.50693e-20
42.1508 	0.0226123 	0.093161 	1.54982 	2.50693e-20
42.2209 	0.0226123 	0.093161 	1.54982 	2.50693e-20
42.291 	0.0226123 	0.093161 	1.54982 	2.50693e-20
42.3612 	0.0226123 	0.093161 	1.54982 	2.50693e-20
42.4313 	0.0226123 	0.093161 	1.54982 	2.50693e-20
42.5014 	0.0226123 	0.093161 	1.54982 	2.50693e-20
42.5716 	0.0226123 	0.093161 	1.54982 	2.50693e-20
42.6417 	0.0226123 	0.093161 	1.54982 	2.50693e-20
42.7118 	0.00930461 	0.0931592 	1.54895 	0
42.782 	0.00930461 	0.0931592 	1.54895 	0
42.8521 	0.00930461 	0.0931592 	1.54895 	0
42.9222 	0.00930461 	0.0931592 	1.54895 	0
42.9924 	0.0256246 	0.0508328 	1.59078 	0
43.0625 	0.0256246 	0.0508328 	1.59078 	0
43.1327 	0.0256246 	0.0508328 	1.59078 	0
43.2028 	0.0256246 	0.0508328 	1.59078 	0
43.2729 	0.0256246 	0.0508328 	1.59078 	0
43.3431 	0.0256246 	0.0508328 	1.59078 	0
43.4132 	0.0256246 	0.0508328 	1.59078 	0
43.4833 	0.0256246 	0.0508328 	1.59078 	0
43.5535 	0.0256246 	0.0508328 	1.59078 	0
43.6236 	0.0256246 	0.0508328 	1.59078 	0
43.6937 	0.0256246 	0.0508328 	1.59078 	0
43.7639 	0.0256246 	0.0508328 	1.59078 	0
43.834 	0.0256246 	0.0508328 	1.59078 	0