0.490941 	1.73066 	0.00544007 	3.00064 	-5.34701e-20
0.561075 	1.73066 	0.00544007 	3.00064 	-5.34701e-20
0.63121 	1.73066 	0.00544007 	3.00064 	-5.34701e-20
0.701344 	1.73066 	0.00544007 	3.00064 	-5.34701e-20
0.771478 	1.73066 	0.00544007 	3.00064 	-5.34701e-20
0.841613 	1.73066 	0.00544007 	3.00064 	-5.34701e-20
0.911747 	1.73066 	0.00544007 	3.00064 	-5.34701e-20
0.981881 	1.73066 	0.00544007 	3.00064 	-5.34701e-20
1.05202 	1.73066 	0.00544007 	3.00064 	-5.34701e-20
1.12215 	1.73066 	0.00544007 	3.00064 	-5.34701e-20
1.19228 	1.73066 	0.00544007 	3.00064 	-5.34701e-20
1.26242 	1.73066 	0.00544007 	3.00064 	-5.34701e-20
1.33255 	1.69123 	0.0144706 	3.01425 	-5.47469e-20
1.40269 	1.69123 	0.0144706 	3.01425 	-5.47469e-20
1.47282 	1.69123 	0.0144706 	3.01425 	-5.47469e-20
1.54296 	1.69123 	0.0144706 	3.01425 	-5.47469e-20
1.61309 	1.69123 	0.0144706 	3.01425 	-5.47469e-20
1.68323 	1.69123 	0.0144706 	3.01425 	-5.47469e-20
1.75336 	1.69123 	0.0144706 	3.01425 	-5.47469e-20
1.82349 	1.69123 	0.0144706 	3.01425 	-5.47469e-20
1.89363 	1.69123 	0.0144706 	3.01425 	-5.47469e-20
1.96376 	1.69123 	0.0144706 	3.01425 	-5.47469e-20
2.0339 	1.69123 	0.0144706 	3.01425 	-5.47469e-20
2.10403 	1.69123 	0.0144706 	3.01425 	-5.47469e-20
2.17417 	1.6305 	0.0138084 	3.03207 	1.14068e-19
2.2443 	1.6305 	0.0138084 	3.03207 	1.14068e-19
2.31443 	1.6305 	0.0138084 	3.03207 	1.14068e-19
2.38457 	1.6305 	0.0138084 	3.03207 	1.14068e-19
2.4547 	1.6305 	0.0138084 	3.03207 	1.14068e-19
2.52484 	1.6305 	0.0138084 	3.03207 	1.14068e-19
2.59497 	1.6305 	0.0138084 	3.03207 	1.14068e-19
2.66511 	1.6305 	0.0138084 	3.03207 	1.14068e-19
2.73524 	1.6305 	0.0138084 	3.03207 	1.14068e-19
2.80538 	1.6305 	0.0138084 	3.03207 	1.14068e-19
2.87551 	1.6305 	0.0138084 	3.03207 	1.14068e-19
2.94564 	1.6305 	0.0138084 	3.03207 	1.14068e-19
3.01578 	1.55653 	0.0168073 	3.0587 	-1.32552e-20
3.08591 	1.55653 	0.0168073 	3.0587 	-1.32552e-20
3.15605 	1.55653 	0.0168073 	3.0587 	-1.32552e-20
3.22618 	1.55653 	0.0168073 	3.0587 	-1.32552e-20
3.29632 	1.55653 	0.0168073 	3.0587 	-1.32552e-20
3.36645 	1.55653 	0.0168073 	3.0587 	-1.32552e-20
3.43659 	1.55653 	0.0168073 	3.0587 	-1.32552e-20
3.50672 	1.55653 	0.0168073 	3.0587 	-1.32552e-20
3.57685 	1.55653 	0.0168073 	3.0587 	-1.32552e-20
3.64699 	1.55653 	0.0168073 	3.0587 	-1.32552e-20
3.71712 	1.55653 	0.0168073 	3.0587 	-1.32552e-20
3.78726 	1.54934 	0.00711501 	3.05561 	2.5967e-20
3.85739 	1.47035 	-0.000762321 	3.0841 	-1.91372e-19
3.92753 	1.47035 	-0.000762321 	3.0841 	-1.91372e-19
3.99766 	1.47035 	-0.000762321 	3.0841 	-1.91372e-19
4.06779 	1.47035 	-0.000762321 	3.0841 	-1.91372e-19
4.13793 	1.47035 	-0.000762321 	3.0841 	-1.91372e-19
4.20806 	1.47035 	-0.000762321 	3.0841 	-1.91372e-19
4.2782 	1.47035 	-0.000762321 	3.0841 	-1.91372e-19
4.34833 	1.47035 	-0.000762321 	3.0841 	-1.91372e-19
4.41847 	1.47035 	-0.000762321 	3.0841 	-1.91372e-19
4.4886 	1.47035 	-0.000762321 	3.0841 	-1.91372e-19
4.55874 	1.47035 	-0.000762321 	3.0841 	-1.91372e-19
4.62887 	1.47035 	-0.000762321 	3.0841 	-1.91372e-19
4.699 	1.47035 	-0.000762321 	3.0841 	-1.91372e-19
4.76914 	1.39165 	0.00556034 	3.10673 	3.72389e-19
4.83927 	1.39165 	0.00556034 	3.10673 	3.72389e-19
4.90941 	1.39165 	0.00556034 	3.10673 	3.72389e-19
4.97954 	1.39165 	0.00556034 	3.10673 	3.72389e-19
5.04968 	1.39165 	0.00556034 	3.10673 	3.72389e-19
5.11981 	1.39165 	0.00556034 	3.10673 	3.72389e-19
5.18994 	1.39165 	0.00556034 	3.10673 	3.72389e-19
5.26008 	1.39165 	0.00556034 	3.10673 	3.72389e-19
5.33021 	1.39165 	0.00556034 	3.10673 	3.72389e-19
5.40035 	1.39165 	0.00556034 	3.10673 	3.72389e-19
5.47048 	1.39165 	0.00556034 	3.10673 	3.72389e-19
5.54062 	1.39165 	0.00556034 	3.10673 	3.72389e-19
5.61075 	1.31706 	-0.00208383 	3.1335 	-1.8079e-19
5.68089 	1.31706 	-0.00208383 	3.1335 	-1.8079e-19
5.75102 	1.31706 	-0.00208383 	3.1335 	-1.8079e-19
5.82115 	1.31706 	-0.00208383 	3.1335 	-1.8079e-19
5.89129 	1.31706 	-0.00208383 	3.1335 	-1.8079e-19
5.96142 	1.31706 	-0.00208383 	3.1335 	-1.8079e-19
6.03156 	1.31706 	-0.00208383 	3.1335 	-1.8079e-19
6.10169 	1.31706 	-0.00208383 	3.1335 	-1.8079e-19
6.17183 	1.31706 	-0.00208383 	3.1335 	-1.8079e-19
6.24196 	1.31706 	-0.00208383 	3.1335 	-1.8079e-19
6.3121 	1.31706 	-0.00208383 	3.1335 	-1.8079e-19
6.38223 	1.31706 	-0.00208383 	3.1335 	-1.8079e-19
6.45236 	1.24587 	0.00526351 	3.15335 	0
6.5225 	1.24587 	0.00526351 	3.15335 	0
6.59263 	1.24587 	0.00526351 	3.15335 	0
6.66277 	1.24587 	0.00526351 	3.15335 	0
6.7329 	1.24587 	0.00526351 	3.15335 	0
6.80304 	1.24587 	0.00526351 	3.15335 	0
6.87317 	1.24587 	0.00526351 	3.15335 	0
6.9433 	1.24587 	0.00526351 	3.15335 	0
7.01344 	1.24587 	0.00526351 	3.15335 	0
7.08357 	1.24587 	0.00526351 	3.15335 	0
7.15371 	1.24587 	0.00526351 	3.15335 	0
7.22384 	1.24587 	0.00526351 	3.15335 	0
7.29398 	1.17791 	-0.00134369 	3.17775 	0
7.36411 	1.17791 	-0.00134369 	3.17775 	0
7.43425 	1.17791 	-0.00134369 	3.17775 	0
7.50438 	1.17791 	-0.00134369 	3.17775 	0
7.57451 	1.17791 	-0.00134369 	3.17775 	0
7.64465 	1.17791 	-0.00134369 	3.17775 	0
7.71478 	1.17791 	-0.00134369 	3.17775 	0
7.78492 	1.17791 	-0.00134369 	3.17775 	0
7.85505 	1.17791 	-0.00134369 	3.17775 	0
7.92519 	1.17791 	-0.00134369 	3.17775 	0
7.99532 	1.17791 	-0.00134369 	3.17775 	0
8.06545 	1.17791 	-0.00134369 	3.17775 	0
8.13559 	1.17791 	-0.00134369 	3.17775 	0
8.20572 	1.11076 	0.00746086 	3.19602 	3.65108e-22
8.27586 	1.11076 	0.00746086 	3.19602 	3.65108e-22
8.34599 	1.11076 	0.00746086 	3.19602 	3.65108e-22
8.41613 	1.11076 	0.00746086 	3.19602 	3.65108e-22
8.48626 	1.11076 	0.00746086 	3.19602 	3.65108e-22
8.5564 	1.11076 	0.00746086 	3.19602 	3.65108e-22
8.62653 	1.11076 	0.00746086 	3.19602 	3.65108e-22
8.69666 	1.11076 	0.00746086 	3.19602 	3.65108e-22
8.7668 	1.11076 	0.00746086 	3.19602 	3.65108e-22
8.83693 	1.11076 	0.00746086 	3.19602 	3.65108e-22
8.90707 	1.11076 	0.00746086 	3.19602 	3.65108e-22
8.9772 	1.11076 	0.00746086 	3.19602 	3.65108e-22
9.04734 	1.04429 	0.00316155 	3.21969 	2.69814e-19
9.11747 	1.04429 	0.00316155 	3.21969 	2.69814e-19
9.18761 	1.04429 	0.00316155 	3.21969 	2.69814e-19
9.25774 	1.04429 	0.00316155 	3.21969 	2.69814e-19
9.32787 	1.04429 	0.00316155 	3.21969 	2.69814e-19
9.39801 	1.04429 	0.00316155 	3.21969 	2.69814e-19
9.46814 	1.04429 	0.00316155 	3.21969 	2.69814e-19
9.53828 	1.04429 	0.00316155 	3.21969 	2.69814e-19
9.60841 	1.04429 	0.00316155 	3.21969 	2.69814e-19
9.67855 	1.04429 	0.00316155 	3.21969 	2.69814e-19
9.74868 	1.04429 	0.00316155 	3.21969 	2.69814e-19
9.81881 	1.04429 	0.00316155 	3.21969 	2.69814e-19
9.88895 	1.04429 	0.00316155 	3.21969 	2.69814e-19
9.95908 	0.976994 	0.0166159 	3.23777 	-2.08133e-21
10.0292 	0.976994 	0.0166159 	3.23777 	-2.08133e-21
10.0994 	0.976994 	0.0166159 	3.23777 	-2.08133e-21
10.1695 	0.976994 	0.0166159 	3.23777 	-2.08133e-21
10.2396 	0.976994 	0.0166159 	3.23777 	-2.08133e-21
10.3098 	0.976994 	0.0166159 	3.23777 	-2.08133e-21
10.3799 	0.976994 	0.0166159 	3.23777 	-2.08133e-21
10.45 	0.976994 	0.0166159 	3.23777 	-2.08133e-21
10.5202 	0.976994 	0.0166159 	3.23777 	-2.08133e-21
10.5903 	0.976994 	0.0166159 	3.23777 	-2.08133e-21
10.6604 	0.976994 	0.0166159 	3.23777 	-2.08133e-21
10.7306 	0.976994 	0.0166159 	3.23777 	-2.08133e-21
10.8007 	0.90914 	0.0218042 	3.26149 	-2.65535e-19
10.8708 	0.90914 	0.0218042 	3.26149 	-2.65535e-19
10.941 	0.90914 	0.0218042 	3.26149 	-2.65535e-19
11.0111 	0.90914 	0.0218042 	3.26149 	-2.65535e-19
11.0812 	0.90914 	0.0218042 	3.26149 	-2.65535e-19
11.1514 	0.90914 	0.0218042 	3.26149 	-2.65535e-19
11.2215 	0.90914 	0.0218042 	3.26149 	-2.65535e-19
11.2916 	0.90914 	0.0218042 	3.26149 	-2.65535e-19
11.3618 	0.90914 	0.0218042 	3.26149 	-2.65535e-19
11.4319 	0.90914 	0.0218042 	3.26149 	-2.65535e-19
11.502 	0.90914 	0.0218042 	3.26149 	-2.65535e-19
11.5722 	0.90914 	0.0218042 	3.26149 	-2.65535e-19
11.6423 	0.90914 	0.0218042 	3.26149 	-2.65535e-19
11.7124 	0.836318 	0.051797 	3.28155 	-4.09963e-19
11.7826 	0.836318 	0.051797 	3.28155 	-4.09963e-19
11.8527 	0.836318 	0.051797 	3.28155 	-4.09963e-19
11.9228 	0.836318 	0.051797 	3.28155 	-4.09963e-19
11.993 	0.836318 	0.051797 	3.28155 	-4.09963e-19
12.0631 	0.836318 	0.051797 	3.28155 	-4.09963e-19
12.1332 	0.836318 	0.051797 	3.28155 	-4.09963e-19
12.2034 	0.836318 	0.051797 	3.28155 	-4.09963e-19
12.2735 	0.836318 	0.051797 	3.28155 	-4.09963e-19
12.3437 	0.836318 	0.051797 	3.28155 	-4.09963e-19
12.4138 	0.836318 	0.051797 	3.28155 	-4.09963e-19
12.4839 	0.836318 	0.051797 	3.28155 	-4.09963e-19
12.5541 	0.836318 	0.051797 	3.28155 	-4.09963e-19
12.6242 	0.754942 	0.0768702 	3.30738 	7.88374e-19
12.6943 	0.754942 	0.0768702 	3.30738 	7.88374e-19
12.7645 	0.754942 	0.0768702 	3.30738 	7.88374e-19
12.8346 	0.754942 	0.0768702 	3.30738 	7.88374e-19
12.9047 	0.754942 	0.0768702 	3.30738 	7.88374e-19
12.9749 	0.754942 	0.0768702 	3.30738 	7.88374e-19
13.045 	0.754942 	0.0768702 	3.30738 	7.88374e-19
13.1151 	0.754942 	0.0768702 	3.30738 	7.88374e-19
13.1853 	0.754942 	0.0768702 	3.30738 	7.88374e-19
13.2554 	0.754942 	0.0768702 	3.30738 	7.88374e-19
13.3255 	0.754942 	0.0768702 	3.30738 	7.88374e-19
13.3957 	0.754942 	0.0768702 	3.30738 	7.88374e-19
13.4658 	0.754942 	0.0768702 	3.30738 	7.88374e-19
13.5359 	0.651643 	0.150415 	3.34164 	-3.80149e-19
13.6061 	0.651643 	0.150415 	3.34164 	-3.80149e-19
13.6762 	0.651643 	0.150415 	3.34164 	-3.80149e-19
13.7463 	0.651643 	0.150415 	3.34164 	-3.80149e-19
13.8165 	0.651643 	0.150415 	3.34164 	-3.80149e-19
13.8866 	0.651643 	0.150415 	3.34164 	-3.80149e-19
13.9567 	0.651643 	0.150415 	3.34164 	-3.80149e-19
14.0269 	0.651643 	0.150415 	3.34164 	-3.80149e-19
14.097 	0.651643 	0.150415 	3.34164 	-3.80149e-19
14.1671 	0.651643 	0.150415 	3.34164 	-3.80149e-19
14.2373 	0.651643 	0.150415 	3.34164 	-3.80149e-19
14.3074 	0.651643 	0.150415 	3.34164 	-3.80149e-19
14.3776 	0.554994 	0.174384 	3.36062 	0
14.4477 	0.354289 	0.173236 	3.41867 	3.55204e-19
14.5178 	0.354289 	0.173236 	3.41867 	3.55204e-19
14.588 	0.354289 	0.173236 	3.41867 	3.55204e-19
14.6581 	0.354289 	0.173236 	3.41867 	3.55204e-19
14.7282 	0.354289 	0.173236 	3.41867 	3.55204e-19
14.7984 	0.354289 	0.173236 	3.41867 	3.55204e-19
14.8685 	0.381383 	0.197912 	3.40899 	-7.16873e-19
14.9386 	0.381383 	0.197912 	3.40899 	-7.16873e-19
15.0088 	0.381383 	0.197912 	3.40899 	-7.16873e-19
15.0789 	0.381383 	0.197912 	3.40899 	-7.16873e-19
15.149 	0.381383 	0.197912 	3.40899 	-7.16873e-19
15.2192 	0.144185 	0.262446 	3.47549 	3.47011e-19
15.2893 	0.144185 	0.262446 	3.47549 	3.47011e-19
15.3594 	0.144185 	0.262446 	3.47549 	3.47011e-19
15.4296 	0.273362 	0.331574 	3.43059 	4.86921e-20
15.4997 	0.273362 	0.331574 	3.43059 	4.86921e-20
15.5698 	0.273362 	0.331574 	3.43059 	4.86921e-20
15.64 	0.273362 	0.331574 	3.43059 	4.86921e-20
15.7101 	0.273362 	0.331574 	3.43059 	4.86921e-20
15.7802 	0.273362 	0.331574 	3.43059 	4.86921e-20
15.8504 	0.273362 	0.331574 	3.43059 	4.86921e-20
15.9205 	0.0195976 	0.335548 	3.52993 	9.161e-20
15.9906 	0.0195976 	0.335548 	3.52993 	9.161e-20
16.0608 	0.0195976 	0.335548 	3.52993 	9.161e-20
16.1309 	0.231856 	0.421064 	3.44147 	2.06779e-19
16.201 	0.231856 	0.421064 	3.44147 	2.06779e-19
16.2712 	0.231856 	0.421064 	3.44147 	2.06779e-19
16.3413 	0.231856 	0.421064 	3.44147 	2.06779e-19
16.4114 	0.231856 	0.421064 	3.44147 	2.06779e-19
16.4816 	0.231856 	0.421064 	3.44147 	2.06779e-19
16.5517 	0.231856 	0.421064 	3.44147 	2.06779e-19
16.6219 	0.0482355 	0.520159 	3.51792 	0
16.692 	0.0482355 	0.520159 	3.51792 	0
16.7621 	0.0482355 	0.520159 	3.51792 	0
16.8323 	0.0482355 	0.520159 	3.51792 	0
16.9024 	0.0482355 	0.520159 	3.51792 	0
16.9725 	0.278998 	0.528385 	3.42187 	1.93877e-19
17.0427 	0.278998 	0.528385 	3.42187 	1.93877e-19
17.1128 	0.278998 	0.528385 	3.42187 	1.93877e-19
17.1829 	0.278998 	0.528385 	3.42187 	1.93877e-19
17.2531 	0.128351 	0.611362 	3.47327 	1.41513e-19
17.3232 	0.128351 	0.611362 	3.47327 	1.41513e-19
17.3933 	0.128351 	0.611362 	3.47327 	1.41513e-19
17.4635 	0.128351 	0.611362 	3.47327 	1.41513e-19
17.5336 	0.128351 	0.611362 	3.47327 	1.41513e-19
17.6037 	0.128351 	0.611362 	3.47327 	1.41513e-19
17.6739 	0.128351 	0.611362 	3.47327 	1.41513e-19
17.744 	0.128351 	0.611362 	3.47327 	1.41513e-19
17.8141 	0.128351 	0.611362 	3.47327 	1.41513e-19
17.8843 	0.128351 	0.611362 	3.47327 	1.41513e-19
17.9544 	0.204699 	0.627462 	3.3939 	0
18.0245 	0.204699 	0.627462 	3.3939 	0
18.0947 	0.204699 	0.627462 	3.3939 	0
18.1648 	0.204699 	0.627462 	3.3939 	0
18.2349 	0.204699 	0.627462 	3.3939 	0
18.3051 	0.204699 	0.627462 	3.3939 	0
18.3752 	0.204699 	0.627462 	3.3939 	0
18.4453 	0.204699 	0.627462 	3.3939 	0
18.5155 	0.204699 	0.627462 	3.3939 	0
18.5856 	0.111873 	0.718291 	3.43624 	0
18.6557 	0.111873 	0.718291 	3.43624 	0
18.7259 	0.111873 	0.718291 	3.43624 	0
18.796 	0.111873 	0.718291 	3.43624 	0
18.8662 	0.111873 	0.718291 	3.43624 	0
18.9363 	0.111873 	0.718291 	3.43624 	0
19.0064 	0.111873 	0.718291 	3.43624 	0
19.0766 	0.111873 	0.718291 	3.43624 	0
19.1467 	0.111873 	0.718291 	3.43624 	0
19.2168 	0.0622127 	0.762857 	3.41586 	2.84078e-20
19.287 	0.288598 	0.688933 	3.21591 	-5.59632e-20
19.3571 	0.288598 	0.688933 	3.21591 	-5.59632e-20
19.4272 	0.288598 	0.688933 	3.21591 	-5.59632e-20
19.4974 	0.288598 	0.688933 	3.21591 	-5.59632e-20
19.5675 	0.288598 	0.688933 	3.21591 	-5.59632e-20
19.6376 	0.288598 	0.688933 	3.21591 	-5.59632e-20
19.7078 	0.288598 	0.688933 	3.21591 	-5.59632e-20
19.7779 	0.288598 	0.688933 	3.21591 	-5.59632e-20
19.848 	0.288598 	0.688933 	3.21591 	-5.59632e-20
19.9182 	0.235725 	0.752305 	3.29142 	-2.14438e-19
19.9883 	0.235725 	0.752305 	3.29142 	-2.14438e-19
20.0584 	0.235725 	0.752305 	3.29142 	-2.14438e-19
20.1286 	0.235725 	0.752305 	3.29142 	-2.14438e-19
20.1987 	0.235725 	0.752305 	3.29142 	-2.14438e-19
20.2688 	0.235725 	0.752305 	3.29142 	-2.14438e-19
20.339 	0.235725 	0.752305 	3.29142 	-2.14438e-19
20.4091 	0.235725 	0.752305 	3.29142 	-2.14438e-19
20.4792 	0.235725 	0.752305 	3.29142 	-2.14438e-19
20.5494 	0.235725 	0.752305 	3.29142 	-2.14438e-19
20.6195 	0.175551 	0.801211 	3.31771 	1.33937e-20
20.6896 	0.175551 	0.801211 	3.31771 	1.33937e-20
20.7598 	0.175551 	0.801211 	3.31771 	1.33937e-20
20.8299 	0.175551 	0.801211 	3.31771 	1.33937e-20
20.9 	0.257532 	0.696159 	2.7657 	-2.9641e-19
20.9702 	0.257532 	0.696159 	2.7657 	-2.9641e-19
21.0403 	0.257532 	0.696159 	2.7657 	-2.9641e-19
21.1105 	0.257532 	0.696159 	2.7657 	-2.9641e-19
21.1806 	0.257532 	0.696159 	2.7657 	-2.9641e-19
21.2507 	0.257532 	0.696159 	2.7657 	-2.9641e-19
21.3209 	0.216892 	0.749305 	2.95468 	0
21.391 	0.216892 	0.749305 	2.95468 	0
21.4611 	0.216892 	0.749305 	2.95468 	0
21.5313 	0.216892 	0.749305 	2.95468 	0
21.6014 	0.216892 	0.749305 	2.95468 	0
21.6715 	0.216892 	0.749305 	2.95468 	0
21.7417 	0.216892 	0.749305 	2.95468 	0
21.8118 	0.216892 	0.749305 	2.95468 	0
21.8819 	0.216892 	0.749305 	2.95468 	0
21.9521 	0.216892 	0.749305 	2.95468 	0
22.0222 	0.216892 	0.749305 	2.95468 	0
22.0923 	0.174597 	0.796771 	3.07305 	-1.12787e-19
22.1625 	0.174597 	0.796771 	3.07305 	-1.12787e-19
22.2326 	0.174597 	0.796771 	3.07305 	-1.12787e-19
22.3027 	0.174597 	0.796771 	3.07305 	-1.12787e-19
22.3729 	0.174597 	0.796771 	3.07305 	-1.12787e-19
22.443 	0.174597 	0.796771 	3.07305 	-1.12787e-19
22.5131 	0.174597 	0.796771 	3.07305 	-1.12787e-19
22.5833 	0.174597 	0.796771 	3.07305 	-1.12787e-19
22.6534 	0.174597 	0.796771 	3.07305 	-1.12787e-19
22.7235 	0.174597 	0.796771 	3.07305 	-1.12787e-19
22.7937 	0.174597 	0.796771 	3.07305 	-1.12787e-19
22.8638 	0.123305 	0.838464 	3.14539 	1.78643e-19
22.9339 	0.123305 	0.838464 	3.14539 	1.78643e-19
23.0041 	0.123305 	0.838464 	3.14539 	1.78643e-19
23.0742 	0.132983 	0.682434 	2.26543 	7.19071e-20
23.1443 	0.132983 	0.682434 	2.26543 	7.19071e-20
23.2145 	0.132983 	0.682434 	2.26543 	7.19071e-20
23.2846 	0.132983 	0.682434 	2.26543 	7.19071e-20
23.3548 	0.132983 	0.682434 	2.26543 	7.19071e-20
23.4249 	0.132983 	0.682434 	2.26543 	7.19071e-20
23.495 	0.132983 	0.682434 	2.26543 	7.19071e-20
23.5652 	0.132983 	0.682434 	2.26543 	7.19071e-20
23.6353 	0.132983 	0.682434 	2.26543 	7.19071e-20
23.7054 	0.0851466 	0.725083 	2.44639 	-3.30785e-21
23.7756 	0.0851466 	0.725083 	2.44639 	-3.30785e-21
23.8457 	0.0851466 	0.725083 	2.44639 	-3.30785e-21
23.9158 	0.0851466 	0.725083 	2.44639 	-3.30785e-21
23.986 	0.0851466 	0.725083 	2.44639 	-3.30785e-21
24.0561 	0.0851466 	0.725083 	2.44639 	-3.30785e-21
24.1262 	0.0851466 	0.725083 	2.44639 	-3.30785e-21
24.1964 	0.0851466 	0.725083 	2.44639 	-3.30785e-21
24.2665 	0.0851466 	0.725083 	2.44639 	-3.30785e-21
24.3366 	0.0851466 	0.725083 	2.44639 	-3.30785e-21
24.4068 	0.0851466 	0.725083 	2.44639 	-3.30785e-21
24.4769 	0.0851466 	0.725083 	2.44639 	-3.30785e-21
24.547 	0.0851466 	0.725083 	2.44639 	-3.30785e-21
24.6172 	0.041168 	0.765346 	2.60167 	5.08448e-20
24.6873 	0.041168 	0.765346 	2.60167 	5.08448e-20
24.7574 	0.041168 	0.765346 	2.60167 	5.08448e-20
24.8276 	0.041168 	0.765346 	2.60167 	5.08448e-20
24.8977 	0.041168 	0.765346 	2.60167 	5.08448e-20
24.9678 	0.041168 	0.765346 	2.60167 	5.08448e-20
25.038 	0.041168 	0.765346 	2.60167 	5.08448e-20
25.1081 	0.041168 	0.765346 	2.60167 	5.08448e-20
25.1782 	0.041168 	0.765346 	2.60167 	5.08448e-20
25.2484 	0.041168 	0.765346 	2.60167 	5.08448e-20
25.3185 	0.041168 	0.765346 	2.60167 	5.08448e-20
25.3886 	0.041168 	0.765346 	2.60167 	5.08448e-20
25.4588 	0.000139951 	0.8021 	2.72182 	-7.19109e-21
25.5289 	0.000139951 	0.8021 	2.72182 	-7.19109e-21
25.5991 	0.000139951 	0.8021 	2.72182 	-7.19109e-21
25.6692 	0.000139951 	0.8021 	2.72182 	-7.19109e-21
25.7393 	0.000139951 	0.8021 	2.72182 	-7.19109e-21
25.8095 	0.000139951 	0.8021 	2.72182 	-7.19109e-21
25.8796 	0.000139951 	0.8021 	2.72182 	-7.19109e-21
25.9497 	0.000139951 	0.8021 	2.72182 	-7.19109e-21
26.0199 	0.000139951 	0.8021 	2.72182 	-7.19109e-21
26.09 	-0.000743831 	0.609338 	1.76542 	-1.24513e-20
26.1601 	-0.000743831 	0.609338 	1.76542 	-1.24513e-20
26.2303 	-0.000743831 	0.609338 	1.76542 	-1.24513e-20
26.3004 	-0.000743831 	0.609338 	1.76542 	-1.24513e-20
26.3705 	-0.000743831 	0.609338 	1.76542 	-1.24513e-20
26.4407 	-0.0459124 	0.62134 	1.85001 	-1.96443e-20
26.5108 	-0.0459124 	0.62134 	1.85001 	-1.96443e-20
26.5809 	-0.0459124 	0.62134 	1.85001 	-1.96443e-20
26.6511 	-0.0459124 	0.62134 	1.85001 	-1.96443e-20
26.7212 	-0.0459124 	0.62134 	1.85001 	-1.96443e-20
26.7913 	-0.0459124 	0.62134 	1.85001 	-1.96443e-20
26.8615 	-0.0459124 	0.62134 	1.85001 	-1.96443e-20
26.9316 	-0.0459124 	0.62134 	1.85001 	-1.96443e-20
27.0017 	-0.0459124 	0.62134 	1.85001 	-1.96443e-20
27.0719 	-0.0459124 	0.62134 	1.85001 	-1.96443e-20
27.142 	-0.0459124 	0.62134 	1.85001 	-1.96443e-20
27.2121 	-0.0459124 	0.62134 	1.85001 	-1.96443e-20
27.2823 	-0.0459124 	0.62134 	1.85001 	-1.96443e-20
27.3524 	-0.0898253 	0.633274 	1.91993 	0
27.4225 	-0.0898253 	0.633274 	1.91993 	0
27.4927 	-0.0898253 	0.633274 	1.91993 	0
27.5628 	-0.0898253 	0.633274 	1.91993 	0
27.6329 	-0.0898253 	0.633274 	1.91993 	0
27.7031 	-0.0898253 	0.633274 	1.91993 	0
27.7732 	-0.0898253 	0.633274 	1.91993 	0
27.8434 	-0.0898253 	0.633274 	1.91993 	0
27.9135 	-0.0898253 	0.633274 	1.91993 	0
27.9836 	-0.0898253 	0.633274 	1.91993 	0
28.0538 	-0.0898253 	0.633274 	1.91993 	0
28.1239 	-0.0898253 	0.633274 	1.91993 	0
28.194 	-0.0898253 	0.633274 	1.91993 	0
28.2642 	-0.0898253 	0.633274 	1.91993 	0
28.3343 	-0.0898253 	0.633274 	1.91993 	0
28.4044 	-0.13023 	0.63707 	1.98048 	0
28.4746 	-0.13023 	0.63707 	1.98048 	0
28.5447 	-0.13023 	0.63707 	1.98048 	0
28.6148 	-0.13023 	0.63707 	1.98048 	0
28.685 	-0.13023 	0.63707 	1.98048 	0
28.7551 	-0.13023 	0.63707 	1.98048 	0
28.8252 	-0.13023 	0.63707 	1.98048 	0
28.8954 	-0.13023 	0.63707 	1.98048 	0
28.9655 	-0.13023 	0.63707 	1.98048 	0
29.0356 	-0.13023 	0.63707 	1.98048 	0
29.1058 	-0.13023 	0.63707 	1.98048 	0
29.1759 	-0.13023 	0.63707 	1.98048 	0
29.246 	-0.13023 	0.63707 	1.98048 	0
29.3162 	-0.13023 	0.63707 	1.98048 	0
29.3863 	-0.13023 	0.63707 	1.98048 	0
29.4564 	-0.16566 	0.636411 	2.0071 	-7.59714e-20
29.5266 	-0.16566 	0.636411 	2.0071 	-7.59714e-20
29.5967 	-0.16566 	0.636411 	2.0071 	-7.59714e-20
29.6668 	-0.16566 	0.636411 	2.0071 	-7.59714e-20
29.737 	-0.16566 	0.636411 	2.0071 	-7.59714e-20
29.8071 	-0.16566 	0.636411 	2.0071 	-7.59714e-20
29.8773 	-0.16566 	0.636411 	2.0071 	-7.59714e-20
29.9474 	-0.16566 	0.636411 	2.0071 	-7.59714e-20
30.0175 	-0.16566 	0.636411 	2.0071 	-7.59714e-20
30.0877 	-0.16566 	0.636411 	2.0071 	-7.59714e-20
30.1578 	-0.16566 	0.636411 	2.0071 	-7.59714e-20
30.2279 	-0.16566 	0.636411 	2.0071 	-7.59714e-20
30.2981 	-0.16566 	0.636411 	2.0071 	-7.59714e-20
30.3682 	-0.16566 	0.636411 	2.0071 	-7.59714e-20
30.4383 	-0.16566 	0.636411 	2.0071 	-7.59714e-20
30.5085 	-0.16566 	0.636411 	2.0071 	-7.59714e-20
30.5786 	-0.19435 	0.622568 	2.00741 	-3.59509e-21
30.6487 	-0.19435 	0.622568 	2.00741 	-3.59509e-21
30.7189 	-0.19435 	0.622568 	2.00741 	-3.59509e-21
30.789 	-0.19435 	0.622568 	2.00741 	-3.59509e-21
30.8591 	-0.19435 	0.622568 	2.00741 	-3.59509e-21
30.9293 	-0.19435 	0.622568 	2.00741 	-3.59509e-21
30.9994 	-0.19435 	0.622568 	2.00741 	-3.59509e-21
31.0695 	-0.19435 	0.622568 	2.00741 	-3.59509e-21
31.1397 	-0.19435 	0.622568 	2.00741 	-3.59509e-21
31.2098 	-0.19435 	0.622568 	2.00741 	-3.59509e-21
31.2799 	-0.19435 	0.622568 	2.00741 	-3.59509e-21
31.3501 	-0.19435 	0.622568 	2.00741 	-3.59509e-21
31.4202 	-0.19435 	0.622568 	2.00741 	-3.59509e-21
31.4903 	-0.19435 	0.622568 	2.00741 	-3.59509e-21
31.5605 	-0.243004 	0.51544 	1.65037 	-1.51229e-19
31.6306 	-0.243004 	0.51544 	1.65037 	-1.51229e-19
31.7007 	-0.257109 	0.499058 	1.65787 	9.37228e-20
31.7709 	-0.257109 	0.499058 	1.65787 	9.37228e-20
31.841 	-0.257109 	0.499058 	1.65787 	9.37228e-20
31.9111 	-0.257109 	0.499058 	1.65787 	9.37228e-20
31.9813 	-0.257109 	0.499058 	1.65787 	9.37228e-20
32.0514 	-0.257109 	0.499058 	1.65787 	9.37228e-20
32.1216 	-0.257109 	0.499058 	1.65787 	9.37228e-20
32.1917 	-0.257109 	0.499058 	1.65787 	9.37228e-20
32.2618 	-0.257109 	0.499058 	1.65787 	9.37228e-20
32.332 	-0.257109 	0.499058 	1.65787 	9.37228e-20
32.4021 	-0.257109 	0.499058 	1.65787 	9.37228e-20
32.4722 	-0.257109 	0.499058 	1.65787 	9.37228e-20
32.5424 	-0.257109 	0.499058 	1.65787 	9.37228e-20
32.6125 	-0.257109 	0.499058 	1.65787 	9.37228e-20
32.6826 	-0.257109 	0.499058 	1.65787 	9.37228e-20
32.7528 	-0.257109 	0.499058 	1.65787 	9.37228e-20
32.8229 	-0.257109 	0.499058 	1.65787 	9.37228e-20
32.893 	-0.257109 	0.499058 	1.65787 	9.37228e-20
32.9632 	-0.25653 	0.478494 	1.65571 	2.55479e-20
33.0333 	-0.25653 	0.478494 	1.65571 	2.55479e-20
33.1034 	-0.25653 	0.478494 	1.65571 	2.55479e-20
33.1736 	-0.25653 	0.478494 	1.65571 	2.55479e-20
33.2437 	-0.25653 	0.478494 	1.65571 	2.55479e-20
33.3138 	-0.25653 	0.478494 	1.65571 	2.55479e-20
33.384 	-0.25653 	0.478494 	1.65571 	2.55479e-20
33.4541 	-0.25653 	0.478494 	1.65571 	2.55479e-20
33.5242 	-0.25653 	0.478494 	1.65571 	2.55479e-20
33.5944 	-0.25653 	0.478494 	1.65571 	2.55479e-20
33.6645 	-0.25653 	0.478494 	1.65571 	2.55479e-20
33.7346 	-0.25653 	0.478494 	1.65571 	2.55479e-20
33.8048 	-0.25653 	0.478494 	1.65571 	2.55479e-20
33.8749 	-0.25653 	0.478494 	1.65571 	2.55479e-20
33.945 	-0.25653 	0.478494 	1.65571 	2.55479e-20
34.0152 	-0.25653 	0.478494 	1.65571 	2.55479e-20
34.0853 	-0.25653 	0.478494 	1.65571 	2.55479e-20
34.1554 	-0.25653 	0.478494 	1.65571 	2.55479e-20
34.2256 	-0.237649 	0.453968 	1.64065 	-1.80742e-20
34.2957 	-0.237649 	0.453968 	1.64065 	-1.80742e-20
34.3659 	-0.237649 	0.453968 	1.64065 	-1.80742e-20
34.436 	-0.237649 	0.453968 	1.64065 	-1.80742e-20
34.5061 	-0.237649 	0.453968 	1.64065 	-1.80742e-20
34.5763 	-0.237649 	0.453968 	1.64065 	-1.80742e-20
34.6464 	-0.237649 	0.453968 	1.64065 	-1.80742e-20
34.7165 	-0.237649 	0.453968 	1.64065 	-1.80742e-20
34.7867 	-0.237649 	0.453968 	1.64065 	-1.80742e-20
34.8568 	-0.237649 	0.453968 	1.64065 	-1.80742e-20
34.9269 	-0.237649 	0.453968 	1.64065 	-1.80742e-20
34.9971 	-0.237649 	0.453968 	1.64065 	-1.80742e-20
35.0672 	-0.237649 	0.453968 	1.64065 	-1.80742e-20
35.1373 	-0.237649 	0.453968 	1.64065 	-1.80742e-20
35.2075 	-0.237649 	0.453968 	1.64065 	-1.80742e-20
35.2776 	-0.237649 	0.453968 	1.64065 	-1.80742e-20
35.3477 	-0.237649 	0.453968 	1.64065 	-1.80742e-20
35.4179 	-0.237649 	0.453968 	1.64065 	-1.80742e-20
35.488 	-0.237649 	0.453968 	1.64065 	-1.80742e-20
35.5581 	-0.237649 	0.453968 	1.64065 	-1.80742e-20
35.6283 	-0.197724 	0.4181 	1.61518 	-4.81665e-21
35.6984 	-0.197724 	0.4181 	1.61518 	-4.81665e-21
35.7685 	-0.197724 	0.4181 	1.61518 	-4.81665e-21
35.8387 	-0.197724 	0.4181 	1.61518 	-4.81665e-21
35.9088 	-0.197724 	0.4181 	1.61518 	-4.81665e-21
35.9789 	-0.197724 	0.4181 	1.61518 	-4.81665e-21
36.0491 	-0.197724 	0.4181 	1.61518 	-4.81665e-21
36.1192 	-0.197724 	0.4181 	1.61518 	-4.81665e-21
36.1893 	-0.197724 	0.4181 	1.61518 	-4.81665e-21
36.2595 	-0.197724 	0.4181 	1.61518 	-4.81665e-21
36.3296 	-0.197724 	0.4181 	1.61518 	-4.81665e-21
36.3997 	-0.197724 	0.4181 	1.61518 	-4.81665e-21
36.4699 	-0.197724 	0.4181 	1.61518 	-4.81665e-21
36.54 	-0.197724 	0.4181 	1.61518 	-4.81665e-21
36.6102 	-0.197724 	0.4181 	1.61518 	-4.81665e-21
36.6803 	-0.197724 	0.4181 	1.61518 	-4.81665e-21
36.7504 	-0.197724 	0.4181 	1.61518 	-4.81665e-21
36.8206 	-0.197724 	0.4181 	1.61518 	-4.81665e-21
36.8907 	-0.197724 	0.4181 	1.61518 	-4.81665e-21
36.9608 	-0.197724 	0.4181 	1.61518 	-4.81665e-21
37.031 	-0.197724 	0.4181 	1.61518 	-4.81665e-21
37.1011 	-0.157323 	0.36531 	1.58836 	0
37.1712 	-0.157323 	0.36531 	1.58836 	0
37.2414 	-0.157323 	0.36531 	1.58836 	0
37.3115 	-0.157323 	0.36531 	1.58836 	0
37.3816 	-0.157323 	0.36531 	1.58836 	0
37.4518 	-0.157323 	0.36531 	1.58836 	0
37.5219 	-0.157323 	0.36531 	1.58836 	0
37.592 	-0.157323 	0.36531 	1.58836 	0
37.6622 	-0.157323 	0.36531 	1.58836 	0
37.7323 	-0.157323 	0.36531 	1.58836 	0
37.8024 	-0.157323 	0.36531 	1.58836 	0
37.8726 	-0.157323 	0.36531 	1.58836 	0
37.9427 	-0.157323 	0.36531 	1.58836 	0
38.0128 	-0.157323 	0.36531 	1.58836 	0
38.083 	-0.157323 	0.36531 	1.58836 	0
38.1531 	-0.157323 	0.36531 	1.58836 	0
38.2232 	-0.157323 	0.36531 	1.58836 	0
38.2934 	-0.130057 	0.306899 	1.57119 	0
38.3635 	-0.130057 	0.306899 	1.57119 	0
38.4336 	-0.130057 	0.306899 	1.57119 	0
38.5038 	-0.130057 	0.306899 	1.57119 	0
38.5739 	-0.130057 	0.306899 	1.57119 	0
38.644 	-0.130057 	0.306899 	1.57119 	0
38.7142 	-0.130057 	0.306899 	1.57119 	0
38.7843 	-0.130057 	0.306899 	1.57119 	0
38.8545 	-0.130057 	0.306899 	1.57119 	0
38.9246 	-0.130057 	0.306899 	1.57119 	0
38.9947 	-0.130057 	0.306899 	1.57119 	0
39.0649 	-0.130057 	0.306899 	1.57119 	0
39.135 	-0.130057 	0.306899 	1.57119 	0
39.2051 	-0.130057 	0.306899 	1.57119 	0
39.2753 	-0.130057 	0.306899 	1.57119 	0
39.3454 	-0.130057 	0.306899 	1.57119 	0
39.4155 	-0.130057 	0.306899 	1.57119 	0
39.4857 	-0.130057 	0.306899 	1.57119 	0
39.5558 	-0.117569 	0.247838 	1.56339 	0
39.6259 	-0.117569 	0.247838 	1.56339 	0
39.6961 	-0.117569 	0.247838 	1.56339 	0
39.7662 	-0.117569 	0.247838 	1.56339 	0
39.8363 	-0.117569 	0.247838 	1.56339 	0
39.9065 	-0.117569 	0.247838 	1.56339 	0
39.9766 	-0.117569 	0.247838 	1.56339 	0
40.0467 	-0.117569 	0.247838 	1.56339 	0
40.1169 	-0.117569 	0.247838 	1.56339 	0
40.187 	-0.117569 	0.247838 	1.56339 	0
40.2571 	-0.117569 	0.247838 	1.56339 	0
40.3273 	-0.117569 	0.247838 	1.56339 	0
40.3974 	-0.117569 	0.247838 	1.56339 	0
40.4675 	-0.117569 	0.247838 	1.56339 	0
40.5377 	-0.117569 	0.247838 	1.56339 	0
40.6078 	-0.117569 	0.247838 	1.56339 	0
40.6779 	-0.117569 	0.247838 	1.56339 	0
40.7481 	-0.120585 	0.191145 	1.56595 	0
40.8182 	-0.120585 	0.191145 	1.56595 	0
40.8883 	-0.120585 	0.191145 	1.56595 	0
40.9585 	-0.120585 	0.191145 	1.56595 	0
41.0286 	-0.120585 	0.191145 	1.56595 	0
41.0988 	-0.120585 	0.191145 	1.56595 	0
41.1689 	-0.120585 	0.191145 	1.56595 	0
41.239 	-0.120585 	0.191145 	1.56595 	0
41.3092 	-0.120585 	0.191145 	1.56595 	0
41.3793 	-0.120585 	0.191145 	1.56595 	0
41.4494 	-0.120585 	0.191145 	1.56595 	0
41.5196 	-0.120585 	0.191145 	1.56595 	0
41.5897 	-0.120585 	0.191145 	1.56595 	0
41.6598 	-0.120585 	0.191145 	1.56595 	0
41.73 	-0.120585 	0.191145 	1.56595 	0
41.8001 	-0.120585 	0.191145 	1.56595 	0
41.8702 	-0.120585 	0.191145 	1.56595 	0
41.9404 	-0.120585 	0.191145 	1.56595 	0
42.0105 	-0.131365 	0.138965 	1.57211 	0
42.0806 	-0.131365 	0.138965 	1.57211 	0
42.1508 	-0.131365 	0.138965 	1.57211 	0
42.2209 	-0.131365 	0.138965 	1.57211 	0
42.291 	-0.131365 	0.138965 	1.57211 	0
42.3612 	-0.131365 	0.138965 	1.57211 	0
42.4313 	-0.131365 	0.138965 	1.57211 	0
42.5014 	-0.131365 	0.138965 	1.57211 	0
42.5716 	-0.131365 	0.138965 	1.57211 	0
42.6417 	-0.131365 	0.138965 	1.57211 	0
42.7118 	-0.131365 	0.138965 	1.57211 	0
42.782 	-0.131365 	0.138965 	1.57211 	0
42.8521 	-0.131365 	0.138965 	1.57211 	0
42.9222 	-0.131365 	0.138965 	1.57211 	0
42.9924 	-0.131365 	0.138965 	1.57211 	0
43.0625 	-0.131365 	0.138965 	1.57211 	0
43.1327 	-0.131365 	0.138965 	1.57211 	0
43.2028 	-0.141283 	0.0914925 	1.57689 	0
43.2729 	-0.141283 	0.0914925 	1.57689 	0
43.3431 	-0.141283 	0.0914925 	1.57689 	0
43.4132 	-0.141283 	0.0914925 	1.57689 	0
43.4833 	-0.141283 	0.0914925 	1.57689 	0
43.5535 	-0.141283 	0.0914925 	1.57689 	0
43.6236 	-0.141283 	0.0914925 	1.57689 	0
43.6937 	-0.141283 	0.0914925 	1.57689 	0
43.7639 	-0.141283 	0.0914925 	1.57689 	0
43.834 	-0.141283 	0.0914925 	1.57689 	0
43.9041 	-0.141283 	0.0914925 	1.57689 	0
43.9743 	-0.141283 	0.0914925 	1.57689 	0
44.0444 	-0.141283 	0.0914925 	1.57689 	0
44.1145 	-0.141283 	0.0914925 	1.57689 	0
44.1847 	-0.141283 	0.0914925 	1.57689 	0
44.2548 	-0.141283 	0.0914925 	1.57689 	0
44.3249 	-0.141283 	0.0914925 	1.57689 	0
44.3951 	-0.141283 	0.0914925 	1.57689 	0
44.4652 	-0.145159 	0.0495192 	1.57592 	0
44.5353 	-0.145159 	0.0495192 	1.57592 	0