/*--------------------------------*- C++ -*----------------------------------*\
| =========                 |                                                 |
| \\      /  F ield         | OpenFOAM: The Open Source CFD Toolbox           |
|  \\    /   O peration     | Version:  2306                                  |
|   \\  /    A nd           | Website:  www.openfoam.com                      |
|    \\/     M anipulation  |                                                 |
\*---------------------------------------------------------------------------*/
FoamFile
{
    version     2.0;
    format      ascii;
    arch        "LSB;label=32;scalar=64";
    class       volScalarField;
    location    "44";
    object      p;
}
// * * * * * * * * * * * * * * * * * * * * * * * * * * * * * * * * * * * * * //

dimensions      [0 2 -2 0 0 0 0];

internalField   nonuniform List<scalar> 
8800
(
0.90336
0.855308
0.816928
0.788282
0.767649
0.752881
0.74226
0.734735
0.729867
0.727766
0.729005
0.733186
0.739838
0.749164
0.76191
0.779492
0.803933
0.837543
0.879987
0.937112
0.735896
0.743101
0.751536
0.754947
0.753025
0.747492
0.740766
0.734583
0.729797
0.726905
0.726587
0.729071
0.733562
0.739545
0.746445
0.753057
0.757185
0.756669
0.750603
0.741623
0.712617
0.718791
0.722985
0.726339
0.72883
0.729613
0.728485
0.726313
0.724241
0.723289
0.724215
0.726582
0.729395
0.731598
0.73212
0.730582
0.727728
0.724086
0.71955
0.715765
0.707501
0.7102
0.712914
0.715216
0.716851
0.718161
0.719047
0.719221
0.718918
0.718833
0.71954
0.720662
0.721426
0.721344
0.720534
0.719329
0.717572
0.715066
0.712637
0.711106
0.702333
0.703754
0.705547
0.707592
0.709331
0.710618
0.711618
0.712456
0.713088
0.713629
0.714222
0.714635
0.714632
0.714255
0.713539
0.71232
0.710611
0.708723
0.707396
0.706573
0.697357
0.69827
0.6995
0.70107
0.702708
0.704212
0.705454
0.706492
0.707437
0.708294
0.708915
0.709163
0.709058
0.708589
0.707691
0.706454
0.705086
0.703806
0.702979
0.702435
0.69253
0.693195
0.694145
0.695433
0.696832
0.698282
0.699698
0.700976
0.702122
0.703164
0.703909
0.704205
0.704066
0.703508
0.702649
0.701656
0.700616
0.699674
0.699082
0.698683
0.687829
0.688341
0.689114
0.690228
0.691486
0.69284
0.694261
0.695692
0.697058
0.698311
0.699225
0.699609
0.699504
0.699045
0.69838
0.697608
0.696798
0.696089
0.695648
0.695337
0.68319
0.683597
0.684244
0.685234
0.686419
0.687718
0.689128
0.690637
0.692191
0.693692
0.69482
0.69536
0.695417
0.695156
0.694698
0.694122
0.693503
0.692977
0.692644
0.692393
0.678536
0.678868
0.679426
0.680336
0.68147
0.68275
0.684186
0.685779
0.687501
0.689266
0.690677
0.691475
0.691779
0.691744
0.691492
0.691118
0.690674
0.690299
0.690049
0.68984
0.673785
0.674059
0.674556
0.67542
0.676533
0.677834
0.679334
0.681049
0.682974
0.685039
0.686809
0.687947
0.688548
0.68877
0.688738
0.688561
0.68829
0.688044
0.68786
0.687681
0.668855
0.669085
0.669542
0.670389
0.671523
0.672886
0.674491
0.676382
0.678572
0.681009
0.683223
0.684772
0.685716
0.686227
0.686438
0.686459
0.686357
0.686225
0.686095
0.685938
0.663664
0.663858
0.664296
0.665157
0.666352
0.667822
0.66959
0.671728
0.67427
0.677186
0.679938
0.681964
0.683301
0.684133
0.684611
0.684837
0.684905
0.684882
0.684797
0.684656
0.658121
0.658286
0.658721
0.659625
0.660924
0.662551
0.664546
0.667007
0.669995
0.673511
0.676917
0.679516
0.681316
0.682518
0.683295
0.683764
0.684002
0.684077
0.684031
0.683902
0.652123
0.652262
0.652709
0.653685
0.655131
0.656973
0.659267
0.662136
0.665683
0.669937
0.674142
0.677433
0.679791
0.68143
0.682549
0.683281
0.683707
0.683886
0.683877
0.683756
0.645548
0.645662
0.646133
0.647209
0.648852
0.650974
0.653651
0.657041
0.661283
0.666438
0.671622
0.675757
0.678782
0.680938
0.682453
0.683484
0.684124
0.684411
0.684439
0.684322
0.638229
0.638319
0.638829
0.640043
0.641938
0.644421
0.647596
0.651659
0.656784
0.663063
0.66943
0.674563
0.678369
0.68113
0.683117
0.684495
0.685373
0.685776
0.685838
0.685722
0.629962
0.630053
0.630614
0.631975
0.63419
0.637137
0.640942
0.645844
0.652071
0.659737
0.667538
0.673869
0.678604
0.682091
0.684652
0.68644
0.687587
0.688115
0.688212
0.688095
0.620445
0.620513
0.621157
0.622733
0.625364
0.628904
0.633505
0.639458
0.647041
0.656396
0.665941
0.673722
0.679579
0.683929
0.687165
0.68945
0.690915
0.691584
0.691717
0.691595
0.609328
0.609378
0.610117
0.611995
0.615156
0.619458
0.625081
0.632388
0.641698
0.653145
0.664788
0.674268
0.681429
0.686799
0.690822
0.693694
0.695523
0.696347
0.696514
0.696383
0.596076
0.59611
0.596992
0.59927
0.603135
0.608441
0.615404
0.624455
0.635937
0.649952
0.664091
0.675569
0.684264
0.690825
0.695775
0.699333
0.701578
0.702567
0.702766
0.702621
0.579935
0.57996
0.581049
0.58388
0.588698
0.595359
0.604105
0.61542
0.62963
0.646763
0.663877
0.677689
0.688155
0.696097
0.702144
0.706506
0.709222
0.710384
0.710604
0.71044
0.559756
0.559781
0.5612
0.56487
0.571084
0.579679
0.590904
0.605255
0.622966
0.643891
0.664427
0.68084
0.693281
0.702782
0.710025
0.715305
0.718523
0.719848
0.720074
0.719883
0.533728
0.533778
0.535781
0.540839
0.549238
0.560697
0.575418
0.593794
0.615858
0.641273
0.665726
0.685063
0.699672
0.710884
0.719463
0.725721
0.729439
0.730895
0.731105
0.730883
0.498816
0.498979
0.502194
0.509837
0.521966
0.537838
0.557576
0.581276
0.608714
0.639337
0.668099
0.690536
0.707434
0.72043
0.730438
0.737674
0.741818
0.743334
0.743499
0.743242
0.449258
0.450256
0.45672
0.469704
0.488351
0.511066
0.537733
0.568153
0.601919
0.63834
0.671698
0.697348
0.716571
0.731387
0.742826
0.750963
0.755387
0.756859
0.756948
0.756657
0.376312
0.383624
0.398599
0.421493
0.449849
0.481715
0.51685
0.555028
0.595856
0.638638
0.677004
0.706192
0.728037
0.744921
0.757991
0.767005
0.771712
0.77318
0.773244
0.772991
0.29795
0.314718
0.338999
0.372537
0.411086
0.452271
0.495988
0.542184
0.590552
0.640496
0.684942
0.718695
0.743992
0.763571
0.778699
0.788878
0.79381
0.795188
0.795288
0.795175
0.232104
0.252038
0.284155
0.326687
0.374224
0.424203
0.47626
0.530319
0.586082
0.642973
0.693218
0.73125
0.759747
0.781795
0.798676
0.80958
0.814562
0.816045
0.816211
0.816174
0.178147
0.199966
0.237534
0.286504
0.341086
0.398459
0.457893
0.519184
0.581902
0.645404
0.701124
0.743127
0.774523
0.798693
0.817039
0.828916
0.834663
0.836137
0.836329
0.836352
0.133235
0.156273
0.1976
0.251669
0.311934
0.375394
0.441132
0.50883
0.577897
0.647547
0.70839
0.754049
0.788047
0.814187
0.833972
0.846837
0.853085
0.854712
0.854988
0.855032
0.0949139
0.118669
0.162849
0.220942
0.285985
0.354623
0.425827
0.499195
0.57401
0.649326
0.714908
0.763927
0.800308
0.828192
0.849147
0.862706
0.869392
0.871346
0.87171
0.871768
0.0611963
0.0854382
0.131892
0.193288
0.262355
0.335491
0.41154
0.490005
0.570061
0.650605
0.72058
0.77269
0.811204
0.840516
0.862306
0.876393
0.883479
0.885768
0.886204
0.886257
0.0306231
0.0552926
0.103605
0.167823
0.240354
0.317423
0.397812
0.480912
0.565805
0.651238
0.725356
0.780352
0.820761
0.851201
0.873551
0.887993
0.895361
0.897897
0.898409
0.898456
0.00226128
0.0273284
0.07727
0.143868
0.219453
0.300006
0.384291
0.471631
0.561038
0.651116
0.729228
0.786999
0.829152
0.86056
0.883287
0.898004
0.905588
0.908291
0.908815
0.908839
-0.0246475
0.000851821
0.0523106
0.120963
0.199268
0.282933
0.370732
0.461972
0.55561
0.650157
0.732208
0.792729
0.836555
0.868829
0.891951
0.906824
0.914536
0.917316
0.917844
0.917826
-0.0504426
-0.024495
0.0280762
0.0988132
0.179536
0.265995
0.356983
0.451813
0.549434
0.648321
0.734313
0.797622
0.843129
0.876259
0.899762
0.914798
0.922547
0.925328
0.925877
0.92585
-0.0755084
-0.0489689
0.00463602
0.0772124
0.160092
0.24906
0.342949
0.441083
0.542454
0.645564
0.735541
0.801743
0.849023
0.883083
0.906999
0.92217
0.929926
0.932656
0.933146
0.933081
-0.0999526
-0.0729883
-0.0181816
0.0560239
0.140842
0.232069
0.328582
0.429754
0.534643
0.641854
0.735878
0.805137
0.854354
0.889465
0.913857
0.929153
0.936851
0.939482
0.93988
0.939757
-0.12388
-0.096366
-0.0405073
0.0351718
0.121751
0.215004
0.31388
0.417822
0.525994
0.637159
0.735276
0.807809
0.859196
0.895523
0.920432
0.93579
0.943314
0.945763
0.946052
0.945881
-0.147364
-0.119247
-0.0623828
0.0146589
0.102811
0.19788
0.298874
0.405321
0.516519
0.63145
0.73367
0.809712
0.863596
0.901369
0.926833
0.942144
0.949365
0.951538
0.951715
0.951512
-0.17041
-0.141618
-0.0837989
-0.00549857
0.0840694
0.180738
0.283617
0.392303
0.506252
0.624703
0.730988
0.810768
0.867545
0.907117
0.933233
0.948323
0.955021
0.95682
0.956875
0.956653
-0.192847
-0.163427
-0.10469
-0.0252667
0.0655655
0.163649
0.268174
0.378845
0.495251
0.616938
0.727157
0.810866
0.870969
0.912856
0.93988
0.954562
0.960372
0.961608
0.961525
0.9613
-0.21464
-0.184626
-0.125031
-0.0445859
0.0473603
0.146675
0.252639
0.365026
0.483594
0.60818
0.722126
0.809869
0.873725
0.918581
0.947094
0.961354
0.965725
0.965957
0.965654
0.965476
-0.235852
-0.205169
-0.144787
-0.0634173
0.0295192
0.1299
0.2371
0.350948
0.471372
0.598493
0.715851
0.807634
0.875582
0.924102
0.955094
0.969537
0.972057
0.970314
0.969322
0.969369
-0.256307
-0.22504
-0.163896
-0.0816959
0.0121026
0.113408
0.221652
0.336722
0.458699
0.587975
0.708325
0.804008
0.876249
0.928972
0.963657
0.979964
0.9815
0.976955
0.973593
0.972849
-0.276093
-0.244235
-0.182373
-0.0994511
-0.00492481
0.0971531
0.206236
0.322282
0.445499
0.576548
0.699406
0.79872
0.875404
0.932561
0.971877
0.992559
0.996179
0.99067
0.98082
0.970837
-0.295138
-0.26274
-0.200348
-0.116882
-0.0218603
0.0807931
0.190428
0.307135
0.431219
0.56356
0.688425
0.790948
0.872417
0.933947
0.977609
1.00422
1.01111
1.00081
0.980939
0.973141
-0.313265
-0.280574
-0.217642
-0.133777
-0.0384033
0.0646589
0.174449
0.291611
0.416173
0.549281
0.675504
0.780244
0.866647
0.932004
0.97622
1.00256
1.01311
0.990166
0.923659
0.894106
-0.330013
-0.298992
-0.233875
-0.149572
-0.0537839
0.0492699
0.158604
0.27596
0.40061
0.533866
0.660653
0.766305
0.857016
0.926184
0.963381
0.982728
0.977204
0.925348
0.856987
0.815455
-0.380551
-0.31619
-0.248705
-0.16513
-0.069304
0.0333574
0.142915
0.259962
0.384219
0.516907
0.643347
0.748729
0.839893
0.91558
0.928512
0.930328
0.88787
0.8216
0.746424
0.704847
-0.347762
-0.330763
-0.270819
-0.187
-0.0923938
0.0100692
0.118773
0.235141
0.358325
0.489337
0.613503
0.716702
0.798743
0.878373
0.871056
0.764107
0.664435
0.594257
0.523119
0.55643
-0.379614
-0.349252
-0.287978
-0.204949
-0.110252
-0.00801538
0.100888
0.216618
0.33875
0.467931
0.589199
0.68842
0.761788
0.804284
0.759364
0.617008
0.495526
0.407955
0.312316
0.364094
-0.403858
-0.371098
-0.308087
-0.224889
-0.130134
-0.0279546
0.0808676
0.195787
0.316527
0.443273
0.560737
0.654035
0.718278
0.726437
0.624647
0.458994
0.31346
0.199406
0.0734903
0.109648
-0.427627
-0.393489
-0.329185
-0.245173
-0.150269
-0.0482004
0.0601447
0.174121
0.293269
0.417211
0.530014
0.616516
0.665227
0.642898
0.489171
0.299973
0.118978
-0.0419777
-0.224674
-0.232999
-0.450898
-0.416305
-0.351105
-0.266382
-0.171272
-0.0693812
0.0383605
0.151275
0.26858
0.389362
0.496869
0.576225
0.606289
0.54866
0.360351
0.155036
-0.0520566
-0.227687
-0.472545
-0.737066
-0.4745
-0.439869
-0.374154
-0.28895
-0.193617
-0.091846
0.0153657
0.127195
0.242561
0.359971
0.461944
0.532948
0.543385
0.435602
0.247673
0.0402121
-0.160276
-0.321631
-0.39644
-0.505526
-0.499391
-0.464652
-0.398667
-0.313224
-0.217812
-0.116248
-0.00965408
0.100923
0.214035
0.327573
0.423612
0.484029
0.470473
0.328529
0.146814
-0.0439966
-0.208176
-0.297279
-0.319731
-0.336176
-0.525845
-0.490966
-0.424808
-0.339286
-0.243984
-0.142794
-0.0370539
0.0719738
0.182406
0.291417
0.381032
0.427781
0.396489
0.228511
0.0550695
-0.110866
-0.23601
-0.273512
-0.285598
-0.286768
-0.554069
-0.518974
-0.452628
-0.367125
-0.272075
-0.171483
-0.0668468
0.0403
0.147609
0.25147
0.333826
0.366163
0.315234
0.135986
-0.0284011
-0.175131
-0.249422
-0.266512
-0.267694
-0.267508
-0.584118
-0.548723
-0.482143
-0.396734
-0.302093
-0.202295
-0.0990289
0.00589257
0.109653
0.20778
0.281891
0.302142
0.216456
0.0511146
-0.105331
-0.223801
-0.259624
-0.257869
-0.257533
-0.257046
-0.615696
-0.580056
-0.513245
-0.428018
-0.33394
-0.235164
-0.133557
-0.0312143
0.0685855
0.160436
0.225974
0.229298
0.124533
-0.0285305
-0.166444
-0.238707
-0.249082
-0.251489
-0.251861
-0.25157
-0.648249
-0.612466
-0.545683
-0.46074
-0.367416
-0.269914
-0.170259
-0.0708771
0.0246082
0.109756
0.166531
0.153867
0.0393523
-0.0972982
-0.20947
-0.24613
-0.25026
-0.250285
-0.249857
-0.249362
-0.681311
-0.645391
-0.578996
-0.49449
-0.402159
-0.306202
-0.208823
-0.112786
-0.021976
0.0564411
0.102442
0.079242
-0.0428387
-0.155145
-0.238286
-0.250539
-0.24867
-0.249719
-0.250045
-0.249746
-0.714012
-0.678164
-0.612277
-0.528651
-0.437604
-0.343525
-0.24876
-0.156406
-0.0706983
0.001242
0.0365642
0.00797572
-0.122616
-0.206721
-0.241452
-0.255905
-0.254235
-0.250863
-0.249927
-0.2499
-0.744766
-0.709662
-0.644567
-0.562282
-0.472951
-0.381142
-0.289364
-0.200951
-0.120731
-0.0550868
-0.025574
-0.0706613
-0.200401
-0.277425
-0.261709
-0.271795
-0.264215
-0.255013
-0.251579
-0.250551
-0.771996
-0.737961
-0.674779
-0.594193
-0.507125
-0.418064
-0.3297
-0.245439
-0.170737
-0.111521
-0.0852586
-0.146202
-0.274488
-0.385329
-0.369717
-0.333737
-0.299877
-0.28254
-0.274137
-0.270688
-0.793634
-0.761257
-0.700803
-0.622973
-0.538812
-0.453083
-0.368584
-0.288706
-0.219168
-0.166552
-0.144245
-0.20835
-0.323128
-0.507703
-0.550227
-0.4263
-0.372682
-0.351598
-0.338363
-0.331394
-0.807469
-0.77772
-0.720791
-0.646716
-0.566465
-0.484795
-0.404675
-0.329398
-0.264554
-0.217868
-0.195282
-0.24552
-0.305146
-0.394714
-0.396507
-0.402975
-0.416811
-0.415384
-0.406495
-0.404458
-0.81089
-0.785073
-0.732835
-0.66362
-0.588343
-0.511724
-0.436486
-0.366093
-0.305414
-0.263151
-0.233394
-0.24577
-0.201661
-0.159497
-0.25481
-0.351002
-0.400855
-0.41403
-0.417408
-0.418824
-0.802037
-0.780996
-0.734857
-0.672075
-0.602941
-0.532247
-0.462572
-0.397227
-0.340706
-0.301825
-0.263114
-0.254405
-0.193229
-0.127078
-0.274666
-0.377719
-0.437453
-0.459613
-0.465911
-0.467565
-0.778394
-0.762315
-0.725064
-0.67088
-0.609233
-0.545252
-0.481531
-0.421236
-0.369393
-0.3322
-0.298665
-0.348738
-0.335468
-0.230744
-0.260231
-0.460076
-0.590987
-0.592818
-0.585812
-0.584885
-0.742299
-0.731714
-0.703985
-0.660129
-0.607104
-0.550347
-0.492444
-0.436741
-0.388564
-0.356129
-0.345986
-0.467991
-0.618494
-0.620677
-0.668119
-0.781599
-0.805102
-0.727963
-0.672882
-0.687185
-0.699913
-0.693857
-0.676168
-0.642424
-0.598255
-0.548059
-0.495144
-0.442373
-0.39495
-0.364006
-0.358565
-0.553799
-1.03521
-1.75828
-2.1569
-2.29759
-2.10106
-1.75492
-1.46663
-1.36506
-0.660209
-0.656716
-0.647462
-0.622995
-0.585654
-0.540268
-0.490389
-0.437906
-0.387358
-0.348284
-0.358807
-0.510661
-0.903959
-1.3561
-1.63457
-1.72239
-1.64743
-1.45269
-1.25827
-1.15481
-0.630212
-0.628098
-0.623485
-0.606507
-0.574074
-0.530505
-0.480342
-0.424547
-0.365723
-0.309486
-0.268821
-0.259685
-0.206608
-0.0201038
0.226668
0.497493
0.738459
0.894814
0.994238
1.04357
-0.606296
-0.60547
-0.604215
-0.594752
-0.566645
-0.5227
-0.468409
-0.405424
-0.335479
-0.253643
-0.166023
-0.0427799
0.211519
0.648312
1.13782
1.57545
1.88259
2.06262
2.15115
2.17709
-0.591708
-0.591159
-0.590761
-0.586367
-0.563114
-0.517673
-0.45729
-0.385584
-0.301457
-0.203588
-0.0907345
0.0377307
0.348163
0.817895
1.33752
1.80519
2.14688
2.34877
2.44069
2.46615
-0.582845
-0.582417
-0.581889
-0.580885
-0.563048
-0.516541
-0.44958
-0.369571
-0.275853
-0.171238
-0.0563357
0.052223
0.290585
0.739471
1.2078
1.62541
1.93507
2.11244
2.18996
2.21164
-0.579047
-0.577674
-0.575511
-0.576226
-0.566361
-0.520154
-0.446343
-0.358684
-0.260837
-0.154125
-0.0481877
0.0590324
0.206696
0.58065
0.971903
1.29517
1.535
1.67173
1.73173
1.74834
-0.590197
-0.5878
-0.585993
-0.588751
-0.581288
-0.528984
-0.444397
-0.348273
-0.248128
-0.141478
-0.0418096
0.0559688
0.174066
0.440764
0.729426
0.959828
1.1312
1.23096
1.27551
1.287
-0.617689
-0.618344
-0.624955
-0.629123
-0.612415
-0.538337
-0.436836
-0.332529
-0.231696
-0.129522
-0.0383464
0.0442479
0.1234
0.29903
0.510097
0.676759
0.800946
0.870746
0.900369
0.90784
-0.624629
-0.633463
-0.647263
-0.649595
-0.614787
-0.521667
-0.410162
-0.305768
-0.210895
-0.119277
-0.0403624
0.0279032
0.0869515
0.208816
0.354685
0.469852
0.55642
0.606392
0.627901
0.631285
-0.532583
-0.543312
-0.556597
-0.556229
-0.52058
-0.43984
-0.348711
-0.261638
-0.182447
-0.106417
-0.0384484
0.0173274
0.0695872
0.146127
0.247338
0.326334
0.38285
0.414727
0.426999
0.428278
-0.342154
-0.349089
-0.358076
-0.360158
-0.341632
-0.301125
-0.2517
-0.198295
-0.143471
-0.0863815
-0.0335141
0.00719731
0.0489538
0.0958275
0.159939
0.214508
0.255698
0.278809
0.288371
0.288632
-0.13944
-0.142946
-0.149841
-0.158535
-0.163348
-0.160303
-0.14867
-0.128389
-0.100492
-0.0650068
-0.0293991
0.00154353
0.0290707
0.0596855
0.101066
0.138587
0.164715
0.180113
0.185016
0.184319
0.00379268
0.00159371
-0.00474668
-0.0183757
-0.0378069
-0.0561956
-0.0675819
-0.0696523
-0.0615837
-0.0438772
-0.0222768
-0.00225517
0.0147483
0.0307718
0.0555956
0.0808484
0.0990073
0.108184
0.110726
0.109578
0.074256
0.0730863
0.0675557
0.0535125
0.0310778
0.00672048
-0.0135894
-0.0265176
-0.0305103
-0.0256109
-0.0161972
-0.00711737
-0.000921729
0.00893988
0.0253956
0.0409874
0.051453
0.0560797
0.0571761
0.0559057
0.0976075
0.0966419
0.0921737
0.0806215
0.0615923
0.0394903
0.0185537
0.00193223
-0.00841134
-0.0119764
-0.0114848
-0.01089
-0.0114538
-0.00739906
0.00382991
0.0135726
0.0189793
0.0205055
0.0203808
0.0193117
0.09707
0.0963751
0.093169
0.084776
0.0705185
0.0529202
0.0348779
0.0189027
0.00664553
-0.00132
-0.00659009
-0.0115618
-0.016331
-0.0146002
-0.00771751
-0.00249617
-0.000422922
-0.000357779
-0.00100959
-0.00187913
0.0870206
0.0865671
0.0844389
0.0787591
0.0687913
0.0558754
0.0416971
0.0280363
0.0161867
0.00668994
-0.00141594
-0.00935664
-0.0159378
-0.0143299
-0.00974518
-0.00765594
-0.0074979
-0.00872823
-0.00961271
-0.0103448
0.0742084
0.0739252
0.0725886
0.0689571
0.0623475
0.0533557
0.0429601
0.0322955
0.0221991
0.0131709
0.00476774
-0.00377468
-0.0102366
-0.00844928
-0.00526599
-0.00457402
-0.00565271
-0.00713956
-0.00792495
-0.00853713
0.0615993
0.0614196
0.0606254
0.0584611
0.0543677
0.0484948
0.0413551
0.0336446
0.0259714
0.0189511
0.0124224
0.00590729
0.00152955
0.00419424
0.00580085
0.00539345
0.00382157
0.00244595
0.00179396
0.00124658
0.0504713
0.0503449
0.0499033
0.048733
0.0464079
0.0428627
0.038327
0.0332615
0.0282077
0.0238421
0.0210416
0.0189214
0.0184333
0.0212658
0.0215314
0.0201151
0.0185872
0.0176448
0.017173
0.0166136
0.0411787
0.0410896
0.0408632
0.0403288
0.0391794
0.0372778
0.0346909
0.0317967
0.0291758
0.0278852
0.0294457
0.0330913
0.0368534
0.0395656
0.0381365
0.0363849
0.0353672
0.0351357
0.0348779
0.0342685
0.0335758
0.0335151
0.0334152
0.0332438
0.0328241
0.031982
0.0307806
0.0295038
0.0288169
0.0301443
0.0356905
0.0450619
0.0541165
0.054802
0.0521526
0.0504893
0.0505722
0.0512168
0.0511028
0.0503557
0.0272445
0.0272028
0.0271678
0.0271719
0.027119
0.0268898
0.0265196
0.0262802
0.0268564
0.0297409
0.0375585
0.0504566
0.0621215
0.0620121
0.0587437
0.0581088
0.0595925
0.0611746
0.0611204
0.0602865
0.0217129
0.0216891
0.0216905
0.021738
0.0218312
0.0218991
0.0219603
0.0222681
0.02333
0.026513
0.0338411
0.0457759
0.0562494
0.0556947
0.0545567
0.0571795
0.0603888
0.0628181
0.0626656
0.0617439
0.0165227
0.0165033
0.0165018
0.0165459
0.0166958
0.0168666
0.0170821
0.0174772
0.0184659
0.0207519
0.0251963
0.0313056
0.0362828
0.036053
0.0393713
0.045451
0.0514919
0.0541126
0.0539592
0.0530841
0.011423
0.0114001
0.0113957
0.0114168
0.0115253
0.0117008
0.0118912
0.0122471
0.0129257
0.0137657
0.0139694
0.0120175
0.00880541
0.0105229
0.019429
0.02906
0.0354183
0.0377178
0.0374671
0.0367544
0.00629764
0.00626024
0.00625102
0.00626637
0.00635153
0.00644133
0.00655179
0.00683662
0.00713152
0.00734153
0.00495156
-0.00299531
-0.0127228
-0.00873809
0.00299458
0.0127407
0.0178333
0.0192724
0.0187771
0.0181934
0.00141095
0.00137873
0.00137273
0.00137486
0.00124292
0.00111603
0.00125639
0.00139132
0.00149495
0.00165551
0.00162437
-0.000894437
-0.00477304
-0.00441935
-0.00188128
-0.000254075
-0.00177384
-0.00222658
-0.000152565
0.00110199
-0.0356277
0.153071
0.35505
0.52449
0.660099
0.767451
0.856919
0.931968
0.962507
0.946278
0.292015
0.416074
0.545916
0.658155
0.752845
0.831443
0.894706
0.938987
0.961963
0.974771
0.513168
0.597289
0.685592
0.764211
0.831733
0.888144
0.932806
0.965675
0.989787
1.00764
0.673869
0.733603
0.795605
0.852992
0.90272
0.944845
0.97945
1.0074
1.03008
1.04833
0.799711
0.842551
0.889837
0.933274
0.972025
1.00586
1.03486
1.05929
1.07918
1.09712
0.903904
0.937115
0.975757
1.01132
1.04392
1.07324
1.09893
1.12071
1.13781
1.1554
0.996685
1.02566
1.0598
1.09208
1.12206
1.14932
1.17321
1.19311
1.20776
1.22521
1.0854
1.11488
1.14891
1.18111
1.21076
1.23741
1.26036
1.27883
1.29151
1.30897
1.18081
1.21442
1.25087
1.28461
1.31466
1.34083
1.36276
1.37985
1.39131
1.40911
1.29574
1.33432
1.37255
1.40677
1.43603
1.4607
1.481
1.4967
1.50804
1.52638
1.44047
1.47995
1.51551
1.54592
1.57148
1.59354
1.61255
1.62807
1.64072
1.65885
1.61521
1.64726
1.67305
1.69539
1.71544
1.73418
1.7518
1.76835
1.78409
1.80229
1.80282
1.82037
1.8359
1.85249
1.86864
1.88319
1.89621
1.91018
1.92727
1.94695
1.9844
1.99538
2.00752
2.01831
2.02756
2.03712
2.048
2.05959
2.06954
2.08471
2.19543
2.19745
2.18229
2.16705
2.16067
2.16634
2.18494
2.21536
2.24749
2.27824
2.50133
2.36429
2.288
2.2459
2.22846
2.2325
2.25985
2.31599
2.41945
2.63473
0.799652
0.796275
0.790346
0.780536
0.767589
0.75516
0.74484
0.736881
0.731207
0.727901
0.7275
0.730209
0.735306
0.74254
0.751967
0.763648
0.776773
0.788761
0.796215
0.800933
0.717671
0.723556
0.730458
0.735694
0.738534
0.738198
0.735283
0.731346
0.727759
0.725441
0.725246
0.727412
0.731073
0.735409
0.739343
0.741334
0.740214
0.736117
0.73022
0.723175
0.710028
0.712375
0.715721
0.718623
0.720832
0.722622
0.723568
0.723294
0.722239
0.721308
0.721432
0.722815
0.724598
0.725852
0.725878
0.724692
0.722873
0.720522
0.717361
0.714395
0.704901
0.705987
0.707849
0.710224
0.712175
0.713554
0.714633
0.715469
0.715907
0.716112
0.716551
0.717287
0.71779
0.717726
0.717178
0.716286
0.714867
0.712798
0.710679
0.709262
0.699827
0.700482
0.701586
0.703299
0.705092
0.706693
0.707939
0.708938
0.709822
0.710596
0.711267
0.711726
0.711821
0.711577
0.710985
0.70993
0.708471
0.706883
0.705549
0.704763
0.69493
0.695385
0.696164
0.697451
0.698931
0.700446
0.701888
0.703142
0.704232
0.705235
0.706074
0.706549
0.706617
0.706293
0.705555
0.704515
0.703345
0.702186
0.701262
0.700739
0.69017
0.690511
0.691116
0.692173
0.693447
0.694805
0.696225
0.697637
0.698952
0.700154
0.701167
0.701758
0.701851
0.701501
0.700832
0.699997
0.699105
0.698212
0.697524
0.69714
0.68551
0.685775
0.686262
0.687159
0.68831
0.689581
0.690946
0.692396
0.693877
0.695308
0.696538
0.697281
0.697469
0.697248
0.696771
0.696145
0.695446
0.694768
0.694258
0.693964
0.680874
0.681084
0.681489
0.682276
0.683346
0.684567
0.685915
0.6874
0.689002
0.690655
0.692146
0.693114
0.693507
0.6935
0.693234
0.692809
0.692298
0.6918
0.691424
0.691193
0.676181
0.676351
0.676697
0.677411
0.678433
0.67963
0.681
0.682556
0.684294
0.686176
0.687975
0.689262
0.689943
0.690193
0.690152
0.689931
0.689609
0.689269
0.689004
0.68882
0.67135
0.671487
0.671792
0.672461
0.673465
0.674683
0.676111
0.67778
0.679705
0.681866
0.684041
0.685728
0.686758
0.687303
0.687514
0.687505
0.687366
0.687175
0.687002
0.686854
0.6663
0.66641
0.666687
0.667337
0.668358
0.669641
0.671175
0.673011
0.675194
0.677714
0.680358
0.682525
0.683958
0.684838
0.685326
0.685543
0.685589
0.685542
0.685448
0.685328
0.660946
0.661032
0.661293
0.661948
0.663023
0.664414
0.666106
0.66818
0.6707
0.673685
0.67691
0.67965
0.681554
0.682817
0.683613
0.684087
0.68433
0.684418
0.684393
0.684297
0.655191
0.655257
0.655509
0.656191
0.657357
0.658902
0.660813
0.663198
0.666146
0.669715
0.673656
0.677087
0.679556
0.681271
0.682423
0.683182
0.68364
0.683871
0.683912
0.683834
0.648919
0.648964
0.649215
0.649947
0.651242
0.652994
0.655195
0.657973
0.661456
0.665737
0.67055
0.674832
0.677992
0.680248
0.681816
0.682893
0.683603
0.683985
0.684091
0.684031
0.641991
0.642016
0.642271
0.643075
0.644543
0.646565
0.64914
0.65243
0.656599
0.661776
0.667659
0.672963
0.676936
0.679828
0.681881
0.683333
0.684327
0.684873
0.685046
0.685
0.634235
0.634246
0.634506
0.635395
0.637093
0.639451
0.642504
0.646445
0.651481
0.657773
0.664966
0.671501
0.676441
0.680082
0.682719
0.68462
0.685936
0.686664
0.686906
0.686873
0.625356
0.625335
0.62565
0.62668
0.628643
0.631437
0.635103
0.639862
0.645973
0.653648
0.662445
0.670454
0.676556
0.681095
0.684427
0.686875
0.688566
0.6895
0.689817
0.689796
0.615083
0.615038
0.615393
0.616602
0.618919
0.622273
0.626716
0.632509
0.639971
0.649338
0.660084
0.669893
0.67738
0.682986
0.687149
0.690235
0.692373
0.693544
0.693941
0.693928
0.602947
0.602874
0.603307
0.604758
0.607538
0.611626
0.617083
0.624228
0.633437
0.644958
0.658073
0.669971
0.679058
0.685908
0.691044
0.69487
0.697526
0.698962
0.69944
0.699433
0.588324
0.588223
0.588773
0.590555
0.59395
0.599016
0.605812
0.614709
0.626114
0.640261
0.656229
0.670638
0.681624
0.68993
0.696219
0.700923
0.704182
0.705911
0.706471
0.706462
0.570269
0.570142
0.570883
0.573152
0.577419
0.58385
0.592489
0.60375
0.618035
0.635482
0.654855
0.672123
0.685244
0.695197
0.702802
0.708515
0.712456
0.714499
0.715131
0.71511
0.547334
0.547195
0.548268
0.551311
0.55691
0.565368
0.576645
0.591137
0.609144
0.630639
0.653994
0.674523
0.690027
0.70182
0.710859
0.717706
0.722376
0.724726
0.725407
0.725363
0.517178
0.517066
0.518748
0.523144
0.530999
0.542633
0.557798
0.576739
0.599527
0.6259
0.65383
0.677956
0.696045
0.709803
0.720411
0.728467
0.733864
0.736472
0.737164
0.737085
0.475662
0.475723
0.478756
0.486002
0.498072
0.514938
0.53589
0.560854
0.589618
0.621712
0.654708
0.682654
0.703426
0.719215
0.731448
0.740726
0.746735
0.749471
0.750118
0.749996
0.415096
0.416292
0.423736
0.437401
0.457206
0.482395
0.511487
0.544103
0.579926
0.618398
0.656793
0.688678
0.71216
0.729949
0.74375
0.754148
0.760613
0.763288
0.76378
0.763619
0.342562
0.344656
0.359024
0.382649
0.413214
0.448223
0.486216
0.527042
0.57051
0.616117
0.660887
0.697772
0.724925
0.745546
0.761443
0.773201
0.780241
0.782987
0.783526
0.783477
0.267829
0.274257
0.295628
0.329364
0.370256
0.414845
0.461733
0.510845
0.562061
0.61494
0.666295
0.708404
0.739372
0.762973
0.781248
0.794519
0.801977
0.804455
0.80483
0.804881
0.20693
0.215446
0.241399
0.282199
0.331092
0.383819
0.438743
0.495615
0.554236
0.614116
0.671768
0.718783
0.753282
0.779543
0.799777
0.814253
0.821878
0.824562
0.825341
0.825461
0.15721
0.166332
0.195827
0.241831
0.296807
0.356082
0.417773
0.481489
0.546863
0.613284
0.676866
0.728461
0.766177
0.7948
0.816803
0.83242
0.840933
0.844204
0.84512
0.845253
0.11545
0.12484
0.156772
0.206764
0.266723
0.331436
0.398844
0.468516
0.539936
0.612349
0.681446
0.73728
0.777929
0.808714
0.832357
0.849035
0.858351
0.862047
0.863124
0.863267
0.0792521
0.0887589
0.122528
0.17572
0.239786
0.30913
0.381523
0.456459
0.533318
0.611215
0.685405
0.745149
0.788484
0.821181
0.84612
0.863628
0.873567
0.877657
0.878836
0.878988
0.0469821
0.0565433
0.0917254
0.147624
0.215129
0.288453
0.365249
0.444915
0.526735
0.609689
0.688627
0.752012
0.797797
0.832108
0.857985
0.876043
0.886533
0.890953
0.89219
0.892344
0.017401
0.0270303
0.0633666
0.121593
0.192058
0.268864
0.349572
0.43352
0.519903
0.607593
0.691035
0.757895
0.80595
0.841662
0.86826
0.886703
0.897437
0.902121
0.903469
0.903626
-0.0103166
-0.000619955
0.0367738
0.0969786
0.170076
0.249967
0.334169
0.422003
0.512615
0.604786
0.692585
0.762844
0.813092
0.850078
0.877293
0.89602
0.906942
0.911802
0.913166
0.913307
-0.0367154
-0.0269165
0.0114614
0.0733288
0.148827
0.231467
0.318817
0.410198
0.504736
0.601173
0.693253
0.766919
0.819345
0.857551
0.885344
0.904344
0.915383
0.920281
0.921648
0.921736
-0.0622388
-0.0522478
-0.0130293
0.0504497
0.128074
0.213178
0.303371
0.397993
0.496187
0.596702
0.693018
0.770158
0.824828
0.864295
0.892686
0.911944
0.92308
0.927957
0.929282
0.929345
-0.0871008
-0.0768748
-0.0369009
0.02818
0.10768
0.194987
0.287752
0.385333
0.486921
0.591335
0.691856
0.772578
0.829632
0.870474
0.899548
0.919078
0.930269
0.935083
0.936327
0.936372
-0.111381
-0.100935
-0.0601231
0.00635074
0.087559
0.176855
0.271929
0.372199
0.476925
0.58504
0.689727
0.774179
0.833818
0.87621
0.906067
0.92588
0.937059
0.941726
0.942848
0.942835
-0.13519
-0.124443
-0.0828521
-0.0150722
0.0676837
0.158765
0.255909
0.358607
0.466212
0.577812
0.686583
0.77491
0.837408
0.881601
0.912353
0.932406
0.943461
0.947896
0.948841
0.948766
-0.158481
-0.147441
-0.10509
-0.0360886
0.0480731
0.140745
0.239737
0.344603
0.454818
0.56965
0.682373
0.774694
0.840375
0.886716
0.918544
0.93878
0.949519
0.953569
0.954312
0.954187
-0.181285
-0.169923
-0.126777
-0.0566712
0.0287588
0.122841
0.223462
0.330256
0.442801
0.560576
0.677057
0.773439
0.842636
0.891585
0.924811
0.945198
0.955351
0.958791
0.959273
0.959102
-0.203408
-0.191806
-0.147883
-0.0767684
0.00979721
0.105128
0.207158
0.315641
0.430239
0.55065
0.670611
0.771048
0.844064
0.896162
0.931336
0.952015
0.96122
0.96363
0.963714
0.963506
-0.224977
-0.21303
-0.16838
-0.0963468
-0.00877265
0.0876499
0.19092
0.300842
0.417218
0.53995
0.663045
0.767419
0.844485
0.900279
0.938197
0.959757
0.967801
0.96845
0.967679
0.967412
-0.245832
-0.233566
-0.188235
-0.115353
-0.0268678
0.070494
0.17483
0.28598
0.403849
0.528545
0.6544
0.762461
0.843693
0.903626
0.945191
0.968898
0.976424
0.974663
0.971778
0.970698
-0.266018
-0.253455
-0.207391
-0.133732
-0.0444493
0.0537302
0.158974
0.271135
0.390241
0.51657
0.644753
0.756089
0.841481
0.905772
0.951645
0.979203
0.988478
0.985607
0.978805
0.969348
-0.285459
-0.272663
-0.225933
-0.151644
-0.061736
0.0370705
0.143005
0.255892
0.375929
0.503502
0.633554
0.747694
0.8373
0.906216
0.956606
0.989469
1.00387
1.00253
0.992196
0.986837
-0.3041
-0.291179
-0.24386
-0.169043
-0.0787129
0.0205297
0.12695
0.240233
0.360877
0.489229
0.62063
0.736902