/*--------------------------------*- C++ -*----------------------------------*\
| =========                 |                                                 |
| \\      /  F ield         | OpenFOAM: The Open Source CFD Toolbox           |
|  \\    /   O peration     | Version:  2306                                  |
|   \\  /    A nd           | Website:  www.openfoam.com                      |
|    \\/     M anipulation  |                                                 |
\*---------------------------------------------------------------------------*/
FoamFile
{
    version     2.0;
    format      ascii;
    arch        "LSB;label=32;scalar=64";
    class       volVectorField;
    location    "44";
    object      U;
}
// * * * * * * * * * * * * * * * * * * * * * * * * * * * * * * * * * * * * * //

dimensions      [0 1 -1 0 0 0 0];

internalField   nonuniform List<vector> 
8800
(
(0.984961 -0.0884524 0)
(1.00213 -0.0568244 0)
(0.999668 -0.0305572 0)
(1.00001 -0.0158615 0)
(1.00007 -0.00871685 0)
(1.00007 -0.00507964 0)
(1.00004 -0.00299847 0)
(1.00002 -0.00169609 0)
(0.999997 -0.000796585 0)
(1.00006 -9.80297e-05 0)
(0.999988 0.000610698 0)
(0.999995 0.00136555 0)
(1.00001 0.00239272 0)
(1.00002 0.00399643 0)
(1.00003 0.00671225 0)
(0.999995 0.0117381 0)
(0.999826 0.0220505 0)
(0.999163 0.0411681 0)
(1.00747 0.0768952 0)
(0.773652 0.0450709 0)
(0.360995 -0.0151724 0)
(1.04556 -0.0742071 0)
(1.08711 -0.0679002 0)
(1.04776 -0.0523131 0)
(1.02458 -0.0384099 0)
(1.01238 -0.0261311 0)
(1.00647 -0.0167903 0)
(1.00361 -0.0102823 0)
(1.00218 -0.0056384 0)
(1.00151 -0.00203464 0)
(1.00138 0.00119213 0)
(1.00174 0.00451481 0)
(1.0027 0.00842155 0)
(1.0047 0.0137649 0)
(1.00879 0.0215048 0)
(1.01733 0.0323324 0)
(1.03443 0.0456731 0)
(1.06546 0.0597827 0)
(1.09408 0.0729275 0)
(0.84222 0.0557127 0)
(0.217051 -0.00164752 0)
(1.07584 -0.0503738 0)
(1.09982 -0.0487442 0)
(1.06464 -0.040201 0)
(1.03995 -0.0330422 0)
(1.02375 -0.0257494 0)
(1.01398 -0.018375 0)
(1.0085 -0.0116488 0)
(1.00565 -0.00584439 0)
(1.00448 -0.000527918 0)
(1.0048 0.00460948 0)
(1.00664 0.00993684 0)
(1.01056 0.0159855 0)
(1.01785 0.0229074 0)
(1.0305 0.0301834 0)
(1.05065 0.0371905 0)
(1.08035 0.0445315 0)
(1.10619 0.0517517 0)
(0.942849 0.0413247 0)
(0.216492 0.00166683 0)
(0.175857 -0.000646599 0)
(1.01861 -0.035438 0)
(1.10555 -0.0414644 0)
(1.07809 -0.0363113 0)
(1.05281 -0.0302946 0)
(1.03553 -0.0245797 0)
(1.02352 -0.0188631 0)
(1.01561 -0.0128448 0)
(1.01097 -0.00671006 0)
(1.00892 -0.000441676 0)
(1.00946 0.00574648 0)
(1.01257 0.0117042 0)
(1.0186 0.0175229 0)
(1.02832 0.0231086 0)
(1.04267 0.0285491 0)
(1.06339 0.0342202 0)
(1.09379 0.0401939 0)
(1.09415 0.0418344 0)
(0.828892 0.022769 0)
(0.174909 0.000666795 0)
(0.154284 -0.000488597 0)
(0.957174 -0.02559 0)
(1.10402 -0.0351536 0)
(1.08788 -0.032729 0)
(1.06134 -0.028193 0)
(1.04345 -0.0232165 0)
(1.03105 -0.0179713 0)
(1.02237 -0.0124745 0)
(1.01676 -0.00657888 0)
(1.01408 -0.000119299 0)
(1.01474 0.00635393 0)
(1.01859 0.0122344 0)
(1.02546 0.017542 0)
(1.03567 0.022525 0)
(1.05036 0.0273557 0)
(1.07206 0.0318533 0)
(1.10074 0.0357471 0)
(1.0692 0.0339109 0)
(0.741404 0.0143408 0)
(0.15286 0.000511056 0)
(0.139727 -0.000360071 0)
(0.900109 -0.0192531 0)
(1.09631 -0.0302264 0)
(1.09595 -0.0293721 0)
(1.06894 -0.0256429 0)
(1.05023 -0.0215697 0)
(1.0373 -0.0168718 0)
(1.02831 -0.011646 0)
(1.02234 -0.00595654 0)
(1.01934 0.000375958 0)
(1.01998 0.00673376 0)
(1.02404 0.0123691 0)
(1.0311 0.0173451 0)
(1.04162 0.0218443 0)
(1.05694 0.0258308 0)
(1.07954 0.0293433 0)
(1.10306 0.0320378 0)
(1.03738 0.0280317 0)
(0.674901 0.010217 0)
(0.137722 0.000386366 0)
(0.129042 -0.000275845 0)
(0.850228 -0.0148872 0)
(1.08384 -0.0261418 0)
(1.10157 -0.0265063 0)
(1.07571 -0.02323 0)
(1.05649 -0.0196191 0)
(1.04312 -0.0154482 0)
(1.03377 -0.0106035 0)
(1.02756 -0.00513728 0)
(1.02437 0.000992826 0)
(1.02491 0.0071155 0)
(1.02896 0.0124667 0)
(1.03616 0.0170404 0)
(1.04697 0.0209405 0)
(1.06269 0.0242985 0)
(1.08575 0.0273338 0)
(1.10231 0.029161 0)
(1.00276 0.0234758 0)
(0.62318 0.00782591 0)
(0.126331 0.00030755 0)
(0.120878 -0.000213389 0)
(0.807729 -0.0117226 0)
(1.06841 -0.022561 0)
(1.105 -0.0239106 0)
(1.08188 -0.0210823 0)
(1.06221 -0.0176997 0)
(1.04859 -0.0138288 0)
(1.03898 -0.00932919 0)
(1.0325 -0.00415296 0)
(1.02909 0.00173327 0)
(1.02949 0.00758296 0)
(1.03352 0.0125788 0)
(1.04079 0.0166928 0)
(1.05172 0.0201121 0)
(1.06768 0.023069 0)
(1.09111 0.0258075 0)
(1.09869 0.0267392 0)
(0.967841 0.019875 0)
(0.581752 0.00626102 0)
(0.11731 0.000251811 0)
(0.114535 -0.000165474 0)
(0.771875 -0.00935396 0)
(1.05143 -0.0194082 0)
(1.10724 -0.0215083 0)
(1.08764 -0.0190676 0)
(1.06758 -0.015848 0)
(1.05371 -0.0121562 0)
(1.04392 -0.00788369 0)
(1.03722 -0.00297375 0)
(1.03357 0.00262848 0)
(1.03378 0.00815221 0)
(1.03771 0.0127564 0)
(1.04494 0.0164589 0)
(1.05589 0.0195076 0)
(1.07209 0.0221387 0)
(1.09524 0.0245498 0)
(1.09234 0.0246967 0)
(0.933974 0.017068 0)
(0.547633 0.00518045 0)
(0.109922 0.000212182 0)
(0.10957 -0.000127381 0)
(0.741743 -0.00751514 0)
(1.03396 -0.0166084 0)
(1.10851 -0.019246 0)
(1.09308 -0.0171357 0)
(1.07274 -0.014031 0)
(1.0586 -0.0104527 0)
(1.04863 -0.00632516 0)
(1.04173 -0.00161373 0)
(1.03782 0.00370732 0)
(1.0378 0.00888155 0)
(1.04153 0.0131102 0)
(1.04864 0.0164572 0)
(1.05961 0.0191765 0)
(1.07603 0.0215102 0)
(1.09814 0.0235564 0)
(1.08364 0.0229702 0)
(0.901778 0.0148973 0)
(0.518801 0.00441373 0)
(0.10369 0.000184152 0)
(0.105698 -9.5989e-05 0)
(0.71652 -0.00603177 0)
(1.01684 -0.0140904 0)
(1.10889 -0.0170526 0)
(1.09839 -0.0152432 0)
(1.07778 -0.0121725 0)
(1.06336 -0.00865493 0)
(1.05317 -0.00462772 0)
(1.04605 -6.8273e-05 0)
(1.04186 0.00500413 0)
(1.04152 0.00984434 0)
(1.045 0.0137068 0)
(1.05194 0.0166942 0)
(1.06291 0.019087 0)
(1.07954 0.0211542 0)
(1.09972 0.022815 0)
(1.07301 0.0215432 0)
(0.871424 0.0132457 0)
(0.493832 0.0038698 0)
(0.0982746 0.000165163 0)
(0.102728 -6.88575e-05 0)
(0.695575 -0.00478558 0)
(1.00069 -0.0117861 0)
(1.10856 -0.0148946 0)
(1.10349 -0.0133107 0)
(1.08278 -0.0102368 0)
(1.06804 -0.00673055 0)
(1.05761 -0.00274741 0)
(1.05021 0.00170747 0)
(1.04568 0.00656593 0)
(1.04496 0.0110906 0)
(1.04812 0.0146024 0)
(1.05486 0.0172432 0)
(1.06581 0.0193105 0)
(1.08261 0.0211018 0)
(1.10036 0.0223474 0)
(1.06077 0.0204208 0)
(0.842817 0.0120173 0)
(0.471681 0.00349125 0)
(0.0934244 0.000153285 0)
(0.100539 -4.38503e-05 0)
(0.678447 -0.00368546 0)
(0.985971 -0.00961663 0)
(1.10769 -0.0126738 0)
(1.10835 -0.0112469 0)
(1.0878 -0.0081627 0)
(1.07272 -0.00461983 0)
(1.06198 -0.000624003 0)
(1.05423 0.00376687 0)
(1.04925 0.00845632 0)
(1.04807 0.0126899 0)
(1.05086 0.0158425 0)
(1.05738 0.0181235 0)
(1.06829 0.0198514 0)
(1.08519 0.021353 0)
(1.09999 0.0222408 0)
(1.04716 0.0195954 0)
(0.815716 0.0111376 0)
(0.451548 0.00323971 0)
(0.0889467 0.000147124 0)
(0.0990703 -1.94954e-05 0)
(0.664838 -0.00266335 0)
(0.973057 -0.00751208 0)
(1.10662 -0.0103326 0)
(1.11309 -0.00897629 0)
(1.09291 -0.00584355 0)
(1.07745 -0.00221092 0)
(1.06635 0.0018394 0)
(1.05817 0.00620723 0)
(1.05265 0.0107547 0)
(1.05091 0.0146978 0)
(1.05324 0.0174782 0)
(1.05948 0.0193702 0)
(1.07033 0.020725 0)
(1.08729 0.0219329 0)
(1.09853 0.0223922 0)
(1.03233 0.0190476 0)
(0.789799 0.0105437 0)
(0.432801 0.00308786 0)
(0.0846889 0.000145414 0)
(0.0983028 6.22183e-06 0)
(0.654604 -0.00166864 0)
(0.962269 -0.00540291 0)
(1.10565 -0.00781414 0)
(1.11784 -0.00644606 0)
(1.09818 -0.00322906 0)
(1.0823 0.000550187 0)
(1.07077 0.00471672 0)
(1.06207 0.00912401 0)
(1.05589 0.0135554 0)
(1.05345 0.0171966 0)
(1.05524 0.0195851 0)
(1.06113 0.0210669 0)
(1.07191 0.022017 0)
(1.08885 0.0228877 0)
(1.09591 0.0228742 0)
(1.01634 0.0188005 0)
(0.764719 0.0102072 0)
(0.414933 0.00302271 0)
(0.0805266 0.000148028 0)
(0.0982692 3.03328e-05 0)
(0.647756 -0.000655763 0)
(0.953933 -0.00321052 0)
(1.10514 -0.00503571 0)
(1.12273 -0.00356299 0)
(1.10369 -0.000217838 0)
(1.08737 0.00376795 0)
(1.07532 0.0081109 0)
(1.06598 0.012607 0)
(1.05901 0.0169661 0)
(1.05572 0.0203136 0)
(1.05683 0.0222802 0)
(1.0623 0.0232924 0)
(1.07295 0.0237885 0)
(1.08965 0.0242499 0)
(1.09191 0.0237118 0)
(0.999164 0.0188632 0)
(0.740095 0.0101049 0)
(0.397489 0.00303581 0)
(0.0763461 0.000154404 0)
(0.0990024 6.81243e-05 0)
(0.644431 0.000404164 0)
(0.948404 -0.000854337 0)
(1.10544 -0.00191046 0)
(1.12796 -0.000206266 0)
(1.10954 0.00334611 0)
(1.0927 0.0076083 0)
(1.08001 0.0121856 0)
(1.06987 0.0168229 0)
(1.0619 0.0211278 0)
(1.0576 0.0241541 0)
(1.0579 0.0256489 0)
(1.06287 0.0261326 0)
(1.07338 0.0261253 0)
(1.08953 0.0261319 0)
(1.08644 0.0249298 0)
(0.980729 0.0192594 0)
(0.715518 0.0102317 0)
(0.380049 0.00312363 0)
(0.0720413 0.000164276 0)
(0.100715 0.000102663 0)
(0.64496 0.00158399 0)
(0.946009 0.0017117 0)
(1.107 0.00165096 0)
(1.13371 0.00368758 0)
(1.11582 0.00755376 0)
(1.0984 0.0121862 0)
(1.08495 0.0170918 0)
(1.07384 0.0219359 0)
(1.06464 0.0262062 0)
(1.05909 0.0288978 0)
(1.05843 0.0298398 0)
(1.06279 0.0297359 0)
(1.07309 0.0291641 0)
(1.08832 0.0286126 0)
(1.0793 0.0266082 0)
(0.960834 0.0200203 0)
(0.690538 0.0105904 0)
(0.362199 0.00328549 0)
(0.0675103 0.000177669 0)
(0.103466 0.000152274 0)
(0.649819 0.00306283 0)
(0.94726 0.0046791 0)
(1.11027 0.00574628 0)
(1.14017 0.00826982 0)
(1.1227 0.0125892 0)
(1.10462 0.0177064 0)
(1.09026 0.0230436 0)
(1.07795 0.02817 0)
(1.06726 0.0324143 0)
(1.06019 0.0346945 0)
(1.05836 0.0350216 0)
(1.06195 0.0342379 0)
(1.07196 0.0330305 0)
(1.08581 0.0318084 0)
(1.07027 0.0288166 0)
(0.939235 0.0211912 0)
(0.66468 0.011196 0)
(0.343527 0.00352295 0)
(0.0626547 0.000194084 0)
(0.107537 0.000216865 0)
(0.659408 0.00475696 0)
(0.952585 0.00812988 0)
(1.11575 0.0105604 0)
(1.14759 0.0137731 0)
(1.13036 0.0187326 0)
(1.11149 0.0244483 0)
(1.09597 0.0303043 0)
(1.08216 0.0357612 0)
(1.06964 0.0399894 0)
(1.06073 0.0417938 0)
(1.05752 0.0413774 0)
(1.06019 0.0397985 0)
(1.06983 0.0378508 0)
(1.08185 0.0358722 0)
(1.05905 0.0316995 0)
(0.915548 0.0228644 0)
(0.637355 0.0120787 0)
(0.323575 0.00383981 0)
(0.0573738 0.000213442 0)
(0.113265 0.000305126 0)
(0.674473 0.00688305 0)
(0.962685 0.0123133 0)
(1.124 0.0162944 0)
(1.15637 0.0204147 0)
(1.13903 0.0262405 0)
(1.11914 0.0327201 0)
(1.10216 0.0392416 0)
(1.08648 0.0450965 0)
(1.07171 0.0492307 0)
(1.06065 0.0503901 0)
(1.0558 0.0490874 0)
(1.05734 0.0465975 0)
(1.06652 0.0438136 0)
(1.07636 0.0409529 0)
(1.04529 0.0354013 0)
(0.889259 0.0251117 0)
(0.607891 0.0132556 0)
(0.301869 0.00423036 0)
(0.0515861 0.000233515 0)
(0.121159 0.000429697 0)
(0.695891 0.00961899 0)
(0.978316 0.0174539 0)
(1.13561 0.023252 0)
(1.16697 0.0285312 0)
(1.14907 0.0354935 0)
(1.12786 0.0429478 0)
(1.10904 0.050268 0)
(1.09103 0.0565315 0)
(1.07354 0.0604816 0)
(1.05991 0.0608338 0)
(1.0531 0.0584327 0)
(1.05333 0.054902 0)
(1.06187 0.0511702 0)
(1.06904 0.0473107 0)
(1.0285 0.0400938 0)
(0.859737 0.0280534 0)
(0.575482 0.0147711 0)
(0.277896 0.00469233 0)
(0.0452368 0.000252313 0)
(0.131965 0.000614384 0)
(0.724977 0.0133119 0)
(1.00057 0.0240061 0)
(1.15133 0.0319633 0)
(1.17998 0.0387527 0)
(1.16079 0.0472334 0)
(1.13775 0.0558828 0)
(1.11644 0.0640624 0)
(1.09542 0.0706155 0)
(1.07465 0.0741224 0)
(1.05807 0.0733563 0)
(1.04913 0.0696274 0)
(1.04795 0.0648635 0)
(1.0557 0.0600347 0)
(1.05958 0.0549725 0)
(1.00814 0.0459845 0)
(0.826162 0.031826 0)
(0.539142 0.0166557 0)
(0.251101 0.00521659 0)
(0.0382956 0.000268649 0)
(0.146894 0.000903817 0)
(0.763573 0.0185966 0)
(1.03099 0.0327462 0)
(1.17214 0.0433367 0)
(1.19625 0.0521714 0)
(1.17463 0.0625105 0)
(1.14895 0.0724622 0)
(1.12437 0.0813735 0)
(1.09969 0.0879131 0)
(1.07507 0.0905402 0)
(1.05516 0.0882596 0)
(1.04381 0.0829012 0)
(1.04113 0.0767189 0)
(1.04787 0.0705881 0)
(1.04747 0.0643138 0)
(0.983496 0.0532185 0)
(0.787553 0.0364719 0)
(0.497823 0.018859 0)
(0.221046 0.00576256 0)
(0.0307815 0.000279848 0)
(0.168062 0.00140085 0)
(0.814695 0.0266218 0)
(1.07218 0.0452291 0)
(1.19912 0.0591863 0)
(1.21644 0.070771 0)
(1.19067 0.0828429 0)
(1.16118 0.0939349 0)
(1.13235 0.103135 0)
(1.10321 0.109047 0)
(1.07419 0.110128 0)
(1.05067 0.105763 0)
(1.03683 0.0984109 0)
(1.03262 0.0905988 0)
(1.03807 0.0832319 0)
(1.03229 0.0754328 0)
(0.953658 0.0618071 0)
(0.742794 0.0418927 0)
(0.450699 0.0212299 0)
(0.187696 0.00625845 0)
(0.0228227 0.000281843 0)
(0.1988 0.002508 0)
(0.883945 0.0401295 0)
(1.12727 0.065316 0)
(1.23259 0.0830608 0)
(1.2403 0.0973447 0)
(1.20836 0.110619 0)
(1.17373 0.121979 0)
(1.13967 0.130404 0)
(1.10541 0.134614 0)
(1.07163 0.133169 0)
(1.04437 0.125977 0)
(1.02804 0.116206 0)
(1.02232 0.106549 0)
(1.02617 0.0978083 0)
(1.01344 0.0882317 0)
(0.917465 0.071484 0)
(0.690827 0.047675 0)
(0.397949 0.0235408 0)
(0.152108 0.00664002 0)
(0.0148268 0.000266275 0)
(0.240701 0.00870878 1.06144e-19)
(0.975295 0.0671783 9.45041e-20)
(1.19396 0.0993653 -3.29442e-20)
(1.26965 0.11869 0)
(1.26513 0.135619 -8.24267e-34)
(1.22571 0.148308 1.20022e-20)
(1.18513 0.158208 -2.12938e-20)
(1.14523 0.164465 0)
(1.10542 0.165915 4.29537e-34)
(1.06649 0.161173 -2.56176e-20)
(1.03516 0.150675 0)
(1.0161 0.138278 -3.00344e-20)
(1.00866 0.126762 -8.82919e-20)
(1.01054 0.116886 -4.16086e-20)
(0.988668 0.105711 -1.24552e-20)
(0.870586 0.0847261 -7.38465e-21)
(0.625834 0.0551354 0)
(0.337006 0.0264159 5.15588e-21)
(0.115028 0.00758725 6.06699e-21)
(0.00726046 0.000390896 1.07594e-19)
(0.269744 0.0239565 8.23309e-20)
(1.05061 0.109714 1.02403e-21)
(1.24852 0.148079 8.9848e-21)
(1.3032 0.167458 0)
(1.28696 0.184252 -4.25789e-20)
(1.24057 0.19487 -4.80113e-20)
(1.19396 0.202546 -2.16982e-20)
(1.14803 0.206383 -7.62386e-20)
(1.10228 0.205077 0)
(1.0575 0.197154 1.09679e-19)
(1.02115 0.183515 1.08146e-19)
(0.998518 0.168587 3.20248e-20)
(0.988666 0.155057 1.16016e-19)
(0.985797 0.143022 1.62232e-19)
(0.950999 0.128469 0)
(0.808254 0.101798 2.27533e-19)
(0.550026 0.064541 3.25947e-19)
(0.274139 0.0301202 3.61144e-19)
(0.0805992 0.00845215 -4.11376e-19)
(0.000479757 0.000154018 -7.60964e-21)
(0.270841 0.039827 0)
(1.09809 0.165077 1.56824e-20)
(1.28534 0.208013 0)
(1.32937 0.22705 -5.81771e-20)
(1.3041 0.240691 0)
(1.25176 0.247551 -9.56749e-20)
(1.19948 0.251629 4.46725e-20)
(1.14782 0.252024 -1.54795e-19)
(1.0964 0.247245 -3.12639e-21)
(1.04605 0.235764 5.70932e-20)
(1.00488 0.218905 2.37936e-19)
(0.978635 0.201491 -5.85195e-22)
(0.965895 0.185991 -8.43749e-20)
(0.958273 0.171739 -1.53263e-19)
(0.915544 0.153653 1.81168e-19)
(0.763507 0.120612 -3.19793e-19)
(0.508901 0.0757046 -4.21231e-20)
(0.249429 0.0355554 0)
(0.071134 0.00990451 -8.69175e-25)
(-0.00124163 -0.000133763 0)
(0.264592 0.0535213 2.25811e-19)
(1.12361 0.223725 -1.08221e-19)
(1.3082 0.272722 -7.93552e-20)
(1.34663 0.291869 2.81839e-20)
(1.31508 0.301474 -4.72202e-20)
(1.25824 0.303972 2.01446e-19)
(1.20128 0.303808 9.37345e-20)
(1.14468 0.300206 0)
(1.08817 0.291515 -2.89224e-19)
(1.03265 0.2761 0)
(0.986895 0.255632 -1.25424e-19)
(0.957117 0.235401 -1.53691e-19)
(0.941357 0.217908 -9.20594e-20)
(0.930032 0.202033 -1.11483e-19)
(0.882958 0.181032 0)
(0.732105 0.142179 0)
(0.490269 0.0909722 -2.74709e-19)
(0.247976 0.0449095 5.4247e-20)
(0.075125 0.0133728 -3.17557e-20)
(-0.000240413 -4.25045e-05 -3.65653e-20)
(0.257321 0.0656451 -1.07476e-19)
(1.13481 0.282301 0)
(1.32086 0.338454 1.71418e-19)
(1.35593 0.35807 8.16168e-20)
(1.31998 0.363756 1.07782e-19)
(1.25983 0.361902 0)
(1.19924 0.357465 9.29057e-20)
(1.13857 0.349756 1.7249e-19)
(1.07765 0.336993 1.49006e-19)
(1.01743 0.317404 2.69332e-19)
(0.967335 0.293143 0)
(0.934259 0.270173 -3.32016e-19)
(0.916027 0.251046 -1.99273e-19)
(0.901972 0.233963 -1.17534e-19)
(0.852062 0.210033 7.20143e-19)
(0.707992 0.166511 8.53511e-20)
(0.483348 0.109847 4.00246e-19)
(0.256072 0.0573216 -1.88651e-18)
(0.0859209 0.0191546 1.11836e-18)
(0.002904 0.000656617 -1.32749e-18)
(0.250508 0.076659 -7.27676e-20)
(1.13704 0.338977 2.04541e-20)
(1.32607 0.403293 -2.06895e-20)
(1.35889 0.42378 -8.97587e-20)
(1.31972 0.425849 -9.52092e-20)
(1.25714 0.419845 3.53339e-21)
(1.1937 0.411359 -1.00542e-19)
(1.12968 0.399667 1.79283e-19)
(1.06495 0.38288 -3.20769e-19)
(1.0005 0.359162 0)
(0.946504 0.33141 -1.50938e-19)
(0.910493 0.306257 -3.22535e-21)
(0.890039 0.285909 -2.17906e-19)
(0.873249 0.267228 0)
(0.821737 0.239609 -1.56074e-19)
(0.686886 0.192235 -3.69517e-19)
(0.480355 0.130733 9.86458e-19)
(0.266484 0.0720394 -9.67822e-19)
(0.0981036 0.0266628 1.3724e-18)
(0.00668007 0.00188649 -1.40446e-18)
(0.244915 0.0869016 -8.09291e-22)
(1.13373 0.393076 -1.33559e-20)
(1.32591 0.466233 -6.79626e-20)
(1.35689 0.487855 3.91219e-20)
(1.31537 0.48673 -4.85071e-20)
(1.25098 0.476904 0)
(1.18525 0.464653 -9.53584e-20)
(1.11842 0.449181 -1.88185e-19)
(1.05038 0.428526 -1.67227e-19)
(0.982248 0.400931 0)
(0.924886 0.370147 -1.57078e-19)
(0.886311 0.343164 -1.93291e-19)
(0.863473 0.321346 2.36266e-19)
(0.843465 0.300171 -1.43148e-19)
(0.790935 0.268915 -6.80856e-19)
(0.666559 0.218472 4.04618e-19)
(0.476585 0.15287 1.20774e-19)
(0.2748 0.0878383 0)
(0.108621 0.0350285 -1.32669e-18)
(0.0101708 0.00340272 -4.79077e-20)
(0.240598 0.0966923 -4.21822e-21)
(1.12712 0.444394 8.87145e-21)
(1.32189 0.526781 3.37642e-20)
(1.35119 0.549606 1.35069e-19)
(1.30785 0.545731 -1.84572e-19)
(1.24212 0.532482 2.01421e-19)
(1.17454 0.516771 2.05001e-19)
(1.1053 0.497742 -3.00659e-19)
(1.03439 0.473436 1.01769e-19)
(0.963077 0.442264 -6.62212e-19)
(0.902835 0.408669 -1.76861e-19)
(0.861909 0.379603 0)
(0.836422 0.355484 2.55881e-19)
(0.813079 0.331109 3.05858e-19)
(0.760468 0.296698 3.65811e-19)
(0.645731 0.244021 -4.39731e-19)
(0.469991 0.174776 -1.29652e-19)
(0.278564 0.103445 1.52049e-19)
(0.115525 0.0431908 0)
(0.0127227 0.0048945 -1.0381e-19)
(0.237411 0.106165 1.17409e-21)
(1.11876 0.493019 -1.53538e-20)
(1.31532 0.585194 -3.26347e-20)
(1.3428 0.608697 8.56195e-20)
(1.29797 0.602443 -8.64438e-20)
(1.23123 0.586144 -8.0839e-21)
(1.16211 0.567284 -2.23058e-19)
(1.09081 0.544956 -1.08507e-19)
(1.01739 0.517242 -2.89895e-19)
(0.94331 0.482744 4.98575e-22)
(0.880501 0.446238 -5.54158e-19)
(0.837267 0.414446 4.64001e-19)
(0.808952 0.387247 -2.8031e-19)
(0.782516 0.359489 3.36141e-19)
(0.730591 0.32248 0)
(0.624281 0.267784 -2.37965e-19)
(0.460202 0.195121 -8.05706e-22)
(0.277524 0.117503 -6.60935e-19)
(0.118075 0.0501538 -9.69898e-20)
(0.0141283 0.00609746 0)
(0.235217 0.115441 0)
(1.10953 0.539154 -9.3339e-21)
(1.30683 0.640702 -4.69243e-20)
(1.33249 0.664968 -8.19492e-20)
(1.28638 0.65663 -1.05178e-19)
(1.21884 0.637617 0)
(1.14846 0.615894 -1.03538e-19)
(1.07536 0.590539 -2.29476e-21)
(0.999738 0.559705 6.20267e-19)
(0.923179 0.522051 -9.10734e-20)
(0.857929 0.482354 -3.99451e-19)
(0.81234 0.447227 2.41575e-19)
(0.781272 0.416555 -4.2266e-21)
(0.752328 0.385727 3.56996e-19)
(0.701373 0.346643 2.19725e-19)
(0.601504 0.289934 -5.13128e-19)
(0.44723 0.213379 6.06114e-19)
(0.271836 0.129254 1.78642e-19)
(0.116627 0.0553192 7.32719e-19)
(0.0144685 0.00687643 -1.93385e-18)
(0.233934 0.12466 -1.50825e-20)
(1.10002 0.582986 1.08459e-20)
(1.29729 0.693302 6.5179e-22)
(1.32083 0.718396 7.10995e-20)
(1.27363 0.708167 0)
(1.20544 0.686729 -9.69362e-20)
(1.13398 0.66242 3.44621e-19)
(1.05932 0.634326 2.38079e-19)
(0.981728 0.600672 0)
(0.902832 0.559991 -1.30558e-18)
(0.835138 0.516829 1.0775e-18)
(0.787163 0.477973 0)
(0.753611 0.443764 3.26069e-19)
(0.722814 0.410228 -4.15222e-21)
(0.672855 0.369203 -7.00313e-19)
(0.577748 0.309743 2.74041e-19)
(0.43093 0.228678 0)
(0.261777 0.138098 9.6208e-19)
(0.11175 0.0582978 0)
(0.0137548 0.0070935 -9.12281e-19)
(0.233384 0.133867 2.26787e-20)
(1.09071 0.624609 2.72961e-20)
(1.28681 0.743062 4.09767e-21)
(1.30829 0.768953 0)
(1.26013 0.757017 -9.49234e-20)
(1.19141 0.733405 0)
(1.11901 0.70677 -3.43444e-19)
(1.04298 0.676238 -1.12206e-19)
(0.9636 0.640076 1.09834e-19)
(0.882415 0.596498 -6.44963e-19)
(0.812179 0.549712 1.11408e-19)
(0.761793 0.506967 0)
(0.726068 0.469295 -6.95319e-19)
(0.693924 0.433188 4.15134e-21)
(0.644724 0.389901 0)
(0.552982 0.326969 3.77098e-21)
(0.411619 0.240645 8.79963e-19)
(0.247918 0.143611 -8.30104e-19)
(0.10395 0.0592041 2.4304e-19)
(0.0123096 0.0068727 0)
(0.233252 0.142934 0)
(1.08182 0.664128 4.15179e-20)
(1.27576 0.79016 1.42575e-20)
(1.29526 0.816669 -4.78372e-21)
(1.24621 0.803191 -3.65251e-20)
(1.17704 0.777628 -2.16767e-19)
(1.10386 0.748922 1.27399e-19)
(1.02661 0.716259 -1.30584e-19)
(0.945561 0.677893 4.87319e-19)
(0.86206 0.63159 -1.0286e-18)
(0.78913 0.581173 -7.09236e-21)
(0.736291 0.534539 -3.05606e-19)
(0.698634 0.493475 1.12569e-18)
(0.665442 0.454738 -4.85185e-21)
(0.616634 0.408688 -5.40867e-19)
(0.526985 0.341554 -9.64909e-19)
(0.389697 0.249305 0)
(0.230793 0.145826 0)
(0.0938593 0.0580282 2.6287e-19)
(0.010442 0.00626127 -1.51644e-19)
(0.233644 0.152024 4.17675e-20)
(1.0733 0.701436 -1.04061e-19)
(1.26445 0.834648 -1.59519e-20)
(1.28199 0.861636 0)
(1.23214 0.846744 -3.14109e-21)
(1.1626 0.819424 -2.04135e-19)
(1.08874 0.788899 3.1136e-19)
(1.01042 0.754407 5.17964e-19)
(0.927784 0.714143 6.33621e-19)
(0.841911 0.665332 -8.39812e-19)
(0.766114 0.611426 -9.21182e-19)
(0.710714 0.560994 8.16301e-19)
(0.671254 0.516527 0)
(0.637162 0.474909 -2.45544e-19)
(0.588414 0.425523 -5.8426e-19)
(0.499861 0.353391 -6.9174e-19)
(0.365393 0.254421 -8.18904e-19)
(0.211053 0.144715 2.41287e-19)
(0.0819751 0.0547544 -1.41323e-19)
(0.00819283 0.00525637 5.00439e-22)
(0.234157 0.160966 0)
(1.06535 0.73701 0)
(1.25306 0.876619 5.15539e-21)
(1.26867 0.903945 0)
(1.2181 0.887762 9.4754e-20)
(1.14827 0.858862 1.43256e-19)
(1.07386 0.82675 0)
(0.994581 0.79072 6.21812e-20)
(0.910424 0.748851 1.05707e-18)
(0.822125 0.697803 -1.92722e-18)
(0.743273 0.640676 0)
(0.685137 0.586587 -5.24059e-19)
(0.643837 0.538596 -5.88248e-21)
(0.608855 0.49366 -4.71248e-21)
(0.559921 0.440199 6.23249e-19)
(0.47173 0.362172 -6.82383e-22)
(0.338763 0.25576 -1.75999e-18)
(0.189221 0.140203 5.18348e-19)
(0.0693583 0.0498287 1.5247e-19)
(0.00586213 0.00401258 0)
(0.234685 0.169747 -1.91488e-19)
(1.05772 0.770879 -8.52367e-20)
(1.24166 0.916141 -8.66896e-20)
(1.25544 0.943702 5.47254e-21)
(1.20427 0.926316 1.36216e-19)
(1.13421 0.896013 0)
(1.05934 0.862543 1.90353e-19)
(0.979222 0.825245 -1.37413e-19)
(0.89361 0.782053 7.6846e-21)
(0.802855 0.729087 1.41324e-19)
(0.720761 0.669092 1.18911e-18)
(0.659636 0.611541 -1.8377e-19)
(0.616287 0.559842 -6.90456e-19)
(0.580255 0.510955 -2.84876e-19)
(0.530931 0.452448 3.38372e-19)
(0.442707 0.367526 -3.11726e-22)
(0.310969 0.253211 4.73578e-19)
(0.16667 0.132772 -1.11343e-18)
(0.0567488 0.0437145 1.31019e-18)
(0.00360663 0.00265019 1.88182e-19)
(0.235065 0.178242 7.64162e-20)
(1.05043 0.803144 -5.06935e-20)
(1.23038 0.953322 1.22939e-20)
(1.24243 0.981031 2.72e-20)
(1.19073 0.962519 -1.54919e-20)
(1.12052 0.930963 -2.5293e-19)
(1.04531 0.896346 5.69826e-20)
(0.96445 0.858022 -5.73051e-19)
(0.877456 0.813768 -1.16329e-18)
(0.784239 0.759229 -1.1461e-18)
(0.698745 0.696803 0)
(0.634305 0.636045 -8.0341e-19)
(0.588521 0.580465 9.92264e-19)
(0.551042 0.526821 0)
(0.501113 0.461961 -7.2334e-19)
(0.412875 0.368942 4.31404e-19)
(0.282775 0.246535 -5.08084e-19)
(0.144682 0.122844 -5.98333e-19)
(0.0450451 0.0369751 -1.05396e-18)
(0.00159797 0.00130363 -8.09384e-19)
(0.235764 0.186579 -8.96662e-20)
(1.04333 0.83379 5.42462e-20)
(1.21927 0.988232 1.17957e-19)
(1.2297 1.01601 5.42502e-20)
(1.17759 0.996468 4.03512e-20)
(1.10731 0.963811 -1.41011e-19)
(1.03185 0.928227 1.88155e-19)
(0.950341 0.889103 -5.89639e-19)
(0.862038 0.844028 -6.8791e-19)
(0.766402 0.788271 1.19786e-18)
(0.677377 0.723898 2.60262e-18)
(0.609266 0.660268 0)
(0.560496 0.600708 0)
(0.520848 0.541433 -3.27149e-19)
(0.469888 0.468456 0)
(0.382074 0.365528 9.27023e-19)
(0.255248 0.234976 1.09178e-18)
(0.125161 0.110569 0)
(0.0355058 0.0301856 0)
(-2.16118e-05 0.000130013 8.68666e-19)
(0.2361 0.194455 1.05985e-19)
(1.03646 0.862812 8.64427e-20)
(1.2084 1.02099 8.75969e-20)
(1.21731 1.04878 -6.97827e-20)
(1.1649 1.02827 2.81198e-20)
(1.09462 0.994643 1.51125e-19)
(1.019 0.958258 -2.58575e-19)
(0.936951 0.918522 -2.40813e-23)
(0.847432 0.872847 -9.94212e-21)
(0.749446 0.81623 -1.04955e-20)
(0.656824 0.75043 1.33802e-18)
(0.584672 0.68434 0)
(0.532258 0.620849 9.98982e-19)
(0.489343 0.555155 6.96345e-19)
(0.436358 0.471952 1.68183e-18)
(0.349492 0.356128 4.98062e-19)
(0.229312 0.21637 -5.87481e-19)
(0.111867 0.0939254 -3.43954e-19)
(0.0329152 0.0224518 0)
(0.000207769 -0.000409202 9.32069e-19)
(0.236722 0.20233 -2.46058e-19)
(1.02981 0.890304 0)
(1.19777 1.05165 1.12282e-19)
(1.2053 1.07941 -6.59305e-20)
(1.15272 1.05802 -6.95071e-21)
(1.08249 1.02355 -1.71938e-19)
(1.00682 0.986502 5.07196e-19)
(0.924309 0.946316 -4.77658e-20)
(0.833677 0.900239 0)
(0.733456 0.843086 -1.31846e-18)
(0.637242 0.776411 -2.90303e-18)
(0.560718 0.708369 1.17932e-19)
(0.503971 0.641159 1.37216e-18)
(0.456352 0.568519 0)
(0.399407 0.473124 1.13193e-18)
(0.312849 0.340104 0)
(0.203162 0.186307 0)
(0.108354 0.0608741 -3.71842e-19)
(0.0574393 0.00290233 0)
(0.0269287 0.0107752 2.49422e-19)
(0.236969 0.209587 -2.81735e-19)
(1.02335 0.916613 0)
(1.18739 1.08041 1.94011e-19)
(1.19362 1.10814 0)
(1.141 1.086 -5.85372e-21)
(1.07086 1.05083 0)
(0.995235 1.01327 2.60499e-20)
(0.912324 0.972824 8.0549e-20)
(0.820663 0.926572 8.55142e-20)
(0.718286 0.869236 -1.44286e-18)
(0.618491 0.802278 8.71684e-20)
(0.537218 0.732946 9.44249e-19)
(0.475315 0.662311 1.33463e-18)
(0.421149 0.582346 1.79527e-19)
(0.357241 0.473677 8.84475e-19)
(0.267595 0.318871 0)
(0.165659 0.142803 1.23732e-18)
(0.0871921 0.00632197 -7.20466e-19)
(0.0417945 0.0462643 8.26915e-19)
(-0.0598553 0.432247 -9.81603e-19)
(0.237182 0.216634 2.37293e-19)
(1.01682 0.941536 3.6345e-19)
(1.17718 1.10761 0)
(1.18216 1.1354 1.01629e-20)
(1.12957 1.11277 3.61915e-20)
(1.0595 1.07716 2.27636e-19)
(0.983949 1.03938 1.78383e-19)
(0.900605 0.998988 0)
(0.807884 0.95294 5.70725e-19)
(0.70329 0.895973 -7.57719e-20)
(0.599676 0.82947 0)
(0.513004 0.759783 0)
(0.444686 0.685992 1.19299e-18)
(0.381831 0.597814 -5.53817e-19)
(0.306903 0.476125 -8.93835e-19)
(0.209049 0.297212 0)
(0.0955616 0.136763 6.15859e-19)
(0.00790079 0.441261 -7.07865e-19)
(0.0326802 1.88835 -3.90747e-19)
(0.0637877 2.80733 -5.14869e-19)
(0.237171 0.222907 -1.81732e-19)
(1.01034 0.965227 -4.73988e-19)
(1.16716 1.13321 1.20171e-19)
(1.17091 1.16107 8.45057e-20)
(1.11848 1.13812 0)
(1.04845 1.10227 1.35053e-19)
(0.973156 1.06449 2.47531e-19)
(0.889329 1.02437 -3.9231e-20)
(0.795598 0.978826 8.47892e-20)
(0.688842 0.922696 1.37539e-18)
(0.581394 0.857322 1.46186e-18)
(0.489053 0.788533 1.05397e-18)
(0.413046 0.712035 1.1963e-18)
(0.340148 0.613711 -1.29466e-18)
(0.254571 0.48354 -1.34545e-18)
(0.137427 0.329519 0)
(0.0484021 0.834725 0)
(0.101694 2.55131 3.40573e-19)
(0.104294 3.19935 0)
(0.106741 3.38689 7.57697e-19)
(0.240193 0.228689 0)
(1.00451 0.98794 0)
(1.15707 1.15709 0)
(1.15963 1.18494 2.83443e-20)
(1.1074 1.16181 4.02352e-20)
(1.03751 1.12602 7.09616e-20)
(0.962757 1.08853 1.60157e-19)
(0.878438 1.04887 -3.84038e-20)
(0.783755 1.00408 7.14368e-19)
(0.674958 0.949256 -1.89587e-20)
(0.563775 0.885695 2.88618e-18)
(0.465752 0.819096 -1.20968e-19)
(0.380651 0.741225 1.4488e-19)
(0.298459 0.627675 1.86892e-19)
(0.193517 0.500115 -4.22518e-21)
(0.106766 0.967659 3.49926e-21)
(0.142969 2.71573 -1.7787e-18)
(0.151531 3.29187 -6.65268e-19)
(0.139888 3.42618 3.3899e-19)
(0.126532 3.44826 -3.73779e-19)
(0.159276 0.180086 1.06645e-19)
(0.99411 1.01256 0)
(1.14664 1.17947 -2.52246e-19)
(1.14881 1.20737 -2.41307e-19)
(1.09704 1.18454 1.42241e-19)
(1.02751 1.14901 -6.34824e-20)
(0.952662 1.11149 -1.65707e-19)
(0.868032 1.07254 4.33742e-19)
(0.772523 1.02879 -5.83583e-19)
(0.661927 0.97577 0)
(0.547194 0.914766 1.41591e-18)
(0.443679 0.851256 -8.57224e-19)
(0.348006 0.776603 0)
(0.252252 0.644702 1.67559e-19)
(0.156028 0.79556 4.07335e-19)
(0.157582 2.48668 -4.85022e-19)
(0.216276 3.32411 5.37664e-19)
(0.19565 3.44027 2.93658e-19)
(0.16196 3.46159 3.26592e-19)
(0.140016 3.47168 5.29074e-19)
(0.28045 0.267438 -1.86312e-19)
(0.977938 1.0223 0)
(1.12826 1.20477 2.84774e-19)
(1.13412 1.2397 2.88084e-19)
(1.08034 1.21775 -1.85712e-19)
(1.0104 1.18273 1.38856e-20)
(0.934712 1.14688 1.68068e-19)
(0.849651 1.10926 3.38385e-20)
(0.752759 1.0675 5.62504e-19)
(0.639261 1.0179 1.19074e-18)
(0.519224 0.962477 8.03605e-20)
(0.406451 0.905312 7.62105e-19)
(0.290315 0.832727 1.3408e-19)
(0.216602 0.965978 -1.69219e-19)
(0.230956 2.33985 -3.8303e-19)
(0.291126 3.32849 3.64934e-19)
(0.274879 3.47073 -4.14558e-19)
(0.239142 3.49215 -2.42093e-19)
(0.202139 3.51911 -2.01434e-19)
(0.15132 3.51227 -1.93591e-20)
(0.269611 0.264986 0)
(0.97572 1.04534 8.8569e-20)
(1.12005 1.22823 -6.10609e-20)
(1.12391 1.26322 -3.67998e-20)
(1.06992 1.24098 -1.42025e-19)
(1.00014 1.20621 -1.80322e-21)
(0.924221 1.17066 -9.17589e-20)
(0.839013 1.13389 3.06291e-20)
(0.741598 1.09346 -5.88764e-19)
(0.626833 1.04638 -2.78832e-20)
(0.504233 0.995312 -2.56854e-18)
(0.387321 0.943213 1.0835e-19)
(0.279698 0.902084 -1.26349e-19)
(0.255781 1.49793 -1.5797e-19)
(0.328853 3.10098 3.43158e-20)
(0.350112 3.46998 1.77813e-21)
(0.309086 3.5251 6.2133e-19)
(0.271958 3.55064 3.08038e-19)
(0.223356 3.57338 -8.35942e-20)
(0.165816 3.56879 -9.52177e-20)
(0.253776 0.262968 2.28637e-19)
(0.972018 1.07091 6.14813e-19)
(1.11135 1.25381 -1.76864e-19)
(1.1131 1.28813 -1.39544e-19)
(1.05898 1.2656 0)
(0.989453 1.2309 6.33102e-20)
(0.913585 1.19571 -1.02906e-19)
(0.828487 1.15975 2.71999e-20)
(0.730865 1.12072 -6.53157e-20)
(0.615369 1.07639 -1.08556e-18)
(0.491045 1.03005 -1.18876e-18)
(0.371634 0.983736 -8.9078e-19)
(0.280363 1.03447 -9.62651e-19)
(0.323348 2.2032 9.86423e-19)
(0.413833 3.38066 8.1727e-19)
(0.393392 3.52832 0)
(0.346997 3.57161 0)
(0.308811 3.61091 -6.85695e-20)
(0.258395 3.66915 0)
(0.177605 3.64515 -7.91688e-20)
(0.243169 0.264804 -3.50609e-19)
(0.966178 1.09736 -5.32812e-19)
(1.10122 1.2806 0)
(1.10097 1.31384 1.20147e-20)
(1.04679 1.29083 -1.79397e-19)
(0.977671 1.25613 1.41779e-19)
(0.902177 1.22133 -4.82541e-20)
(0.817391 1.18606 1.71828e-20)
(0.719801 1.14836 -4.24092e-19)