0.490941 	0.847423 	0.00614148 	3.00286 	0
0.561075 	0.847423 	0.00614148 	3.00286 	0
0.63121 	0.847423 	0.00614148 	3.00286 	0
0.701344 	0.847423 	0.00614148 	3.00286 	0
0.771478 	0.847423 	0.00614148 	3.00286 	0
0.841613 	0.847423 	0.00614148 	3.00286 	0
0.911747 	0.847423 	0.00614148 	3.00286 	0
0.981881 	0.847423 	0.00614148 	3.00286 	0
1.05202 	0.847423 	0.00614148 	3.00286 	0
1.12215 	0.847423 	0.00614148 	3.00286 	0
1.19228 	0.847423 	0.00614148 	3.00286 	0
1.26242 	0.821285 	0.0115343 	3.00787 	0
1.33255 	0.821285 	0.0115343 	3.00787 	0
1.40269 	0.821285 	0.0115343 	3.00787 	0
1.47282 	0.821285 	0.0115343 	3.00787 	0
1.54296 	0.821285 	0.0115343 	3.00787 	0
1.61309 	0.821285 	0.0115343 	3.00787 	0
1.68323 	0.821285 	0.0115343 	3.00787 	0
1.75336 	0.821285 	0.0115343 	3.00787 	0
1.82349 	0.771507 	0.0147876 	3.02408 	2.94605e-19
1.89363 	0.771507 	0.0147876 	3.02408 	2.94605e-19
1.96376 	0.771507 	0.0147876 	3.02408 	2.94605e-19
2.0339 	0.771507 	0.0147876 	3.02408 	2.94605e-19
2.10403 	0.771507 	0.0147876 	3.02408 	2.94605e-19
2.17417 	0.771507 	0.0147876 	3.02408 	2.94605e-19
2.2443 	0.771507 	0.0147876 	3.02408 	2.94605e-19
2.31443 	0.771507 	0.0147876 	3.02408 	2.94605e-19
2.38457 	0.771507 	0.0147876 	3.02408 	2.94605e-19
2.4547 	0.771507 	0.0147876 	3.02408 	2.94605e-19
2.52484 	0.771507 	0.0147876 	3.02408 	2.94605e-19
2.59497 	0.736952 	0.00729032 	3.03678 	-4.60159e-19
2.66511 	0.736952 	0.00729032 	3.03678 	-4.60159e-19
2.73524 	0.736952 	0.00729032 	3.03678 	-4.60159e-19
2.80538 	0.736952 	0.00729032 	3.03678 	-4.60159e-19
2.87551 	0.736952 	0.00729032 	3.03678 	-4.60159e-19
2.94564 	0.736952 	0.00729032 	3.03678 	-4.60159e-19
3.01578 	0.736952 	0.00729032 	3.03678 	-4.60159e-19
3.08591 	0.736952 	0.00729032 	3.03678 	-4.60159e-19
3.15605 	0.736952 	0.00729032 	3.03678 	-4.60159e-19
3.22618 	0.736952 	0.00729032 	3.03678 	-4.60159e-19
3.29632 	0.704527 	0.0199465 	3.0435 	4.65113e-19
3.36645 	0.704527 	0.0199465 	3.0435 	4.65113e-19
3.43659 	0.704527 	0.0199465 	3.0435 	4.65113e-19
3.50672 	0.704527 	0.0199465 	3.0435 	4.65113e-19
3.57685 	0.704527 	0.0199465 	3.0435 	4.65113e-19
3.64699 	0.704527 	0.0199465 	3.0435 	4.65113e-19
3.71712 	0.704527 	0.0199465 	3.0435 	4.65113e-19
3.78726 	0.704527 	0.0199465 	3.0435 	4.65113e-19
3.85739 	0.704527 	0.0199465 	3.0435 	4.65113e-19
3.92753 	0.704527 	0.0199465 	3.0435 	4.65113e-19
3.99766 	0.704527 	0.0199465 	3.0435 	4.65113e-19
4.06779 	0.686145 	0.00381488 	3.05026 	-1.29327e-20
4.13793 	0.686145 	0.00381488 	3.05026 	-1.29327e-20
4.20806 	0.686145 	0.00381488 	3.05026 	-1.29327e-20
4.2782 	0.686145 	0.00381488 	3.05026 	-1.29327e-20
4.34833 	0.686145 	0.00381488 	3.05026 	-1.29327e-20
4.41847 	0.686145 	0.00381488 	3.05026 	-1.29327e-20
4.4886 	0.661055 	0.0163361 	3.05799 	0
4.55874 	0.661055 	0.0163361 	3.05799 	0
4.62887 	0.661055 	0.0163361 	3.05799 	0
4.699 	0.661055 	0.0163361 	3.05799 	0
4.76914 	0.661055 	0.0163361 	3.05799 	0
4.83927 	0.661055 	0.0163361 	3.05799 	0
4.90941 	0.661055 	0.0163361 	3.05799 	0
4.97954 	0.661055 	0.0163361 	3.05799 	0
5.04968 	0.661055 	0.0163361 	3.05799 	0
5.11981 	0.661055 	0.0163361 	3.05799 	0
5.18994 	0.638603 	0.00597601 	3.06492 	-5.98235e-21
5.26008 	0.638603 	0.00597601 	3.06492 	-5.98235e-21
5.33021 	0.638603 	0.00597601 	3.06492 	-5.98235e-21
5.40035 	0.638603 	0.00597601 	3.06492 	-5.98235e-21
5.47048 	0.638603 	0.00597601 	3.06492 	-5.98235e-21
5.54062 	0.638603 	0.00597601 	3.06492 	-5.98235e-21
5.61075 	0.638603 	0.00597601 	3.06492 	-5.98235e-21
5.68089 	0.609904 	0.0110137 	3.07469 	0
5.75102 	0.609904 	0.0110137 	3.07469 	0
5.82115 	0.609904 	0.0110137 	3.07469 	0
5.89129 	0.609904 	0.0110137 	3.07469 	0
5.96142 	0.609904 	0.0110137 	3.07469 	0
6.03156 	0.609904 	0.0110137 	3.07469 	0
6.10169 	0.609904 	0.0110137 	3.07469 	0
6.17183 	0.609904 	0.0110137 	3.07469 	0
6.24196 	0.609904 	0.0110137 	3.07469 	0
6.3121 	0.58093 	0.00720454 	3.08226 	0
6.38223 	0.58093 	0.00720454 	3.08226 	0
6.45236 	0.58093 	0.00720454 	3.08226 	0
6.5225 	0.58093 	0.00720454 	3.08226 	0
6.59263 	0.58093 	0.00720454 	3.08226 	0
6.66277 	0.58093 	0.00720454 	3.08226 	0
6.7329 	0.58093 	0.00720454 	3.08226 	0
6.80304 	0.58093 	0.00720454 	3.08226 	0
6.87317 	0.554882 	0.00613667 	3.0921 	1.88871e-19
6.9433 	0.554882 	0.00613667 	3.0921 	1.88871e-19
7.01344 	0.554882 	0.00613667 	3.0921 	1.88871e-19
7.08357 	0.554882 	0.00613667 	3.0921 	1.88871e-19
7.15371 	0.554882 	0.00613667 	3.0921 	1.88871e-19
7.22384 	0.554882 	0.00613667 	3.0921 	1.88871e-19
7.29398 	0.554882 	0.00613667 	3.0921 	1.88871e-19
7.36411 	0.554882 	0.00613667 	3.0921 	1.88871e-19
7.43425 	0.554882 	0.00613667 	3.0921 	1.88871e-19
7.50438 	0.52477 	0.00862511 	3.09892 	-1.38164e-18
7.57451 	0.52477 	0.00862511 	3.09892 	-1.38164e-18
7.64465 	0.52477 	0.00862511 	3.09892 	-1.38164e-18
7.71478 	0.52477 	0.00862511 	3.09892 	-1.38164e-18
7.78492 	0.52477 	0.00862511 	3.09892 	-1.38164e-18
7.85505 	0.52477 	0.00862511 	3.09892 	-1.38164e-18
7.92519 	0.52477 	0.00862511 	3.09892 	-1.38164e-18
7.99532 	0.52477 	0.00862511 	3.09892 	-1.38164e-18
8.06545 	0.503584 	0.00185863 	3.1058 	1.3834e-18
8.13559 	0.503584 	0.00185863 	3.1058 	1.3834e-18
8.20572 	0.503584 	0.00185863 	3.1058 	1.3834e-18
8.27586 	0.503584 	0.00185863 	3.1058 	1.3834e-18
8.34599 	0.503584 	0.00185863 	3.1058 	1.3834e-18
8.41613 	0.503584 	0.00185863 	3.1058 	1.3834e-18
8.48626 	0.503584 	0.00185863 	3.1058 	1.3834e-18
8.5564 	0.503584 	0.00185863 	3.1058 	1.3834e-18
8.62653 	0.503584 	0.00185863 	3.1058 	1.3834e-18
8.69666 	0.472034 	0.0129707 	3.11884 	1.08101e-18
8.7668 	0.472034 	0.0129707 	3.11884 	1.08101e-18
8.83693 	0.472034 	0.0129707 	3.11884 	1.08101e-18
8.90707 	0.472034 	0.0129707 	3.11884 	1.08101e-18
8.9772 	0.472034 	0.0129707 	3.11884 	1.08101e-18
9.04734 	0.472034 	0.0129707 	3.11884 	1.08101e-18
9.11747 	0.472034 	0.0129707 	3.11884 	1.08101e-18
9.18761 	0.472034 	0.0129707 	3.11884 	1.08101e-18
9.25774 	0.441304 	0.00617319 	3.11814 	-9.91427e-19
9.32787 	0.441304 	0.00617319 	3.11814 	-9.91427e-19
9.39801 	0.441304 	0.00617319 	3.11814 	-9.91427e-19
9.46814 	0.441304 	0.00617319 	3.11814 	-9.91427e-19
9.53828 	0.441304 	0.00617319 	3.11814 	-9.91427e-19
9.60841 	0.441304 	0.00617319 	3.11814 	-9.91427e-19
9.67855 	0.441304 	0.00617319 	3.11814 	-9.91427e-19
9.74868 	0.441304 	0.00617319 	3.11814 	-9.91427e-19
9.81881 	0.425849 	0.0190447 	3.12936 	-3.34374e-19
9.88895 	0.425849 	0.0190447 	3.12936 	-3.34374e-19
9.95908 	0.425849 	0.0190447 	3.12936 	-3.34374e-19
10.0292 	0.425849 	0.0190447 	3.12936 	-3.34374e-19
10.0994 	0.425849 	0.0190447 	3.12936 	-3.34374e-19
10.1695 	0.425849 	0.0190447 	3.12936 	-3.34374e-19
10.2396 	0.425849 	0.0190447 	3.12936 	-3.34374e-19
10.3098 	0.425849 	0.0190447 	3.12936 	-3.34374e-19
10.3799 	0.425849 	0.0190447 	3.12936 	-3.34374e-19
10.45 	0.425849 	0.0190447 	3.12936 	-3.34374e-19
10.5202 	0.425849 	0.0190447 	3.12936 	-3.34374e-19
10.5903 	0.425849 	0.0190447 	3.12936 	-3.34374e-19
10.6604 	0.448499 	0.0165406 	3.12517 	4.92162e-19
10.7306 	0.394618 	0.0383305 	3.13997 	0
10.8007 	0.394618 	0.0383305 	3.13997 	0
10.8708 	0.394618 	0.0383305 	3.13997 	0
10.941 	0.394618 	0.0383305 	3.13997 	0
11.0111 	0.394618 	0.0383305 	3.13997 	0
11.0812 	0.394618 	0.0383305 	3.13997 	0
11.1514 	0.394618 	0.0383305 	3.13997 	0
11.2215 	0.394618 	0.0383305 	3.13997 	0
11.2916 	0.394618 	0.0383305 	3.13997 	0
11.3618 	0.394618 	0.0383305 	3.13997 	0
11.4319 	0.394618 	0.0383305 	3.13997 	0
11.502 	0.394618 	0.0383305 	3.13997 	0
11.5722 	0.394618 	0.0383305 	3.13997 	0
11.6423 	0.394618 	0.0383305 	3.13997 	0
11.7124 	0.403262 	0.0264685 	3.12824 	0
11.7826 	0.337441 	0.0811792 	3.16353 	4.96988e-19
11.8527 	0.337441 	0.0811792 	3.16353 	4.96988e-19
11.9228 	0.337441 	0.0811792 	3.16353 	4.96988e-19
11.993 	0.337441 	0.0811792 	3.16353 	4.96988e-19
12.0631 	0.337441 	0.0811792 	3.16353 	4.96988e-19
12.1332 	0.337441 	0.0811792 	3.16353 	4.96988e-19
12.2034 	0.233219 	0.0743652 	3.19083 	-2.12121e-19
12.2735 	0.233219 	0.0743652 	3.19083 	-2.12121e-19
12.3437 	0.233219 	0.0743652 	3.19083 	-2.12121e-19
12.4138 	0.233219 	0.0743652 	3.19083 	-2.12121e-19
12.4839 	0.233219 	0.0743652 	3.19083 	-2.12121e-19
12.5541 	0.233219 	0.0743652 	3.19083 	-2.12121e-19
12.6242 	0.233219 	0.0743652 	3.19083 	-2.12121e-19
12.6943 	0.233219 	0.0743652 	3.19083 	-2.12121e-19
12.7645 	0.233219 	0.0743652 	3.19083 	-2.12121e-19
12.8346 	0.112971 	0.039782 	3.18463 	1.02984e-19
12.9047 	0.0924973 	0.142516 	3.22865 	3.47233e-21
12.9749 	0.0924973 	0.142516 	3.22865 	3.47233e-21
13.045 	0.0924973 	0.142516 	3.22865 	3.47233e-21
13.1151 	0.0924973 	0.142516 	3.22865 	3.47233e-21
13.1853 	0.0924973 	0.142516 	3.22865 	3.47233e-21
13.2554 	0.0924973 	0.142516 	3.22865 	3.47233e-21
13.3255 	0.0924973 	0.142516 	3.22865 	3.47233e-21
13.3957 	0.318777 	0.147995 	3.20043 	7.77173e-19
13.4658 	0.318777 	0.147995 	3.20043 	7.77173e-19
13.5359 	0.318777 	0.147995 	3.20043 	7.77173e-19
13.6061 	0.318777 	0.147995 	3.20043 	7.77173e-19
13.6762 	0.318777 	0.147995 	3.20043 	7.77173e-19
13.7463 	0.318777 	0.147995 	3.20043 	7.77173e-19
13.8165 	0.386249 	0.129304 	2.87814 	-6.43278e-19
13.8866 	0.572023 	0.151847 	2.97203 	1.05542e-19
13.9567 	0.572023 	0.151847 	2.97203 	1.05542e-19
14.0269 	0.000424662 	0.256511 	3.04457 	-6.7957e-19
14.097 	0.000424662 	0.256511 	3.04457 	-6.7957e-19
14.1671 	0.000424662 	0.256511 	3.04457 	-6.7957e-19
14.2373 	0.000424662 	0.256511 	3.04457 	-6.7957e-19
14.3074 	0.000424662 	0.256511 	3.04457 	-6.7957e-19
14.3776 	0.000424662 	0.256511 	3.04457 	-6.7957e-19
14.4477 	0.000424662 	0.256511 	3.04457 	-6.7957e-19
14.5178 	0.000424662 	0.256511 	3.04457 	-6.7957e-19
14.588 	0.000424662 	0.256511 	3.04457 	-6.7957e-19
14.6581 	0.000424662 	0.256511 	3.04457 	-6.7957e-19
14.7282 	0.000424662 	0.256511 	3.04457 	-6.7957e-19
14.7984 	0.000424662 	0.256511 	3.04457 	-6.7957e-19
14.8685 	0.000424662 	0.256511 	3.04457 	-6.7957e-19
14.9386 	-0.175632 	0.349636 	3.20162 	0
15.0088 	-0.175632 	0.349636 	3.20162 	0
15.0789 	-0.175632 	0.349636 	3.20162 	0
15.149 	-0.175632 	0.349636 	3.20162 	0
15.2192 	-0.175632 	0.349636 	3.20162 	0
15.2893 	-0.680512 	0.343214 	3.43124 	-4.49107e-19
15.3594 	-0.680512 	0.343214 	3.43124 	-4.49107e-19
15.4296 	-0.680512 	0.343214 	3.43124 	-4.49107e-19
15.4997 	-0.680512 	0.343214 	3.43124 	-4.49107e-19
15.5698 	-0.680512 	0.343214 	3.43124 	-4.49107e-19
15.64 	-0.680512 	0.343214 	3.43124 	-4.49107e-19
15.7101 	-1.18124 	0.398858 	3.50423 	0
15.7802 	-1.18124 	0.398858 	3.50423 	0
15.8504 	-1.0862 	0.649016 	3.56298 	1.67107e-18
15.9205 	-1.0862 	0.649016 	3.56298 	1.67107e-18
15.9906 	-1.0862 	0.649016 	3.56298 	1.67107e-18
16.0608 	-1.0862 	0.649016 	3.56298 	1.67107e-18
16.1309 	-1.0862 	0.649016 	3.56298 	1.67107e-18
16.201 	-1.0862 	0.649016 	3.56298 	1.67107e-18
16.2712 	-1.0862 	0.649016 	3.56298 	1.67107e-18
16.3413 	-1.0862 	0.649016 	3.56298 	1.67107e-18
16.4114 	-1.0862 	0.649016 	3.56298 	1.67107e-18
16.4816 	-1.0862 	0.649016 	3.56298 	1.67107e-18
16.5517 	-1.0862 	0.649016 	3.56298 	1.67107e-18
16.6219 	-1.0862 	0.649016 	3.56298 	1.67107e-18
16.692 	-1.0862 	0.649016 	3.56298 	1.67107e-18
16.7621 	-1.0862 	0.649016 	3.56298 	1.67107e-18
16.8323 	-0.635938 	0.872698 	3.13334 	3.88284e-19
16.9024 	-0.635938 	0.872698 	3.13334 	3.88284e-19
16.9725 	-0.635938 	0.872698 	3.13334 	3.88284e-19
17.0427 	-0.635938 	0.872698 	3.13334 	3.88284e-19
17.1128 	-0.635938 	0.872698 	3.13334 	3.88284e-19
17.1829 	-0.635938 	0.872698 	3.13334 	3.88284e-19
17.2531 	-0.635938 	0.872698 	3.13334 	3.88284e-19
17.3232 	-0.635938 	0.872698 	3.13334 	3.88284e-19
17.3933 	-0.635938 	0.872698 	3.13334 	3.88284e-19
17.4635 	-0.635938 	0.872698 	3.13334 	3.88284e-19
17.5336 	-0.544258 	0.913571 	3.04865 	-4.30244e-19
17.6037 	-0.544258 	0.913571 	3.04865 	-4.30244e-19
17.6739 	-0.544258 	0.913571 	3.04865 	-4.30244e-19
17.744 	-0.6329 	1.04232 	3.17659 	4.80532e-19
17.8141 	-0.6329 	1.04232 	3.17659 	4.80532e-19
17.8843 	-0.6329 	1.04232 	3.17659 	4.80532e-19
17.9544 	-0.6329 	1.04232 	3.17659 	4.80532e-19
18.0245 	-0.6329 	1.04232 	3.17659 	4.80532e-19
18.0947 	-0.6329 	1.04232 	3.17659 	4.80532e-19
18.1648 	-0.6329 	1.04232 	3.17659 	4.80532e-19
18.2349 	-0.6329 	1.04232 	3.17659 	4.80532e-19
18.3051 	-0.6329 	1.04232 	3.17659 	4.80532e-19
18.3752 	-0.341846 	1.00341 	2.78224 	-3.65327e-19
18.4453 	-0.341846 	1.00341 	2.78224 	-3.65327e-19
18.5155 	-0.341846 	1.00341 	2.78224 	-3.65327e-19
18.5856 	-0.341846 	1.00341 	2.78224 	-3.65327e-19
18.6557 	-0.341846 	1.00341 	2.78224 	-3.65327e-19
18.7259 	-0.341846 	1.00341 	2.78224 	-3.65327e-19
18.796 	-0.341846 	1.00341 	2.78224 	-3.65327e-19
18.8662 	-0.267468 	1.04144 	2.83893 	2.84767e-19
18.9363 	-0.267468 	1.04144 	2.83893 	2.84767e-19
19.0064 	-0.267468 	1.04144 	2.83893 	2.84767e-19
19.0766 	-0.267468 	1.04144 	2.83893 	2.84767e-19
19.1467 	-0.267468 	1.04144 	2.83893 	2.84767e-19
19.2168 	-0.267468 	1.04144 	2.83893 	2.84767e-19
19.287 	-0.267468 	1.04144 	2.83893 	2.84767e-19
19.3571 	-0.267468 	1.04144 	2.83893 	2.84767e-19
19.4272 	-0.267468 	1.04144 	2.83893 	2.84767e-19
19.4974 	-0.267468 	1.04144 	2.83893 	2.84767e-19
19.5675 	-0.267468 	1.04144 	2.83893 	2.84767e-19
19.6376 	-0.267468 	1.04144 	2.83893 	2.84767e-19
19.7078 	-0.267468 	1.04144 	2.83893 	2.84767e-19
19.7779 	-0.117528 	0.987809 	2.45938 	-6.71416e-20
19.848 	-0.117528 	0.987809 	2.45938 	-6.71416e-20
19.9182 	-0.117528 	0.987809 	2.45938 	-6.71416e-20
19.9883 	-0.117528 	0.987809 	2.45938 	-6.71416e-20
20.0584 	-0.117528 	0.987809 	2.45938 	-6.71416e-20
20.1286 	-0.117528 	0.987809 	2.45938 	-6.71416e-20
20.1987 	-0.117528 	0.987809 	2.45938 	-6.71416e-20
20.2688 	-0.127435 	1.00216 	2.46309 	-1.66023e-19
20.339 	-0.127435 	1.00216 	2.46309 	-1.66023e-19
20.4091 	-0.127435 	1.00216 	2.46309 	-1.66023e-19
20.4792 	-0.127435 	1.00216 	2.46309 	-1.66023e-19
20.5494 	-0.127435 	1.00216 	2.46309 	-1.66023e-19
20.6195 	-0.127435 	1.00216 	2.46309 	-1.66023e-19
20.6896 	-0.127435 	1.00216 	2.46309 	-1.66023e-19
20.7598 	-0.127435 	1.00216 	2.46309 	-1.66023e-19
20.8299 	-0.127435 	1.00216 	2.46309 	-1.66023e-19
20.9 	-0.127435 	1.00216 	2.46309 	-1.66023e-19
20.9702 	-0.127435 	1.00216 	2.46309 	-1.66023e-19
21.0403 	-0.127435 	1.00216 	2.46309 	-1.66023e-19
21.1105 	-0.127435 	1.00216 	2.46309 	-1.66023e-19
21.1806 	-0.127435 	1.00216 	2.46309 	-1.66023e-19
21.2507 	-0.127435 	1.00216 	2.46309 	-1.66023e-19
21.3209 	-0.127435 	1.00216 	2.46309 	-1.66023e-19
21.391 	-0.127435 	1.00216 	2.46309 	-1.66023e-19
21.4611 	-0.105734 	0.719545 	1.91671 	9.30012e-20
21.5313 	-0.105734 	0.719545 	1.91671 	9.30012e-20
21.6014 	-0.105734 	0.719545 	1.91671 	9.30012e-20
21.6715 	-0.229494 	0.643743 	1.44198 	2.07007e-19
21.7417 	-0.229494 	0.643743 	1.44198 	2.07007e-19
21.8118 	-0.229494 	0.643743 	1.44198 	2.07007e-19
21.8819 	-0.229494 	0.643743 	1.44198 	2.07007e-19
21.9521 	-0.229494 	0.643743 	1.44198 	2.07007e-19
22.0222 	-0.369571 	0.938719 	2.38917 	-3.00455e-19
22.0923 	-0.369571 	0.938719 	2.38917 	-3.00455e-19
22.1625 	-0.369571 	0.938719 	2.38917 	-3.00455e-19
22.2326 	-0.369571 	0.938719 	2.38917 	-3.00455e-19
22.3027 	-0.369571 	0.938719 	2.38917 	-3.00455e-19
22.3729 	-0.369571 	0.938719 	2.38917 	-3.00455e-19
22.443 	-0.369571 	0.938719 	2.38917 	-3.00455e-19
22.5131 	-0.369571 	0.938719 	2.38917 	-3.00455e-19
22.5833 	-0.369571 	0.938719 	2.38917 	-3.00455e-19
22.6534 	-0.369571 	0.938719 	2.38917 	-3.00455e-19
22.7235 	-0.369571 	0.938719 	2.38917 	-3.00455e-19
22.7937 	-0.369571 	0.938719 	2.38917 	-3.00455e-19
22.8638 	-0.369571 	0.938719 	2.38917 	-3.00455e-19
22.9339 	-0.369571 	0.938719 	2.38917 	-3.00455e-19
23.0041 	-0.369571 	0.938719 	2.38917 	-3.00455e-19
23.0742 	-0.369571 	0.938719 	2.38917 	-3.00455e-19
23.1443 	-0.369571 	0.938719 	2.38917 	-3.00455e-19
23.2145 	-0.369571 	0.938719 	2.38917 	-3.00455e-19
23.2846 	-0.369571 	0.938719 	2.38917 	-3.00455e-19
23.3548 	-0.369571 	0.938719 	2.38917 	-3.00455e-19
23.4249 	-0.369571 	0.938719 	2.38917 	-3.00455e-19
23.495 	-0.199092 	0.909548 	2.36065 	4.12211e-20
23.5652 	-0.199092 	0.909548 	2.36065 	4.12211e-20
23.6353 	-0.199092 	0.909548 	2.36065 	4.12211e-20
23.7054 	-0.199092 	0.909548 	2.36065 	4.12211e-20
23.7756 	-0.199092 	0.909548 	2.36065 	4.12211e-20
23.8457 	-0.199092 	0.909548 	2.36065 	4.12211e-20
23.9158 	-0.199092 	0.909548 	2.36065 	4.12211e-20
23.986 	-0.0626766 	0.825767 	2.28436 	-2.22602e-21
24.0561 	-0.0626766 	0.825767 	2.28436 	-2.22602e-21
24.1262 	-0.0626766 	0.825767 	2.28436 	-2.22602e-21
24.1964 	-0.0626766 	0.825767 	2.28436 	-2.22602e-21
24.2665 	-0.0626766 	0.825767 	2.28436 	-2.22602e-21
24.3366 	-0.0626766 	0.825767 	2.28436 	-2.22602e-21
24.4068 	-0.0626766 	0.825767 	2.28436 	-2.22602e-21
24.4769 	-0.0626766 	0.825767 	2.28436 	-2.22602e-21
24.547 	-0.0626766 	0.825767 	2.28436 	-2.22602e-21
24.6172 	-0.0626766 	0.825767 	2.28436 	-2.22602e-21
24.6873 	-0.0626766 	0.825767 	2.28436 	-2.22602e-21
24.7574 	-0.0626766 	0.825767 	2.28436 	-2.22602e-21
24.8276 	-0.0626766 	0.825767 	2.28436 	-2.22602e-21
24.8977 	-0.0626766 	0.825767 	2.28436 	-2.22602e-21
24.9678 	-0.0626766 	0.825767 	2.28436 	-2.22602e-21
25.038 	-0.0626766 	0.825767 	2.28436 	-2.22602e-21
25.1081 	-0.0626766 	0.825767 	2.28436 	-2.22602e-21
25.1782 	-0.10689 	0.469338 	1.40353 	0
25.2484 	-0.10689 	0.469338 	1.40353 	0
25.3185 	-0.10689 	0.469338 	1.40353 	0
25.3886 	-0.10689 	0.469338 	1.40353 	0
25.4588 	-0.10689 	0.469338 	1.40353 	0
25.5289 	-0.10689 	0.469338 	1.40353 	0
25.5991 	-0.10689 	0.469338 	1.40353 	0
25.6692 	-0.10689 	0.469338 	1.40353 	0
25.7393 	-0.10689 	0.469338 	1.40353 	0
25.8095 	-0.10689 	0.469338 	1.40353 	0
25.8796 	-0.10689 	0.469338 	1.40353 	0
25.9497 	-0.10689 	0.469338 	1.40353 	0
26.0199 	-0.10689 	0.469338 	1.40353 	0
26.09 	-0.10689 	0.469338 	1.40353 	0
26.1601 	-0.10689 	0.469338 	1.40353 	0
26.2303 	-0.16115 	0.468688 	1.42731 	3.55538e-19
26.3004 	-0.16115 	0.468688 	1.42731 	3.55538e-19
26.3705 	-0.16115 	0.468688 	1.42731 	3.55538e-19
26.4407 	-0.16115 	0.468688 	1.42731 	3.55538e-19
26.5108 	-0.16115 	0.468688 	1.42731 	3.55538e-19
26.5809 	-0.16115 	0.468688 	1.42731 	3.55538e-19
26.6511 	-0.16115 	0.468688 	1.42731 	3.55538e-19
26.7212 	-0.16115 	0.468688 	1.42731 	3.55538e-19
26.7913 	-0.16115 	0.468688 	1.42731 	3.55538e-19
26.8615 	-0.16115 	0.468688 	1.42731 	3.55538e-19
26.9316 	-0.16115 	0.468688 	1.42731 	3.55538e-19
27.0017 	-0.16115 	0.468688 	1.42731 	3.55538e-19
27.0719 	-0.16115 	0.468688 	1.42731 	3.55538e-19
27.142 	-0.16115 	0.468688 	1.42731 	3.55538e-19
27.2121 	-0.16115 	0.468688 	1.42731 	3.55538e-19
27.2823 	-0.16115 	0.468688 	1.42731 	3.55538e-19
27.3524 	-0.200042 	0.450512 	1.42349 	-3.80946e-19
27.4225 	-0.200042 	0.450512 	1.42349 	-3.80946e-19
27.4927 	-0.200042 	0.450512 	1.42349 	-3.80946e-19
27.5628 	-0.200042 	0.450512 	1.42349 	-3.80946e-19
27.6329 	-0.200042 	0.450512 	1.42349 	-3.80946e-19
27.7031 	-0.200042 	0.450512 	1.42349 	-3.80946e-19
27.7732 	-0.200042 	0.450512 	1.42349 	-3.80946e-19
27.8434 	-0.200042 	0.450512 	1.42349 	-3.80946e-19
27.9135 	-0.200042 	0.450512 	1.42349 	-3.80946e-19
27.9836 	-0.200042 	0.450512 	1.42349 	-3.80946e-19
28.0538 	-0.200042 	0.450512 	1.42349 	-3.80946e-19
28.1239 	-0.200042 	0.450512 	1.42349 	-3.80946e-19
28.194 	-0.200042 	0.450512 	1.42349 	-3.80946e-19
28.2642 	-0.200042 	0.450512 	1.42349 	-3.80946e-19
28.3343 	-0.200042 	0.450512 	1.42349 	-3.80946e-19
28.4044 	-0.200042 	0.450512 	1.42349 	-3.80946e-19
28.4746 	-0.200042 	0.450512 	1.42349 	-3.80946e-19
28.5447 	-0.200042 	0.450512 	1.42349 	-3.80946e-19
28.6148 	-0.200042 	0.450512 	1.42349 	-3.80946e-19
28.685 	-0.200042 	0.450512 	1.42349 	-3.80946e-19
28.7551 	-0.200042 	0.450512 	1.42349 	-3.80946e-19
28.8252 	-0.200042 	0.450512 	1.42349 	-3.80946e-19
28.8954 	-0.200042 	0.450512 	1.42349 	-3.80946e-19
28.9655 	-0.218839 	0.472982 	1.36824 	-2.08576e-20
29.0356 	-0.218839 	0.472982 	1.36824 	-2.08576e-20
29.1058 	-0.218839 	0.472982 	1.36824 	-2.08576e-20
29.1759 	-0.218839 	0.472982 	1.36824 	-2.08576e-20
29.246 	-0.218839 	0.472982 	1.36824 	-2.08576e-20
29.3162 	-0.218839 	0.472982 	1.36824 	-2.08576e-20
29.3863 	-0.218839 	0.472982 	1.36824 	-2.08576e-20
29.4564 	-0.218839 	0.472982 	1.36824 	-2.08576e-20
29.5266 	-0.218839 	0.472982 	1.36824 	-2.08576e-20
29.5967 	-0.218839 	0.472982 	1.36824 	-2.08576e-20
29.6668 	-0.218839 	0.472982 	1.36824 	-2.08576e-20
29.737 	-0.218839 	0.472982 	1.36824 	-2.08576e-20
29.8071 	-0.218839 	0.472982 	1.36824 	-2.08576e-20
29.8773 	-0.218839 	0.472982 	1.36824 	-2.08576e-20
29.9474 	-0.218839 	0.472982 	1.36824 	-2.08576e-20
30.0175 	-0.218839 	0.472982 	1.36824 	-2.08576e-20
30.0877 	-0.218839 	0.472982 	1.36824 	-2.08576e-20
30.1578 	-0.218839 	0.472982 	1.36824 	-2.08576e-20
30.2279 	-0.218839 	0.472982 	1.36824 	-2.08576e-20
30.2981 	-0.218839 	0.472982 	1.36824 	-2.08576e-20
30.3682 	-0.218839 	0.472982 	1.36824 	-2.08576e-20
30.4383 	-0.218839 	0.472982 	1.36824 	-2.08576e-20
30.5085 	-0.218839 	0.472982 	1.36824 	-2.08576e-20
30.5786 	-0.218839 	0.472982 	1.36824 	-2.08576e-20
30.6487 	-0.218839 	0.472982 	1.36824 	-2.08576e-20
30.7189 	-0.218839 	0.472982 	1.36824 	-2.08576e-20
30.789 	-0.29757 	0.540463 	1.3426 	7.20415e-19
30.8591 	-0.29757 	0.540463 	1.3426 	7.20415e-19
30.9293 	-0.29757 	0.540463 	1.3426 	7.20415e-19
30.9994 	-0.29757 	0.540463 	1.3426 	7.20415e-19
31.0695 	-0.29757 	0.540463 	1.3426 	7.20415e-19
31.1397 	-0.29757 	0.540463 	1.3426 	7.20415e-19
31.2098 	-0.29757 	0.540463 	1.3426 	7.20415e-19
31.2799 	-0.29757 	0.540463 	1.3426 	7.20415e-19
31.3501 	-0.29757 	0.540463 	1.3426 	7.20415e-19
31.4202 	-0.29757 	0.540463 	1.3426 	7.20415e-19
31.4903 	-0.29757 	0.540463 	1.3426 	7.20415e-19
31.5605 	-0.29757 	0.540463 	1.3426 	7.20415e-19
31.6306 	-0.29757 	0.540463 	1.3426 	7.20415e-19
31.7007 	-0.29757 	0.540463 	1.3426 	7.20415e-19
31.7709 	-0.29757 	0.540463 	1.3426 	7.20415e-19
31.841 	-0.29757 	0.540463 	1.3426 	7.20415e-19
31.9111 	-0.29757 	0.540463 	1.3426 	7.20415e-19
31.9813 	-0.29757 	0.540463 	1.3426 	7.20415e-19
32.0514 	-0.29757 	0.540463 	1.3426 	7.20415e-19
32.1216 	-0.29757 	0.540463 	1.3426 	7.20415e-19
32.1917 	-0.29757 	0.540463 	1.3426 	7.20415e-19
32.2618 	-0.29757 	0.540463 	1.3426 	7.20415e-19
32.332 	-0.29757 	0.540463 	1.3426 	7.20415e-19
32.4021 	-0.29757 	0.540463 	1.3426 	7.20415e-19
32.4722 	-0.29757 	0.540463 	1.3426 	7.20415e-19
32.5424 	-0.29757 	0.540463 	1.3426 	7.20415e-19
32.6125 	-0.29757 	0.540463 	1.3426 	7.20415e-19
32.6826 	-0.29757 	0.540463 	1.3426 	7.20415e-19
32.7528 	-0.29757 	0.540463 	1.3426 	7.20415e-19
32.8229 	-0.29757 	0.540463 	1.3426 	7.20415e-19
32.893 	-0.29757 	0.540463 	1.3426 	7.20415e-19
32.9632 	-0.29757 	0.540463 	1.3426 	7.20415e-19
33.0333 	-0.29757 	0.540463 	1.3426 	7.20415e-19
33.1034 	-0.29757 	0.540463 	1.3426 	7.20415e-19
33.1736 	-0.29757 	0.540463 	1.3426 	7.20415e-19
33.2437 	-0.29757 	0.540463 	1.3426 	7.20415e-19
33.3138 	-0.29757 	0.540463 	1.3426 	7.20415e-19
33.384 	-0.29757 	0.540463 	1.3426 	7.20415e-19
33.4541 	-0.29757 	0.540463 	1.3426 	7.20415e-19
33.5242 	-0.29757 	0.540463 	1.3426 	7.20415e-19
33.5944 	-0.29757 	0.540463 	1.3426 	7.20415e-19
33.6645 	-0.29757 	0.540463 	1.3426 	7.20415e-19
33.7346 	-0.398713 	0.535586 	1.36422 	-4.80056e-19
33.8048 	-0.398713 	0.535586 	1.36422 	-4.80056e-19
33.8749 	-0.398713 	0.535586 	1.36422 	-4.80056e-19
33.945 	-0.398713 	0.535586 	1.36422 	-4.80056e-19
34.0152 	-0.398713 	0.535586 	1.36422 	-4.80056e-19
34.0853 	-0.398713 	0.535586 	1.36422 	-4.80056e-19
34.1554 	-0.540748 	0.498735 	1.23936 	6.12875e-19
34.2256 	-0.540748 	0.498735 	1.23936 	6.12875e-19
34.2957 	-0.540748 	0.498735 	1.23936 	6.12875e-19
34.3659 	-0.540748 	0.498735 	1.23936 	6.12875e-19
34.436 	-0.540748 	0.498735 	1.23936 	6.12875e-19
34.5061 	-0.540748 	0.498735 	1.23936 	6.12875e-19
34.5763 	-0.540748 	0.498735 	1.23936 	6.12875e-19
34.6464 	-0.540748 	0.498735 	1.23936 	6.12875e-19
34.7165 	-0.441588 	0.484105 	1.77631 	-4.77429e-19
34.7867 	-0.441588 	0.484105 	1.77631 	-4.77429e-19
34.8568 	-0.441588 	0.484105 	1.77631 	-4.77429e-19
34.9269 	-0.441588 	0.484105 	1.77631 	-4.77429e-19
34.9971 	-0.441588 	0.484105 	1.77631 	-4.77429e-19
35.0672 	-0.441588 	0.484105 	1.77631 	-4.77429e-19
35.1373 	-0.441588 	0.484105 	1.77631 	-4.77429e-19
35.2075 	-0.441588 	0.484105 	1.77631 	-4.77429e-19
35.2776 	-0.441588 	0.484105 	1.77631 	-4.77429e-19
35.3477 	-0.441588 	0.484105 	1.77631 	-4.77429e-19
35.4179 	-0.441588 	0.484105 	1.77631 	-4.77429e-19
35.488 	-0.441588 	0.484105 	1.77631 	-4.77429e-19
35.5581 	-0.441588 	0.484105 	1.77631 	-4.77429e-19
35.6283 	-0.441588 	0.484105 	1.77631 	-4.77429e-19
35.6984 	-0.441588 	0.484105 	1.77631 	-4.77429e-19
35.7685 	-0.441588 	0.484105 	1.77631 	-4.77429e-19
35.8387 	-0.441588 	0.484105 	1.77631 	-4.77429e-19
35.9088 	-0.441588 	0.484105 	1.77631 	-4.77429e-19
35.9789 	-0.441588 	0.484105 	1.77631 	-4.77429e-19
36.0491 	-0.479864 	0.379928 	1.76929 	0
36.1192 	-0.479864 	0.379928 	1.76929 	0
36.1893 	-0.479864 	0.379928 	1.76929 	0
36.2595 	-0.479864 	0.379928 	1.76929 	0
36.3296 	-0.479864 	0.379928 	1.76929 	0
36.3997 	-0.479864 	0.379928 	1.76929 	0
36.4699 	-0.479864 	0.379928 	1.76929 	0
36.54 	-0.479864 	0.379928 	1.76929 	0
36.6102 	-0.479864 	0.379928 	1.76929 	0
36.6803 	-0.479864 	0.379928 	1.76929 	0
36.7504 	-0.479864 	0.379928 	1.76929 	0
36.8206 	-0.479864 	0.379928 	1.76929 	0
36.8907 	-0.663847 	0.127678 	1.68197 	-5.95383e-19
36.9608 	-0.663847 	0.127678 	1.68197 	-5.95383e-19
37.031 	-0.663847 	0.127678 	1.68197 	-5.95383e-19
37.1011 	-0.663847 	0.127678 	1.68197 	-5.95383e-19
37.1712 	-0.663847 	0.127678 	1.68197 	-5.95383e-19
37.2414 	-0.663847 	0.127678 	1.68197 	-5.95383e-19
37.3115 	-0.663847 	0.127678 	1.68197 	-5.95383e-19
37.3816 	-0.663847 	0.127678 	1.68197 	-5.95383e-19
37.4518 	-0.663847 	0.127678 	1.68197 	-5.95383e-19
37.5219 	-0.663847 	0.127678 	1.68197 	-5.95383e-19
37.592 	-0.663847 	0.127678 	1.68197 	-5.95383e-19
37.6622 	-0.663847 	0.127678 	1.68197 	-5.95383e-19
37.7323 	-0.663847 	0.127678 	1.68197 	-5.95383e-19
37.8024 	-0.663847 	0.127678 	1.68197 	-5.95383e-19
37.8726 	-0.663847 	0.127678 	1.68197 	-5.95383e-19
37.9427 	-0.663847 	0.127678 	1.68197 	-5.95383e-19
38.0128 	-0.663847 	0.127678 	1.68197 	-5.95383e-19
38.083 	-0.663847 	0.127678 	1.68197 	-5.95383e-19
38.1531 	-0.663847 	0.127678 	1.68197 	-5.95383e-19
38.2232 	-0.577143 	-0.1177 	1.95299 	6.77093e-19
38.2934 	-0.577143 	-0.1177 	1.95299 	6.77093e-19
38.3635 	-0.577143 	-0.1177 	1.95299 	6.77093e-19
38.4336 	-0.577143 	-0.1177 	1.95299 	6.77093e-19
38.5038 	-0.577143 	-0.1177 	1.95299 	6.77093e-19
38.5739 	-0.577143 	-0.1177 	1.95299 	6.77093e-19
38.644 	-0.577143 	-0.1177 	1.95299 	6.77093e-19
38.7142 	-0.577143 	-0.1177 	1.95299 	6.77093e-19
38.7843 	-0.577143 	-0.1177 	1.95299 	6.77093e-19
38.8545 	-0.577143 	-0.1177 	1.95299 	6.77093e-19
38.9246 	-0.577143 	-0.1177 	1.95299 	6.77093e-19
38.9947 	-0.577143 	-0.1177 	1.95299 	6.77093e-19
39.0649 	-0.577143 	-0.1177 	1.95299 	6.77093e-19
39.135 	-0.577143 	-0.1177 	1.95299 	6.77093e-19
39.2051 	-0.451733 	-0.253734 	1.84193 	0
39.2753 	-0.451733 	-0.253734 	1.84193 	0
39.3454 	-0.451733 	-0.253734 	1.84193 	0
39.4155 	-0.451733 	-0.253734 	1.84193 	0
39.4857 	-0.451733 	-0.253734 	1.84193 	0
39.5558 	-0.451733 	-0.253734 	1.84193 	0
39.6259 	-0.451733 	-0.253734 	1.84193 	0
39.6961 	-0.451733 	-0.253734 	1.84193 	0
39.7662 	-0.451733 	-0.253734 	1.84193 	0
39.8363 	-0.451733 	-0.253734 	1.84193 	0
39.9065 	-0.451733 	-0.253734 	1.84193 	0
39.9766 	-0.451733 	-0.253734 	1.84193 	0
40.0467 	-0.451733 	-0.253734 	1.84193 	0
40.1169 	-0.451733 	-0.253734 	1.84193 	0
40.187 	-0.451733 	-0.253734 	1.84193 	0
40.2571 	-0.451733 	-0.253734 	1.84193 	0
40.3273 	-0.451733 	-0.253734 	1.84193 	0
40.3974 	-0.451733 	-0.253734 	1.84193 	0
40.4675 	-0.451733 	-0.253734 	1.84193 	0
40.5377 	-0.451733 	-0.253734 	1.84193 	0
40.6078 	-0.451733 	-0.253734 	1.84193 	0
40.6779 	-0.372737 	-0.317893 	1.85704 	1.5227e-19
40.7481 	-0.372737 	-0.317893 	1.85704 	1.5227e-19
40.8182 	-0.372737 	-0.317893 	1.85704 	1.5227e-19
40.8883 	-0.372737 	-0.317893 	1.85704 	1.5227e-19
40.9585 	-0.372737 	-0.317893 	1.85704 	1.5227e-19
41.0286 	-0.372737 	-0.317893 	1.85704 	1.5227e-19
41.0988 	-0.372737 	-0.317893 	1.85704 	1.5227e-19
41.1689 	-0.372737 	-0.317893 	1.85704 	1.5227e-19
41.239 	-0.216982 	-0.349312 	1.85366 	-2.63894e-19
41.3092 	-0.216982 	-0.349312 	1.85366 	-2.63894e-19
41.3793 	-0.216982 	-0.349312 	1.85366 	-2.63894e-19
41.4494 	-0.216982 	-0.349312 	1.85366 	-2.63894e-19
41.5196 	-0.216982 	-0.349312 	1.85366 	-2.63894e-19
41.5897 	-0.216982 	-0.349312 	1.85366 	-2.63894e-19
41.6598 	-0.216982 	-0.349312 	1.85366 	-2.63894e-19
41.73 	-0.216982 	-0.349312 	1.85366 	-2.63894e-19
41.8001 	-0.216982 	-0.349312 	1.85366 	-2.63894e-19
41.8702 	-0.216982 	-0.349312 	1.85366 	-2.63894e-19
41.9404 	-0.216982 	-0.349312 	1.85366 	-2.63894e-19
42.0105 	-0.216982 	-0.349312 	1.85366 	-2.63894e-19
42.0806 	-0.216982 	-0.349312 	1.85366 	-2.63894e-19
42.1508 	-0.216982 	-0.349312 	1.85366 	-2.63894e-19
42.2209 	-0.216982 	-0.349312 	1.85366 	-2.63894e-19
42.291 	-0.216982 	-0.349312 	1.85366 	-2.63894e-19
42.3612 	-0.216982 	-0.349312 	1.85366 	-2.63894e-19
42.4313 	-0.216982 	-0.349312 	1.85366 	-2.63894e-19
42.5014 	-0.216982 	-0.349312 	1.85366 	-2.63894e-19
42.5716 	-0.216982 	-0.349312 	1.85366 	-2.63894e-19
42.6417 	-0.216982 	-0.349312 	1.85366 	-2.63894e-19
42.7118 	-0.160845 	-0.37457 	1.87141 	0
42.782 	-0.160845 	-0.37457 	1.87141 	0
42.8521 	-0.160845 	-0.37457 	1.87141 	0
42.9222 	-0.160845 	-0.37457 	1.87141 	0
42.9924 	-0.0369977 	-0.329602 	1.87501 	0
43.0625 	-0.0369977 	-0.329602 	1.87501 	0
43.1327 	-0.0369977 	-0.329602 	1.87501 	0
43.2028 	-0.0369977 	-0.329602 	1.87501 	0
43.2729 	-0.0369977 	-0.329602 	1.87501 	0