0.490941 	1.71428 	0.00536596 	3.00066 	-5.29775e-20
0.561075 	1.71428 	0.00536596 	3.00066 	-5.29775e-20
0.63121 	1.71428 	0.00536596 	3.00066 	-5.29775e-20
0.701344 	1.71428 	0.00536596 	3.00066 	-5.29775e-20
0.771478 	1.71428 	0.00536596 	3.00066 	-5.29775e-20
0.841613 	1.71428 	0.00536596 	3.00066 	-5.29775e-20
0.911747 	1.71428 	0.00536596 	3.00066 	-5.29775e-20
0.981881 	1.71428 	0.00536596 	3.00066 	-5.29775e-20
1.05202 	1.71428 	0.00536596 	3.00066 	-5.29775e-20
1.12215 	1.71428 	0.00536596 	3.00066 	-5.29775e-20
1.19228 	1.71428 	0.00536596 	3.00066 	-5.29775e-20
1.26242 	1.71428 	0.00536596 	3.00066 	-5.29775e-20
1.33255 	1.67482 	0.0145683 	3.01416 	-5.42115e-20
1.40269 	1.67482 	0.0145683 	3.01416 	-5.42115e-20
1.47282 	1.67482 	0.0145683 	3.01416 	-5.42115e-20
1.54296 	1.67482 	0.0145683 	3.01416 	-5.42115e-20
1.61309 	1.67482 	0.0145683 	3.01416 	-5.42115e-20
1.68323 	1.67482 	0.0145683 	3.01416 	-5.42115e-20
1.75336 	1.67482 	0.0145683 	3.01416 	-5.42115e-20
1.82349 	1.67482 	0.0145683 	3.01416 	-5.42115e-20
1.89363 	1.67482 	0.0145683 	3.01416 	-5.42115e-20
1.96376 	1.67482 	0.0145683 	3.01416 	-5.42115e-20
2.0339 	1.67482 	0.0145683 	3.01416 	-5.42115e-20
2.10403 	1.67482 	0.0145683 	3.01416 	-5.42115e-20
2.17417 	1.61411 	0.0137256 	3.03217 	1.12942e-19
2.2443 	1.61411 	0.0137256 	3.03217 	1.12942e-19
2.31443 	1.61411 	0.0137256 	3.03217 	1.12942e-19
2.38457 	1.61411 	0.0137256 	3.03217 	1.12942e-19
2.4547 	1.61411 	0.0137256 	3.03217 	1.12942e-19
2.52484 	1.61411 	0.0137256 	3.03217 	1.12942e-19
2.59497 	1.61411 	0.0137256 	3.03217 	1.12942e-19
2.66511 	1.61411 	0.0137256 	3.03217 	1.12942e-19
2.73524 	1.61411 	0.0137256 	3.03217 	1.12942e-19
2.80538 	1.61411 	0.0137256 	3.03217 	1.12942e-19
2.87551 	1.61411 	0.0137256 	3.03217 	1.12942e-19
2.94564 	1.61411 	0.0137256 	3.03217 	1.12942e-19
3.01578 	1.54016 	0.0168996 	3.05859 	-1.3115e-20
3.08591 	1.54016 	0.0168996 	3.05859 	-1.3115e-20
3.15605 	1.54016 	0.0168996 	3.05859 	-1.3115e-20
3.22618 	1.54016 	0.0168996 	3.05859 	-1.3115e-20
3.29632 	1.54016 	0.0168996 	3.05859 	-1.3115e-20
3.36645 	1.54016 	0.0168996 	3.05859 	-1.3115e-20
3.43659 	1.54016 	0.0168996 	3.05859 	-1.3115e-20
3.50672 	1.54016 	0.0168996 	3.05859 	-1.3115e-20
3.57685 	1.54016 	0.0168996 	3.05859 	-1.3115e-20
3.64699 	1.54016 	0.0168996 	3.05859 	-1.3115e-20
3.71712 	1.54016 	0.0168996 	3.05859 	-1.3115e-20
3.78726 	1.53298 	0.0070836 	3.05569 	2.56933e-20
3.85739 	1.45398 	-0.000744429 	3.08398 	-1.89182e-19
3.92753 	1.45398 	-0.000744429 	3.08398 	-1.89182e-19
3.99766 	1.45398 	-0.000744429 	3.08398 	-1.89182e-19
4.06779 	1.45398 	-0.000744429 	3.08398 	-1.89182e-19
4.13793 	1.45398 	-0.000744429 	3.08398 	-1.89182e-19
4.20806 	1.45398 	-0.000744429 	3.08398 	-1.89182e-19
4.2782 	1.45398 	-0.000744429 	3.08398 	-1.89182e-19
4.34833 	1.45398 	-0.000744429 	3.08398 	-1.89182e-19
4.41847 	1.45398 	-0.000744429 	3.08398 	-1.89182e-19
4.4886 	1.45398 	-0.000744429 	3.08398 	-1.89182e-19
4.55874 	1.45398 	-0.000744429 	3.08398 	-1.89182e-19
4.62887 	1.45398 	-0.000744429 	3.08398 	-1.89182e-19
4.699 	1.45398 	-0.000744429 	3.08398 	-1.89182e-19
4.76914 	1.37528 	0.00551822 	3.10682 	3.68008e-19
4.83927 	1.37528 	0.00551822 	3.10682 	3.68008e-19
4.90941 	1.37528 	0.00551822 	3.10682 	3.68008e-19
4.97954 	1.37528 	0.00551822 	3.10682 	3.68008e-19
5.04968 	1.37528 	0.00551822 	3.10682 	3.68008e-19
5.11981 	1.37528 	0.00551822 	3.10682 	3.68008e-19
5.18994 	1.37528 	0.00551822 	3.10682 	3.68008e-19
5.26008 	1.37528 	0.00551822 	3.10682 	3.68008e-19
5.33021 	1.37528 	0.00551822 	3.10682 	3.68008e-19
5.40035 	1.37528 	0.00551822 	3.10682 	3.68008e-19
5.47048 	1.37528 	0.00551822 	3.10682 	3.68008e-19
5.54062 	1.37528 	0.00551822 	3.10682 	3.68008e-19
5.61075 	1.30066 	-0.00206561 	3.13338 	-1.786e-19
5.68089 	1.30066 	-0.00206561 	3.13338 	-1.786e-19
5.75102 	1.30066 	-0.00206561 	3.13338 	-1.786e-19
5.82115 	1.30066 	-0.00206561 	3.13338 	-1.786e-19
5.89129 	1.30066 	-0.00206561 	3.13338 	-1.786e-19
5.96142 	1.30066 	-0.00206561 	3.13338 	-1.786e-19
6.03156 	1.30066 	-0.00206561 	3.13338 	-1.786e-19
6.10169 	1.30066 	-0.00206561 	3.13338 	-1.786e-19
6.17183 	1.30066 	-0.00206561 	3.13338 	-1.786e-19
6.24196 	1.30066 	-0.00206561 	3.13338 	-1.786e-19
6.3121 	1.30066 	-0.00206561 	3.13338 	-1.786e-19
6.38223 	1.30066 	-0.00206561 	3.13338 	-1.786e-19
6.45236 	1.22944 	0.00519395 	3.15348 	0
6.5225 	1.22944 	0.00519395 	3.15348 	0
6.59263 	1.22944 	0.00519395 	3.15348 	0
6.66277 	1.22944 	0.00519395 	3.15348 	0
6.7329 	1.22944 	0.00519395 	3.15348 	0
6.80304 	1.22944 	0.00519395 	3.15348 	0
6.87317 	1.22944 	0.00519395 	3.15348 	0
6.9433 	1.22944 	0.00519395 	3.15348 	0
7.01344 	1.22944 	0.00519395 	3.15348 	0
7.08357 	1.22944 	0.00519395 	3.15348 	0
7.15371 	1.22944 	0.00519395 	3.15348 	0
7.22384 	1.22944 	0.00519395 	3.15348 	0
7.29398 	1.16144 	-0.00136132 	3.17765 	0
7.36411 	1.16144 	-0.00136132 	3.17765 	0
7.43425 	1.16144 	-0.00136132 	3.17765 	0
7.50438 	1.16144 	-0.00136132 	3.17765 	0
7.57451 	1.16144 	-0.00136132 	3.17765 	0
7.64465 	1.16144 	-0.00136132 	3.17765 	0
7.71478 	1.16144 	-0.00136132 	3.17765 	0
7.78492 	1.16144 	-0.00136132 	3.17765 	0
7.85505 	1.16144 	-0.00136132 	3.17765 	0
7.92519 	1.16144 	-0.00136132 	3.17765 	0
7.99532 	1.16144 	-0.00136132 	3.17765 	0
8.06545 	1.16144 	-0.00136132 	3.17765 	0
8.13559 	1.16144 	-0.00136132 	3.17765 	0
8.20572 	1.09427 	0.00728865 	3.19617 	3.62966e-22
8.27586 	1.09427 	0.00728865 	3.19617 	3.62966e-22
8.34599 	1.09427 	0.00728865 	3.19617 	3.62966e-22
8.41613 	1.09427 	0.00728865 	3.19617 	3.62966e-22
8.48626 	1.09427 	0.00728865 	3.19617 	3.62966e-22
8.5564 	1.09427 	0.00728865 	3.19617 	3.62966e-22
8.62653 	1.09427 	0.00728865 	3.19617 	3.62966e-22
8.69666 	1.09427 	0.00728865 	3.19617 	3.62966e-22
8.7668 	1.09427 	0.00728865 	3.19617 	3.62966e-22
8.83693 	1.09427 	0.00728865 	3.19617 	3.62966e-22
8.90707 	1.09427 	0.00728865 	3.19617 	3.62966e-22
8.9772 	1.09427 	0.00728865 	3.19617 	3.62966e-22
9.04734 	1.0278 	0.0029751 	3.21957 	2.65413e-19
9.11747 	1.0278 	0.0029751 	3.21957 	2.65413e-19
9.18761 	1.0278 	0.0029751 	3.21957 	2.65413e-19
9.25774 	1.0278 	0.0029751 	3.21957 	2.65413e-19
9.32787 	1.0278 	0.0029751 	3.21957 	2.65413e-19
9.39801 	1.0278 	0.0029751 	3.21957 	2.65413e-19
9.46814 	1.0278 	0.0029751 	3.21957 	2.65413e-19
9.53828 	1.0278 	0.0029751 	3.21957 	2.65413e-19
9.60841 	1.0278 	0.0029751 	3.21957 	2.65413e-19
9.67855 	1.0278 	0.0029751 	3.21957 	2.65413e-19
9.74868 	1.0278 	0.0029751 	3.21957 	2.65413e-19
9.81881 	1.0278 	0.0029751 	3.21957 	2.65413e-19
9.88895 	1.0278 	0.0029751 	3.21957 	2.65413e-19
9.95908 	0.960519 	0.0160784 	3.23793 	-2.3305e-21
10.0292 	0.960519 	0.0160784 	3.23793 	-2.3305e-21
10.0994 	0.960519 	0.0160784 	3.23793 	-2.3305e-21
10.1695 	0.960519 	0.0160784 	3.23793 	-2.3305e-21
10.2396 	0.960519 	0.0160784 	3.23793 	-2.3305e-21
10.3098 	0.960519 	0.0160784 	3.23793 	-2.3305e-21
10.3799 	0.960519 	0.0160784 	3.23793 	-2.3305e-21
10.45 	0.960519 	0.0160784 	3.23793 	-2.3305e-21
10.5202 	0.960519 	0.0160784 	3.23793 	-2.3305e-21
10.5903 	0.960519 	0.0160784 	3.23793 	-2.3305e-21
10.6604 	0.960519 	0.0160784 	3.23793 	-2.3305e-21
10.7306 	0.960519 	0.0160784 	3.23793 	-2.3305e-21
10.8007 	0.89279 	0.0209584 	3.26131 	-2.60931e-19
10.8708 	0.89279 	0.0209584 	3.26131 	-2.60931e-19
10.941 	0.89279 	0.0209584 	3.26131 	-2.60931e-19
11.0111 	0.89279 	0.0209584 	3.26131 	-2.60931e-19
11.0812 	0.89279 	0.0209584 	3.26131 	-2.60931e-19
11.1514 	0.89279 	0.0209584 	3.26131 	-2.60931e-19
11.2215 	0.89279 	0.0209584 	3.26131 	-2.60931e-19
11.2916 	0.89279 	0.0209584 	3.26131 	-2.60931e-19
11.3618 	0.89279 	0.0209584 	3.26131 	-2.60931e-19
11.4319 	0.89279 	0.0209584 	3.26131 	-2.60931e-19
11.502 	0.89279 	0.0209584 	3.26131 	-2.60931e-19
11.5722 	0.89279 	0.0209584 	3.26131 	-2.60931e-19
11.6423 	0.89279 	0.0209584 	3.26131 	-2.60931e-19
11.7124 	0.820556 	0.050263 	3.2815 	-4.02215e-19
11.7826 	0.820556 	0.050263 	3.2815 	-4.02215e-19
11.8527 	0.820556 	0.050263 	3.2815 	-4.02215e-19
11.9228 	0.820556 	0.050263 	3.2815 	-4.02215e-19
11.993 	0.820556 	0.050263 	3.2815 	-4.02215e-19
12.0631 	0.820556 	0.050263 	3.2815 	-4.02215e-19
12.1332 	0.820556 	0.050263 	3.2815 	-4.02215e-19
12.2034 	0.820556 	0.050263 	3.2815 	-4.02215e-19
12.2735 	0.820556 	0.050263 	3.2815 	-4.02215e-19
12.3437 	0.820556 	0.050263 	3.2815 	-4.02215e-19
12.4138 	0.820556 	0.050263 	3.2815 	-4.02215e-19
12.4839 	0.820556 	0.050263 	3.2815 	-4.02215e-19
12.5541 	0.820556 	0.050263 	3.2815 	-4.02215e-19
12.6242 	0.740485 	0.0749631 	3.30663 	7.73441e-19
12.6943 	0.740485 	0.0749631 	3.30663 	7.73441e-19
12.7645 	0.740485 	0.0749631 	3.30663 	7.73441e-19
12.8346 	0.740485 	0.0749631 	3.30663 	7.73441e-19
12.9047 	0.740485 	0.0749631 	3.30663 	7.73441e-19
12.9749 	0.740485 	0.0749631 	3.30663 	7.73441e-19
13.045 	0.740485 	0.0749631 	3.30663 	7.73441e-19
13.1151 	0.740485 	0.0749631 	3.30663 	7.73441e-19
13.1853 	0.740485 	0.0749631 	3.30663 	7.73441e-19
13.2554 	0.740485 	0.0749631 	3.30663 	7.73441e-19
13.3255 	0.740485 	0.0749631 	3.30663 	7.73441e-19
13.3957 	0.740485 	0.0749631 	3.30663 	7.73441e-19
13.4658 	0.740485 	0.0749631 	3.30663 	7.73441e-19
13.5359 	0.640319 	0.147367 	3.34035 	-3.73084e-19
13.6061 	0.640319 	0.147367 	3.34035 	-3.73084e-19
13.6762 	0.640319 	0.147367 	3.34035 	-3.73084e-19
13.7463 	0.640319 	0.147367 	3.34035 	-3.73084e-19
13.8165 	0.640319 	0.147367 	3.34035 	-3.73084e-19
13.8866 	0.640319 	0.147367 	3.34035 	-3.73084e-19
13.9567 	0.640319 	0.147367 	3.34035 	-3.73084e-19
14.0269 	0.640319 	0.147367 	3.34035 	-3.73084e-19
14.097 	0.640319 	0.147367 	3.34035 	-3.73084e-19
14.1671 	0.640319 	0.147367 	3.34035 	-3.73084e-19
14.2373 	0.640319 	0.147367 	3.34035 	-3.73084e-19
14.3074 	0.640319 	0.147367 	3.34035 	-3.73084e-19
14.3776 	0.547618 	0.171058 	3.35785 	0
14.4477 	0.348932 	0.170688 	3.41545 	3.50625e-19
14.5178 	0.348932 	0.170688 	3.41545 	3.50625e-19
14.588 	0.348932 	0.170688 	3.41545 	3.50625e-19
14.6581 	0.348932 	0.170688 	3.41545 	3.50625e-19
14.7282 	0.348932 	0.170688 	3.41545 	3.50625e-19
14.7984 	0.348932 	0.170688 	3.41545 	3.50625e-19
14.8685 	0.377632 	0.195109 	3.40535 	-7.10213e-19
14.9386 	0.377632 	0.195109 	3.40535 	-7.10213e-19
15.0088 	0.377632 	0.195109 	3.40535 	-7.10213e-19
15.0789 	0.377632 	0.195109 	3.40535 	-7.10213e-19
15.149 	0.377632 	0.195109 	3.40535 	-7.10213e-19
15.2192 	0.141681 	0.26014 	3.47157 	3.42242e-19
15.2893 	0.141681 	0.26014 	3.47157 	3.42242e-19
15.3594 	0.141681 	0.26014 	3.47157 	3.42242e-19
15.4296 	0.27263 	0.328512 	3.42611 	5.01479e-20
15.4997 	0.27263 	0.328512 	3.42611 	5.01479e-20
15.5698 	0.27263 	0.328512 	3.42611 	5.01479e-20
15.64 	0.27263 	0.328512 	3.42611 	5.01479e-20
15.7101 	0.27263 	0.328512 	3.42611 	5.01479e-20
15.7802 	0.27263 	0.328512 	3.42611 	5.01479e-20
15.8504 	0.27263 	0.328512 	3.42611 	5.01479e-20
15.9205 	0.0200509 	0.333348 	3.52518 	9.11894e-20
15.9906 	0.0200509 	0.333348 	3.52518 	9.11894e-20
16.0608 	0.0200509 	0.333348 	3.52518 	9.11894e-20
16.1309 	0.23376 	0.419063 	3.43617 	2.07768e-19
16.201 	0.23376 	0.419063 	3.43617 	2.07768e-19
16.2712 	0.23376 	0.419063 	3.43617 	2.07768e-19
16.3413 	0.23376 	0.419063 	3.43617 	2.07768e-19
16.4114 	0.23376 	0.419063 	3.43617 	2.07768e-19
16.4816 	0.23376 	0.419063 	3.43617 	2.07768e-19
16.5517 	0.23376 	0.419063 	3.43617 	2.07768e-19
16.6219 	0.0507587 	0.518282 	3.51222 	0
16.692 	0.0507587 	0.518282 	3.51222 	0
16.7621 	0.0507587 	0.518282 	3.51222 	0
16.8323 	0.0507587 	0.518282 	3.51222 	0
16.9024 	0.0507587 	0.518282 	3.51222 	0
16.9725 	0.282251 	0.527152 	3.41669 	1.9603e-19
17.0427 	0.282251 	0.527152 	3.41669 	1.9603e-19
17.1128 	0.282251 	0.527152 	3.41669 	1.9603e-19
17.1829 	0.282251 	0.527152 	3.41669 	1.9603e-19
17.2531 	0.131336 	0.610422 	3.46756 	1.4472e-19
17.3232 	0.131336 	0.610422 	3.46756 	1.4472e-19
17.3933 	0.131336 	0.610422 	3.46756 	1.4472e-19
17.4635 	0.131336 	0.610422 	3.46756 	1.4472e-19
17.5336 	0.131336 	0.610422 	3.46756 	1.4472e-19
17.6037 	0.131336 	0.610422 	3.46756 	1.4472e-19
17.6739 	0.131336 	0.610422 	3.46756 	1.4472e-19
17.744 	0.131336 	0.610422 	3.46756 	1.4472e-19
17.8141 	0.131336 	0.610422 	3.46756 	1.4472e-19
17.8843 	0.131336 	0.610422 	3.46756 	1.4472e-19
17.9544 	0.207612 	0.626397 	3.38938 	0
18.0245 	0.207612 	0.626397 	3.38938 	0
18.0947 	0.207612 	0.626397 	3.38938 	0
18.1648 	0.207612 	0.626397 	3.38938 	0
18.2349 	0.207612 	0.626397 	3.38938 	0
18.3051 	0.207612 	0.626397 	3.38938 	0
18.3752 	0.207612 	0.626397 	3.38938 	0
18.4453 	0.207612 	0.626397 	3.38938 	0
18.5155 	0.207612 	0.626397 	3.38938 	0
18.5856 	0.114414 	0.716896 	3.43064 	0
18.6557 	0.114414 	0.716896 	3.43064 	0
18.7259 	0.114414 	0.716896 	3.43064 	0
18.796 	0.114414 	0.716896 	3.43064 	0
18.8662 	0.114414 	0.716896 	3.43064 	0
18.9363 	0.114414 	0.716896 	3.43064 	0
19.0064 	0.114414 	0.716896 	3.43064 	0
19.0766 	0.114414 	0.716896 	3.43064 	0
19.1467 	0.114414 	0.716896 	3.43064 	0
19.2168 	0.0648929 	0.762319 	3.41149 	2.7535e-20
19.287 	0.291057 	0.688212 	3.21468 	-5.6829e-20
19.3571 	0.291057 	0.688212 	3.21468 	-5.6829e-20
19.4272 	0.291057 	0.688212 	3.21468 	-5.6829e-20
19.4974 	0.291057 	0.688212 	3.21468 	-5.6829e-20
19.5675 	0.291057 	0.688212 	3.21468 	-5.6829e-20
19.6376 	0.291057 	0.688212 	3.21468 	-5.6829e-20
19.7078 	0.291057 	0.688212 	3.21468 	-5.6829e-20
19.7779 	0.291057 	0.688212 	3.21468 	-5.6829e-20
19.848 	0.291057 	0.688212 	3.21468 	-5.6829e-20
19.9182 	0.236883 	0.7497 	3.28584 	-2.15106e-19
19.9883 	0.236883 	0.7497 	3.28584 	-2.15106e-19
20.0584 	0.236883 	0.7497 	3.28584 	-2.15106e-19
20.1286 	0.236883 	0.7497 	3.28584 	-2.15106e-19
20.1987 	0.236883 	0.7497 	3.28584 	-2.15106e-19
20.2688 	0.236883 	0.7497 	3.28584 	-2.15106e-19
20.339 	0.236883 	0.7497 	3.28584 	-2.15106e-19
20.4091 	0.236883 	0.7497 	3.28584 	-2.15106e-19
20.4792 	0.236883 	0.7497 	3.28584 	-2.15106e-19
20.5494 	0.236883 	0.7497 	3.28584 	-2.15106e-19
20.6195 	0.17587 	0.800647 	3.31687 	1.3497e-20
20.6896 	0.17587 	0.800647 	3.31687 	1.3497e-20
20.7598 	0.17587 	0.800647 	3.31687 	1.3497e-20
20.8299 	0.17587 	0.800647 	3.31687 	1.3497e-20
20.9 	0.256698 	0.697371 	2.76936 	-2.95904e-19
20.9702 	0.256698 	0.697371 	2.76936 	-2.95904e-19
21.0403 	0.256698 	0.697371 	2.76936 	-2.95904e-19
21.1105 	0.256698 	0.697371 	2.76936 	-2.95904e-19
21.1806 	0.256698 	0.697371 	2.76936 	-2.95904e-19
21.2507 	0.256698 	0.697371 	2.76936 	-2.95904e-19
21.3209 	0.215689 	0.746734 	2.9506 	0
21.391 	0.215689 	0.746734 	2.9506 	0
21.4611 	0.215689 	0.746734 	2.9506 	0
21.5313 	0.215689 	0.746734 	2.9506 	0
21.6014 	0.215689 	0.746734 	2.9506 	0
21.6715 	0.215689 	0.746734 	2.9506 	0
21.7417 	0.215689 	0.746734 	2.9506 	0
21.8118 	0.215689 	0.746734 	2.9506 	0
21.8819 	0.215689 	0.746734 	2.9506 	0
21.9521 	0.215689 	0.746734 	2.9506 	0
22.0222 	0.215689 	0.746734 	2.9506 	0
22.0923 	0.172734 	0.796781 	3.07448 	-1.11136e-19
22.1625 	0.172734 	0.796781 	3.07448 	-1.11136e-19
22.2326 	0.172734 	0.796781 	3.07448 	-1.11136e-19
22.3027 	0.172734 	0.796781 	3.07448 	-1.11136e-19
22.3729 	0.172734 	0.796781 	3.07448 	-1.11136e-19
22.443 	0.172734 	0.796781 	3.07448 	-1.11136e-19
22.5131 	0.172734 	0.796781 	3.07448 	-1.11136e-19
22.5833 	0.172734 	0.796781 	3.07448 	-1.11136e-19
22.6534 	0.172734 	0.796781 	3.07448 	-1.11136e-19
22.7235 	0.172734 	0.796781 	3.07448 	-1.11136e-19
22.7937 	0.172734 	0.796781 	3.07448 	-1.11136e-19
22.8638 	0.120957 	0.83475 	3.14175 	1.75644e-19
22.9339 	0.120957 	0.83475 	3.14175 	1.75644e-19
23.0041 	0.120957 	0.83475 	3.14175 	1.75644e-19
23.0742 	0.128717 	0.683038 	2.26968 	7.03168e-20
23.1443 	0.128717 	0.683038 	2.26968 	7.03168e-20
23.2145 	0.128717 	0.683038 	2.26968 	7.03168e-20
23.2846 	0.128717 	0.683038 	2.26968 	7.03168e-20
23.3548 	0.128717 	0.683038 	2.26968 	7.03168e-20
23.4249 	0.128717 	0.683038 	2.26968 	7.03168e-20
23.495 	0.128717 	0.683038 	2.26968 	7.03168e-20
23.5652 	0.128717 	0.683038 	2.26968 	7.03168e-20
23.6353 	0.128717 	0.683038 	2.26968 	7.03168e-20
23.7054 	0.080821 	0.72376 	2.44973 	-2.58433e-21
23.7756 	0.080821 	0.72376 	2.44973 	-2.58433e-21
23.8457 	0.080821 	0.72376 	2.44973 	-2.58433e-21
23.9158 	0.080821 	0.72376 	2.44973 	-2.58433e-21
23.986 	0.080821 	0.72376 	2.44973 	-2.58433e-21
24.0561 	0.080821 	0.72376 	2.44973 	-2.58433e-21
24.1262 	0.080821 	0.72376 	2.44973 	-2.58433e-21
24.1964 	0.080821 	0.72376 	2.44973 	-2.58433e-21
24.2665 	0.080821 	0.72376 	2.44973 	-2.58433e-21
24.3366 	0.080821 	0.72376 	2.44973 	-2.58433e-21
24.4068 	0.080821 	0.72376 	2.44973 	-2.58433e-21
24.4769 	0.080821 	0.72376 	2.44973 	-2.58433e-21
24.547 	0.080821 	0.72376 	2.44973 	-2.58433e-21
24.6172 	0.0373107 	0.764956 	2.60469 	4.60006e-20
24.6873 	0.0373107 	0.764956 	2.60469 	4.60006e-20
24.7574 	0.0373107 	0.764956 	2.60469 	4.60006e-20
24.8276 	0.0373107 	0.764956 	2.60469 	4.60006e-20
24.8977 	0.0373107 	0.764956 	2.60469 	4.60006e-20
24.9678 	0.0373107 	0.764956 	2.60469 	4.60006e-20
25.038 	0.0373107 	0.764956 	2.60469 	4.60006e-20
25.1081 	0.0373107 	0.764956 	2.60469 	4.60006e-20
25.1782 	0.0373107 	0.764956 	2.60469 	4.60006e-20
25.2484 	0.0373107 	0.764956 	2.60469 	4.60006e-20
25.3185 	0.0373107 	0.764956 	2.60469 	4.60006e-20
25.3886 	0.0373107 	0.764956 	2.60469 	4.60006e-20
25.4588 	-0.00303519 	0.79865 	2.72581 	-2.9273e-21
25.5289 	-0.00303519 	0.79865 	2.72581 	-2.9273e-21
25.5991 	-0.00303519 	0.79865 	2.72581 	-2.9273e-21
25.6692 	-0.00303519 	0.79865 	2.72581 	-2.9273e-21
25.7393 	-0.00303519 	0.79865 	2.72581 	-2.9273e-21
25.8095 	-0.00303519 	0.79865 	2.72581 	-2.9273e-21
25.8796 	-0.00303519 	0.79865 	2.72581 	-2.9273e-21
25.9497 	-0.00303519 	0.79865 	2.72581 	-2.9273e-21
26.0199 	-0.00303519 	0.79865 	2.72581 	-2.9273e-21
26.09 	-0.00618691 	0.608406 	1.7732 	-1.06814e-20
26.1601 	-0.00618691 	0.608406 	1.7732 	-1.06814e-20
26.2303 	-0.00618691 	0.608406 	1.7732 	-1.06814e-20
26.3004 	-0.00618691 	0.608406 	1.7732 	-1.06814e-20
26.3705 	-0.00618691 	0.608406 	1.7732 	-1.06814e-20
26.4407 	-0.0516559 	0.620313 	1.85809 	-2.13127e-20
26.5108 	-0.0516559 	0.620313 	1.85809 	-2.13127e-20
26.5809 	-0.0516559 	0.620313 	1.85809 	-2.13127e-20
26.6511 	-0.0516559 	0.620313 	1.85809 	-2.13127e-20
26.7212 	-0.0516559 	0.620313 	1.85809 	-2.13127e-20
26.7913 	-0.0516559 	0.620313 	1.85809 	-2.13127e-20
26.8615 	-0.0516559 	0.620313 	1.85809 	-2.13127e-20
26.9316 	-0.0516559 	0.620313 	1.85809 	-2.13127e-20
27.0017 	-0.0516559 	0.620313 	1.85809 	-2.13127e-20
27.0719 	-0.0516559 	0.620313 	1.85809 	-2.13127e-20
27.142 	-0.0516559 	0.620313 	1.85809 	-2.13127e-20
27.2121 	-0.0516559 	0.620313 	1.85809 	-2.13127e-20
27.2823 	-0.0516559 	0.620313 	1.85809 	-2.13127e-20
27.3524 	-0.0960583 	0.630743 	1.93203 	0
27.4225 	-0.0960583 	0.630743 	1.93203 	0
27.4927 	-0.0960583 	0.630743 	1.93203 	0
27.5628 	-0.0960583 	0.630743 	1.93203 	0
27.6329 	-0.0960583 	0.630743 	1.93203 	0
27.7031 	-0.0960583 	0.630743 	1.93203 	0
27.7732 	-0.0960583 	0.630743 	1.93203 	0
27.8434 	-0.0960583 	0.630743 	1.93203 	0
27.9135 	-0.0960583 	0.630743 	1.93203 	0
27.9836 	-0.0960583 	0.630743 	1.93203 	0
28.0538 	-0.0960583 	0.630743 	1.93203 	0
28.1239 	-0.0960583 	0.630743 	1.93203 	0
28.194 	-0.0960583 	0.630743 	1.93203 	0
28.2642 	-0.0960583 	0.630743 	1.93203 	0
28.3343 	-0.0960583 	0.630743 	1.93203 	0
28.4044 	-0.137186 	0.633835 	1.99574 	0
28.4746 	-0.137186 	0.633835 	1.99574 	0
28.5447 	-0.137186 	0.633835 	1.99574 	0
28.6148 	-0.137186 	0.633835 	1.99574 	0
28.685 	-0.137186 	0.633835 	1.99574 	0
28.7551 	-0.137186 	0.633835 	1.99574 	0
28.8252 	-0.137186 	0.633835 	1.99574 	0
28.8954 	-0.137186 	0.633835 	1.99574 	0
28.9655 	-0.137186 	0.633835 	1.99574 	0
29.0356 	-0.137186 	0.633835 	1.99574 	0
29.1058 	-0.137186 	0.633835 	1.99574 	0
29.1759 	-0.137186 	0.633835 	1.99574 	0
29.246 	-0.137186 	0.633835 	1.99574 	0
29.3162 	-0.137186 	0.633835 	1.99574 	0
29.3863 	-0.137186 	0.633835 	1.99574 	0
29.4564 	-0.173558 	0.630543 	2.02725 	-7.9734e-20
29.5266 	-0.173558 	0.630543 	2.02725 	-7.9734e-20
29.5967 	-0.173558 	0.630543 	2.02725 	-7.9734e-20
29.6668 	-0.173558 	0.630543 	2.02725 	-7.9734e-20
29.737 	-0.173558 	0.630543 	2.02725 	-7.9734e-20
29.8071 	-0.173558 	0.630543 	2.02725 	-7.9734e-20
29.8773 	-0.173558 	0.630543 	2.02725 	-7.9734e-20
29.9474 	-0.173558 	0.630543 	2.02725 	-7.9734e-20
30.0175 	-0.173558 	0.630543 	2.02725 	-7.9734e-20
30.0877 	-0.173558 	0.630543 	2.02725 	-7.9734e-20
30.1578 	-0.173558 	0.630543 	2.02725 	-7.9734e-20
30.2279 	-0.173558 	0.630543 	2.02725 	-7.9734e-20
30.2981 	-0.173558 	0.630543 	2.02725 	-7.9734e-20
30.3682 	-0.173558 	0.630543 	2.02725 	-7.9734e-20
30.4383 	-0.173558 	0.630543 	2.02725 	-7.9734e-20
30.5085 	-0.173558 	0.630543 	2.02725 	-7.9734e-20
30.5786 	-0.20429 	0.616767 	2.0343 	-2.29415e-21
30.6487 	-0.20429 	0.616767 	2.0343 	-2.29415e-21
30.7189 	-0.20429 	0.616767 	2.0343 	-2.29415e-21
30.789 	-0.20429 	0.616767 	2.0343 	-2.29415e-21
30.8591 	-0.20429 	0.616767 	2.0343 	-2.29415e-21
30.9293 	-0.20429 	0.616767 	2.0343 	-2.29415e-21
30.9994 	-0.20429 	0.616767 	2.0343 	-2.29415e-21
31.0695 	-0.20429 	0.616767 	2.0343 	-2.29415e-21
31.1397 	-0.20429 	0.616767 	2.0343 	-2.29415e-21
31.2098 	-0.20429 	0.616767 	2.0343 	-2.29415e-21
31.2799 	-0.20429 	0.616767 	2.0343 	-2.29415e-21
31.3501 	-0.20429 	0.616767 	2.0343 	-2.29415e-21
31.4202 	-0.20429 	0.616767 	2.0343 	-2.29415e-21
31.4903 	-0.20429 	0.616767 	2.0343 	-2.29415e-21
31.5605 	-0.256863 	0.512803 	1.66296 	-1.6056e-19
31.6306 	-0.256863 	0.512803 	1.66296 	-1.6056e-19
31.7007 	-0.275693 	0.495634 	1.67298 	9.89738e-20
31.7709 	-0.275693 	0.495634 	1.67298 	9.89738e-20
31.841 	-0.275693 	0.495634 	1.67298 	9.89738e-20
31.9111 	-0.275693 	0.495634 	1.67298 	9.89738e-20
31.9813 	-0.275693 	0.495634 	1.67298 	9.89738e-20
32.0514 	-0.275693 	0.495634 	1.67298 	9.89738e-20
32.1216 	-0.275693 	0.495634 	1.67298 	9.89738e-20
32.1917 	-0.275693 	0.495634 	1.67298 	9.89738e-20
32.2618 	-0.275693 	0.495634 	1.67298 	9.89738e-20
32.332 	-0.275693 	0.495634 	1.67298 	9.89738e-20
32.4021 	-0.275693 	0.495634 	1.67298 	9.89738e-20
32.4722 	-0.275693 	0.495634 	1.67298 	9.89738e-20
32.5424 	-0.275693 	0.495634 	1.67298 	9.89738e-20
32.6125 	-0.275693 	0.495634 	1.67298 	9.89738e-20
32.6826 	-0.275693 	0.495634 	1.67298 	9.89738e-20
32.7528 	-0.275693 	0.495634 	1.67298 	9.89738e-20
32.8229 	-0.275693 	0.495634 	1.67298 	9.89738e-20
32.893 	-0.275693 	0.495634 	1.67298 	9.89738e-20
32.9632 	-0.283182 	0.475969 	1.67633 	2.74035e-20
33.0333 	-0.283182 	0.475969 	1.67633 	2.74035e-20
33.1034 	-0.283182 	0.475969 	1.67633 	2.74035e-20
33.1736 	-0.283182 	0.475969 	1.67633 	2.74035e-20
33.2437 	-0.283182 	0.475969 	1.67633 	2.74035e-20
33.3138 	-0.283182 	0.475969 	1.67633 	2.74035e-20
33.384 	-0.283182 	0.475969 	1.67633 	2.74035e-20
33.4541 	-0.283182 	0.475969 	1.67633 	2.74035e-20
33.5242 	-0.283182 	0.475969 	1.67633 	2.74035e-20
33.5944 	-0.283182 	0.475969 	1.67633 	2.74035e-20
33.6645 	-0.283182 	0.475969 	1.67633 	2.74035e-20
33.7346 	-0.283182 	0.475969 	1.67633 	2.74035e-20
33.8048 	-0.283182 	0.475969 	1.67633 	2.74035e-20
33.8749 	-0.283182 	0.475969 	1.67633 	2.74035e-20
33.945 	-0.283182 	0.475969 	1.67633 	2.74035e-20
34.0152 	-0.283182 	0.475969 	1.67633 	2.74035e-20
34.0853 	-0.283182 	0.475969 	1.67633 	2.74035e-20
34.1554 	-0.283182 	0.475969 	1.67633 	2.74035e-20
34.2256 	-0.275598 	0.451428 	1.66611 	-2.14855e-20
34.2957 	-0.275598 	0.451428 	1.66611 	-2.14855e-20
34.3659 	-0.275598 	0.451428 	1.66611 	-2.14855e-20
34.436 	-0.275598 	0.451428 	1.66611 	-2.14855e-20
34.5061 	-0.275598 	0.451428 	1.66611 	-2.14855e-20
34.5763 	-0.275598 	0.451428 	1.66611 	-2.14855e-20
34.6464 	-0.275598 	0.451428 	1.66611 	-2.14855e-20
34.7165 	-0.275598 	0.451428 	1.66611 	-2.14855e-20
34.7867 	-0.275598 	0.451428 	1.66611 	-2.14855e-20
34.8568 	-0.275598 	0.451428 	1.66611 	-2.14855e-20
34.9269 	-0.275598 	0.451428 	1.66611 	-2.14855e-20
34.9971 	-0.275598 	0.451428 	1.66611 	-2.14855e-20
35.0672 	-0.275598 	0.451428 	1.66611 	-2.14855e-20
35.1373 	-0.275598 	0.451428 	1.66611 	-2.14855e-20
35.2075 	-0.275598 	0.451428 	1.66611 	-2.14855e-20
35.2776 	-0.275598 	0.451428 	1.66611 	-2.14855e-20
35.3477 	-0.275598 	0.451428 	1.66611 	-2.14855e-20
35.4179 	-0.275598 	0.451428 	1.66611 	-2.14855e-20
35.488 	-0.275598 	0.451428 	1.66611 	-2.14855e-20
35.5581 	-0.275598 	0.451428 	1.66611 	-2.14855e-20
35.6283 	-0.249585 	0.424017 	1.64995 	-5.71792e-21
35.6984 	-0.249585 	0.424017 	1.64995 	-5.71792e-21
35.7685 	-0.249585 	0.424017 	1.64995 	-5.71792e-21
35.8387 	-0.249585 	0.424017 	1.64995 	-5.71792e-21
35.9088 	-0.249585 	0.424017 	1.64995 	-5.71792e-21
35.9789 	-0.249585 	0.424017 	1.64995 	-5.71792e-21
36.0491 	-0.249585 	0.424017 	1.64995 	-5.71792e-21
36.1192 	-0.249585 	0.424017 	1.64995 	-5.71792e-21
36.1893 	-0.249585 	0.424017 	1.64995 	-5.71792e-21
36.2595 	-0.249585 	0.424017 	1.64995 	-5.71792e-21
36.3296 	-0.249585 	0.424017 	1.64995 	-5.71792e-21
36.3997 	-0.249585 	0.424017 	1.64995 	-5.71792e-21
36.4699 	-0.249585 	0.424017 	1.64995 	-5.71792e-21
36.54 	-0.249585 	0.424017 	1.64995 	-5.71792e-21
36.6102 	-0.249585 	0.424017 	1.64995 	-5.71792e-21
36.6803 	-0.249585 	0.424017 	1.64995 	-5.71792e-21
36.7504 	-0.249585 	0.424017 	1.64995 	-5.71792e-21
36.8206 	-0.249585 	0.424017 	1.64995 	-5.71792e-21
36.8907 	-0.249585 	0.424017 	1.64995 	-5.71792e-21
36.9608 	-0.249585 	0.424017 	1.64995 	-5.71792e-21
37.031 	-0.249585 	0.424017 	1.64995 	-5.71792e-21
37.1011 	-0.216136 	0.382074 	1.62868 	0
37.1712 	-0.216136 	0.382074 	1.62868 	0
37.2414 	-0.216136 	0.382074 	1.62868 	0
37.3115 	-0.216136 	0.382074 	1.62868 	0
37.3816 	-0.216136 	0.382074 	1.62868 	0
37.4518 	-0.216136 	0.382074 	1.62868 	0
37.5219 	-0.216136 	0.382074 	1.62868 	0
37.592 	-0.216136 	0.382074 	1.62868 	0
37.6622 	-0.216136 	0.382074 	1.62868 	0
37.7323 	-0.216136 	0.382074 	1.62868 	0
37.8024 	-0.216136 	0.382074 	1.62868 	0
37.8726 	-0.216136 	0.382074 	1.62868 	0
37.9427 	-0.216136 	0.382074 	1.62868 	0
38.0128 	-0.216136 	0.382074 	1.62868 	0
38.083 	-0.216136 	0.382074 	1.62868 	0
38.1531 	-0.216136 	0.382074 	1.62868 	0
38.2232 	-0.216136 	0.382074 	1.62868 	0
38.2934 	-0.189023 	0.335278 	1.61221 	0
38.3635 	-0.189023 	0.335278 	1.61221 	0
38.4336 	-0.189023 	0.335278 	1.61221 	0
38.5038 	-0.189023 	0.335278 	1.61221 	0
38.5739 	-0.189023 	0.335278 	1.61221 	0
38.644 	-0.189023 	0.335278 	1.61221 	0
38.7142 	-0.189023 	0.335278 	1.61221 	0
38.7843 	-0.189023 	0.335278 	1.61221 	0
38.8545 	-0.189023 	0.335278 	1.61221 	0
38.9246 	-0.189023 	0.335278 	1.61221 	0
38.9947 	-0.189023 	0.335278 	1.61221 	0
39.0649 	-0.189023 	0.335278 	1.61221 	0
39.135 	-0.189023 	0.335278 	1.61221 	0
39.2051 	-0.189023 	0.335278 	1.61221 	0
39.2753 	-0.189023 	0.335278 	1.61221 	0
39.3454 	-0.189023 	0.335278 	1.61221 	0
39.4155 	-0.189023 	0.335278 	1.61221 	0
39.4857 	-0.189023 	0.335278 	1.61221 	0
39.5558 	-0.173523 	0.281786 	1.60423 	0
39.6259 	-0.173523 	0.281786 	1.60423 	0
39.6961 	-0.173523 	0.281786 	1.60423 	0
39.7662 	-0.173523 	0.281786 	1.60423 	0
39.8363 	-0.173523 	0.281786 	1.60423 	0
39.9065 	-0.173523 	0.281786 	1.60423 	0
39.9766 	-0.173523 	0.281786 	1.60423 	0
40.0467 	-0.173523 	0.281786 	1.60423 	0
40.1169 	-0.173523 	0.281786 	1.60423 	0
40.187 	-0.173523 	0.281786 	1.60423 	0
40.2571 	-0.173523 	0.281786 	1.60423 	0
40.3273 	-0.173523 	0.281786 	1.60423 	0
40.3974 	-0.173523 	0.281786 	1.60423 	0
40.4675 	-0.173523 	0.281786 	1.60423 	0
40.5377 	-0.173523 	0.281786 	1.60423 	0
40.6078 	-0.173523 	0.281786 	1.60423 	0
40.6779 	-0.173523 	0.281786 	1.60423 	0
40.7481 	-0.170734 	0.228763 	1.60366 	0
40.8182 	-0.170734 	0.228763 	1.60366 	0
40.8883 	-0.170734 	0.228763 	1.60366 	0
40.9585 	-0.170734 	0.228763 	1.60366 	0
41.0286 	-0.170734 	0.228763 	1.60366 	0
41.0988 	-0.170734 	0.228763 	1.60366 	0
41.1689 	-0.170734 	0.228763 	1.60366 	0
41.239 	-0.170734 	0.228763 	1.60366 	0
41.3092 	-0.170734 	0.228763 	1.60366 	0
41.3793 	-0.170734 	0.228763 	1.60366 	0
41.4494 	-0.170734 	0.228763 	1.60366 	0
41.5196 	-0.170734 	0.228763 	1.60366 	0
41.5897 	-0.170734 	0.228763 	1.60366 	0
41.6598 	-0.170734 	0.228763 	1.60366 	0
41.73 	-0.170734 	0.228763 	1.60366 	0
41.8001 	-0.170734 	0.228763 	1.60366 	0
41.8702 	-0.170734 	0.228763 	1.60366 	0
41.9404 	-0.170734 	0.228763 	1.60366 	0
42.0105 	-0.178895 	0.177948 	1.60958 	0
42.0806 	-0.178895 	0.177948 	1.60958 	0
42.1508 	-0.178895 	0.177948 	1.60958 	0
42.2209 	-0.178895 	0.177948 	1.60958 	0
42.291 	-0.178895 	0.177948 	1.60958 	0
42.3612 	-0.178895 	0.177948 	1.60958 	0
42.4313 	-0.178895 	0.177948 	1.60958 	0
42.5014 	-0.178895 	0.177948 	1.60958 	0
42.5716 	-0.178895 	0.177948 	1.60958 	0
42.6417 	-0.178895 	0.177948 	1.60958 	0
42.7118 	-0.178895 	0.177948 	1.60958 	0
42.782 	-0.178895 	0.177948 	1.60958 	0
42.8521 	-0.178895 	0.177948 	1.60958 	0
42.9222 	-0.178895 	0.177948 	1.60958 	0
42.9924 	-0.178895 	0.177948 	1.60958 	0
43.0625 	-0.178895 	0.177948 	1.60958 	0
43.1327 	-0.178895 	0.177948 	1.60958 	0
43.2028 	-0.192891 	0.129318 	1.61873 	0
43.2729 	-0.192891 	0.129318 	1.61873 	0
43.3431 	-0.192891 	0.129318 	1.61873 	0
43.4132 	-0.192891 	0.129318 	1.61873 	0
43.4833 	-0.192891 	0.129318 	1.61873 	0
43.5535 	-0.192891 	0.129318 	1.61873 	0
43.6236 	-0.192891 	0.129318 	1.61873 	0
43.6937 	-0.192891 	0.129318 	1.61873 	0
43.7639 	-0.192891 	0.129318 	1.61873 	0
43.834 	-0.192891 	0.129318 	1.61873 	0
43.9041 	-0.192891 	0.129318 	1.61873 	0
43.9743 	-0.192891 	0.129318 	1.61873 	0
44.0444 	-0.192891 	0.129318 	1.61873 	0
44.1145 	-0.192891 	0.129318 	1.61873 	0
44.1847 	-0.192891 	0.129318 	1.61873 	0
44.2548 	-0.192891 	0.129318 	1.61873 	0
44.3249 	-0.192891 	0.129318 	1.61873 	0
44.3951 	-0.192891 	0.129318 	1.61873 	0
44.4652 	-0.20573 	0.0852817 	1.6257 	0
44.5353 	-0.20573 	0.0852817 	1.6257 	0
44.6055 	-0.20573 	0.0852817 	1.6257 	0