/*--------------------------------*- C++ -*----------------------------------*\
| =========                 |                                                 |
| \\      /  F ield         | OpenFOAM: The Open Source CFD Toolbox           |
|  \\    /   O peration     | Version:  2306                                  |
|   \\  /    A nd           | Website:  www.openfoam.com                      |
|    \\/     M anipulation  |                                                 |
\*---------------------------------------------------------------------------*/
FoamFile
{
    version     2.0;
    format      ascii;
    arch        "LSB;label=32;scalar=64";
    class       volScalarField;
    location    "33";
    object      p;
}
// * * * * * * * * * * * * * * * * * * * * * * * * * * * * * * * * * * * * * //

dimensions      [0 2 -2 0 0 0 0];

internalField   nonuniform List<scalar> 
8800
(
1.3636
1.31555
1.27717
1.24852
1.22788
1.2131
1.20247
1.19492
1.19003
1.18789
1.18908
1.19321
1.19983
1.20912
1.22185
1.23941
1.26384
1.29745
1.33989
1.39701
1.19614
1.20334
1.21178
1.21519
1.21326
1.20772
1.20099
1.19479
1.18998
1.18705
1.18669
1.18912
1.19356
1.19951
1.20638
1.21298
1.21709
1.21657
1.21049
1.20151
1.17287
1.17904
1.18324
1.18659
1.18907
1.18985
1.18871
1.18652
1.18442
1.18342
1.18429
1.1866
1.18937
1.19154
1.19203
1.19047
1.1876
1.18395
1.17941
1.17562
1.16777
1.17047
1.17318
1.17548
1.17711
1.17842
1.17929
1.17944
1.1791
1.17897
1.17961
1.18068
1.18139
1.18126
1.18042
1.17919
1.17741
1.17489
1.17245
1.17092
1.16262
1.16404
1.16584
1.16788
1.16962
1.1709
1.17189
1.1727
1.1733
1.17378
1.1743
1.17464
1.17458
1.17415
1.17339
1.17214
1.1704
1.16849
1.16715
1.16633
1.15768
1.15859
1.15982
1.1614
1.16304
1.16454
1.16577
1.16678
1.16768
1.16847
1.16901
1.16917
1.16899
1.16846
1.1675
1.16622
1.16481
1.1635
1.16266
1.16212
1.15289
1.15356
1.15451
1.15581
1.15721
1.15867
1.16007
1.16133
1.16243
1.1634
1.16404
1.16423
1.16399
1.16335
1.16241
1.16135
1.16026
1.15928
1.15867
1.15827
1.14824
1.14876
1.14954
1.15067
1.15194
1.15331
1.15473
1.15615
1.15747
1.15864
1.15943
1.15967
1.15944
1.15886
1.15809
1.15723
1.15635
1.15559
1.15513
1.15482
1.14368
1.14409
1.14475
1.14576
1.14697
1.14828
1.1497
1.15119
1.1527
1.15409
1.15507
1.15545
1.15534
1.15493
1.15435
1.15366
1.15294
1.15235
1.152
1.15175
1.13914
1.13946
1.14004
1.14098
1.14215
1.14345
1.14488
1.14644
1.14811
1.14975
1.15098
1.15158
1.15169
1.15149
1.15108
1.15057
1.15
1.14954
1.14927
1.14907
1.13454
1.1348
1.13532
1.13623
1.13738
1.13871
1.1402
1.14188
1.14371
1.14561
1.14718
1.1481
1.14848
1.1485
1.14828
1.14792
1.14749
1.14715
1.14694
1.14678
1.12983
1.13005
1.13052
1.13142
1.13261
1.134
1.13562
1.13748
1.13958
1.14184
1.1438
1.14508
1.14575
1.146
1.14596
1.14576
1.14546
1.14521
1.14506
1.14492
1.12495
1.12513
1.12558
1.1265
1.12775
1.12926
1.13102
1.13312
1.13555
1.13826
1.14072
1.14242
1.14344
1.14397
1.14416
1.14412
1.14395
1.14379
1.14368
1.14357
1.11984
1.11997
1.12042
1.12137
1.12272
1.12436
1.12631
1.12867
1.1315
1.13478
1.13784
1.14008
1.14155
1.14243
1.14289
1.14306
1.14303
1.14295
1.1429
1.1428
1.11441
1.11452
1.11496
1.11598
1.11745
1.11928
1.12151
1.12426
1.12759
1.13153
1.13537
1.1383
1.14028
1.14154
1.1423
1.14269
1.14282
1.14285
1.14284
1.14275
1.10861
1.10867
1.10912
1.1102
1.11183
1.11389
1.11645
1.11968
1.12371
1.12854
1.1333
1.13697
1.13958
1.14134
1.14247
1.14313
1.14346
1.14361
1.14364
1.14357
1.10221
1.10227
1.10273
1.10386
1.10565
1.10797
1.11094
1.11474
1.11953
1.1254
1.13132
1.13603
1.13943
1.14181
1.14345
1.1445
1.14511
1.1454
1.14548
1.14541
1.09496
1.095
1.0955
1.09673
1.09875
1.10146
1.10499
1.10958
1.11545
1.12267
1.12998
1.13583
1.14012
1.14322
1.14543
1.14692
1.14786
1.14831
1.14843
1.14836
1.08649
1.08652
1.08708
1.08846
1.09078
1.09396
1.09818
1.10374
1.1109
1.11977
1.1288
1.13609
1.14152
1.14549
1.14839
1.15041
1.15173
1.15236
1.15252
1.15244
1.07624
1.07627
1.07693
1.07857
1.08134
1.0852
1.09039
1.09726
1.10611
1.11704
1.12815
1.13711
1.14381
1.14877
1.15246
1.15507
1.15678
1.15759
1.15779
1.15769
1.06364
1.06367
1.06449
1.06652
1.06996
1.07479
1.08128
1.08987
1.10087
1.11436
1.12796
1.13891
1.14711
1.1532
1.15777
1.16103
1.16314
1.16414
1.16437
1.16425
1.04792
1.04797
1.04902
1.05164
1.05604
1.06224
1.07052
1.08138
1.09513
1.11176
1.12833
1.14159
1.1515
1.15891
1.16445
1.16844
1.17101
1.17219
1.17245
1.17231
1.02799
1.02805
1.02948
1.033
1.03884
1.04697
1.05775
1.07166
1.08894
1.10941
1.12945
1.14532
1.15718
1.16605
1.17272
1.17753
1.18058
1.18194
1.18223
1.18207
1.00207
1.00219
1.00425
1.00921
1.01732
1.02833
1.04265
1.06065
1.08237
1.10742
1.13144
1.15026
1.16427
1.17477
1.1827
1.18845
1.19202
1.19356
1.19386
1.19366
0.967153
0.967408
0.97075
0.978367
0.990255
1.00575
1.02514
1.04852
1.0757
1.10608
1.13454
1.15654
1.17288
1.18517
1.19452
1.20129
1.20537
1.20705
1.20735
1.20711
0.917507
0.918647
0.925331
0.938384
0.95681
0.9792
1.00556
1.03576
1.06938
1.1057
1.13892
1.16429
1.18307
1.19727
1.20812
1.21592
1.22052
1.22232
1.22257
1.22229
0.844526
0.852116
0.867444
0.890459
0.918543
0.950088
0.984969
1.02301
1.06381
1.10665
1.1451
1.17424
1.19587
1.21234
1.22501
1.23409
1.2394
1.2415
1.24182
1.24159
0.766791
0.783743
0.808434
0.841948
0.880094
0.92092
0.964423
1.01054
1.05898
1.10916
1.15395
1.18802
1.21348
1.23297
1.24803
1.25899
1.26537
1.26779
1.26825
1.26821
0.702056
0.722004
0.754603
0.796802
0.843656
0.893176
0.944992
0.999004
1.05491
1.11218
1.16298
1.20155
1.23039
1.25246
1.26939
1.28155
1.28877
1.29182
1.29227
1.29229
0.649428
0.671339
0.709072
0.757397
0.811037
0.867748
0.926856
0.988092
1.05101
1.11498
1.17136
1.21396
1.24561
1.26966
1.288
1.30135
1.30969
1.31282
1.31339
1.31349
0.605994
0.629021
0.670247
0.723331
0.782352
0.844933
0.910253
0.977864
1.04714
1.11728
1.17875
1.22487
1.2589
1.28461
1.30423
1.31849
1.32741
1.33099
1.33174
1.33188
0.568989
0.592676
0.636603
0.693368
0.756799
0.824332
0.895011
0.968246
1.04326
1.11902
1.18509
1.23432
1.27036
1.2974
1.3179
1.33276
1.34212
1.34612
1.34709
1.34724
0.53639
0.560529
0.60654
0.66636
0.733503
0.805311
0.880715
0.958997
1.03922
1.12015
1.19045
1.24247
1.28025
1.30836
1.32951
1.34483
1.35445
1.35876
1.35986
1.36
0.506719
0.53128
0.578992
0.641409
0.711761
0.787307
0.866933
0.949798
1.03483
1.1206
1.19489
1.24952
1.28887
1.3179
1.33947
1.35516
1.36491
1.36937
1.3705
1.37059
0.479069
0.504009
0.553281
0.617889
0.691059
0.769916
0.853329
0.940385
1.02991
1.12028
1.19845
1.25562
1.29649
1.32637
1.34843
1.3642
1.37403
1.37856
1.37977
1.37983
0.452712
0.478078
0.528786
0.595332
0.671034
0.752842
0.839672
0.930572
1.0243
1.11911
1.20111
1.26089
1.30334
1.3341
1.35663
1.3726
1.38244
1.38694
1.38819
1.38829
0.427359
0.453171
0.50493
0.573447
0.65142
0.735884
0.825807
0.920238
1.01792
1.11702
1.2029
1.26541
1.30959
1.34136
1.36442
1.38061
1.39052
1.39495
1.39613
1.39617
0.402646
0.429054
0.481812
0.552057
0.63205
0.718907
0.811637
0.909307
1.01068
1.11396
1.20379
1.26925
1.31535
1.34831
1.37202
1.38851
1.39847
1.40284
1.40388
1.40385
0.37849
0.405354
0.459268
0.531036
0.612846
0.701854
0.797118
0.89775
1.00258
1.1099
1.20377
1.27241
1.3207
1.35502
1.37952
1.39635
1.40632
1.41056
1.41149
1.41137
0.354804
0.382245
0.437157
0.510321
0.593781
0.684714
0.782249
0.885566
0.993589
1.10479
1.20275
1.27482
1.32561
1.36155
1.38694
1.40415
1.41408
1.41811
1.41887
1.41868
0.331528
0.359587
0.415454
0.489913
0.574849
0.667504
0.767064
0.87279
0.983733
1.09859
1.20064
1.2764
1.33006
1.36791
1.39436
1.41191
1.42171
1.42543
1.426
1.42576
0.308665
0.337406
0.394205
0.469841
0.5561
0.650269
0.751621
0.859478
0.973044
1.09129
1.19737
1.27702
1.33395
1.37414
1.40184
1.41968
1.42913
1.43241
1.43278
1.43249
0.28639
0.315764
0.373455
0.450149
0.537583
0.633086
0.73599
0.845713
0.961591
1.08293
1.19286
1.27654
1.33711
1.38019
1.40956
1.42762
1.43638
1.43896
1.43908
1.43877
0.264741
0.294713
0.353235
0.430895
0.519363
0.616021
0.720269
0.831583
0.949469
1.07354
1.18708
1.2748
1.33934
1.38594
1.41769
1.43619
1.44374
1.44507
1.44481
1.44452
0.24366
0.274303
0.333587
0.412123
0.50151
0.599164
0.704552
0.817199
0.93678
1.0632
1.17998
1.27165
1.34035
1.39107
1.42627
1.44611
1.45221
1.45122
1.44994
1.44983
0.223327
0.254553
0.314578
0.393905
0.484087
0.582599
0.688937
0.802678
0.923646
1.05202
1.17159
1.26697
1.33984
1.39502
1.43486
1.45795
1.4639
1.45993
1.45579
1.45472
0.203655
0.23547
0.296195
0.376213
0.467064
0.566282
0.673367
0.787956
0.909995
1.03994
1.16177
1.2605
1.33748
1.39706
1.44231
1.47116
1.4806
1.47686
1.46598
1.45428
0.184722
0.217067
0.278307
0.358858
0.450143
0.549871
0.657419
0.772535
0.895266
1.02628
1.14982
1.25137
1.3326
1.39605
1.44604
1.48185
1.49594
1.48764
1.46934
1.4582
0.166703
0.199332
0.261089
0.342063
0.433603
0.533698
0.641318
0.756753
0.879788
1.01133
1.13592
1.23922
1.32471
1.39098
1.44101
1.47699
1.49457
1.47428
1.4061
1.37442
0.150056
0.181071
0.244926
0.326412
0.41817
0.518276
0.625355
0.74086
0.863812
0.995274
1.12012
1.22379
1.31287
1.38182
1.42324
1.45105
1.45196
1.40205
1.33114
1.28805
0.0996256
0.1641
0.230068
0.311001
0.402643
0.502372
0.609553
0.724641
0.847038
0.977715
1.10192
1.20482
1.29367
1.36943
1.38061
1.38909
1.35324
1.28925
1.21292
1.17038
0.132603
0.149446
0.20821
0.2888
0.379664
0.479091
0.585365
0.699573
0.820661
0.949363
1.07089
1.17117
1.25084
1.32839
1.32599
1.22122
1.12097
1.05054
0.978376
1.01439
0.100879
0.131062
0.191072
0.271068
0.361989
0.461069
0.567432
0.680898
0.800787
0.927475
1.04588
1.14222
1.21392
1.25512
1.21192
1.06958
0.945482
0.856562
0.758848
0.813781
0.076767
0.109376
0.171113
0.251348
0.342321
0.441256
0.547436
0.659975
0.778338
0.902458
1.01692
1.10765
1.16945
1.17798
1.07608
0.906086
0.755942
0.63839
0.509965
0.548829
0.0531829
0.0871528
0.150194
0.23122
0.322359
0.421146
0.526776
0.63826
0.75491
0.876125
0.985863
1.07021
1.11697
1.09341
0.937415
0.741889
0.554559
0.384519
0.194472
0.192397
0.0301501
0.0645198
0.12846
0.210181
0.301535
0.400124
0.505086
0.615406
0.73011
0.848085
0.952547
1.02969
1.05882
0.999924
0.805429
0.591691
0.375406
0.189484
-0.0683893
-0.346512
0.00683033
0.0412058
0.105631
0.187838
0.27942
0.377866
0.482233
0.591374
0.704054
0.818603
0.917603
0.986381
0.997412
0.887629
0.690026
0.472911
0.261826
0.091277
0.0128969
-0.113144
-0.017685
0.0167332
0.0813917
0.163856
0.255527
0.353744
0.457425
0.565225
0.67558
0.786231
0.87935
0.938104
0.923713
0.778355
0.586983
0.386747
0.212945
0.117601
0.094225
0.0766102
-0.0436821
-0.00921854
0.0555926
0.138157
0.229741
0.32757
0.430332
0.536496
0.644116
0.750248
0.837055
0.883209
0.848253
0.67576
0.493631
0.319146
0.185356
0.145848
0.131962
0.130722
-0.0713653
-0.0367987
0.0281905
0.110763
0.20213
0.299359
0.400963
0.505161
0.609615
0.710647
0.790435
0.822628
0.769231
0.579754
0.407146
0.252657
0.169195
0.152729
0.151227
0.151175
-0.10076
-0.0659931
-0.000821392
0.0817039
0.172709
0.269154
0.369348
0.471239
0.572104
0.667522
0.739275
0.76006
0.671999
0.491736
0.32647
0.20075
0.164133
0.161561
0.161074
0.161523
-0.131554
-0.096604
-0.031309
0.0510984
0.141602
0.237052
0.335562
0.434809
0.531633
0.620978
0.684128
0.688281
0.576667
0.409217
0.259957
0.177039
0.167983
0.166731
0.166463
0.16679
-0.163163
-0.128146
-0.0629929
0.0192008
0.109039
0.203263
0.299816
0.396068
0.488428
0.57126
0.626239
0.612585
0.489631
0.335894
0.206346
0.176181
0.16725
0.168724
0.170483
0.171183
-0.195116
-0.160136
-0.0953314
-0.0135629
0.0754131
0.16817
0.262464
0.35538
0.442885
0.518981
0.565266
0.536761
0.404669
0.272287
0.16965
0.139687
0.159513
0.171429
0.175158
0.176203
-0.226617
-0.191879
-0.127514
-0.0465277
0.0413146
0.132329
0.224063
0.31332
0.395613
0.464896
0.50137
0.462214
0.319778
0.224653
0.155352
0.159032
0.158841
0.16139
0.165568
0.168322
-0.25603
-0.222226
-0.158663
-0.0787854
0.00759625
0.0965406
0.185408
0.270732
0.347505
0.40966
0.439432
0.381819
0.231064
0.164735
0.178498
0.1394
0.129731
0.128787
0.130166
0.132248
-0.282006
-0.249173
-0.18769
-0.109173
-0.0246806
0.0618823
0.14756
0.228724
0.299899
0.354304
0.381437
0.297209
0.129031
0.0491702
0.0966809
0.0687112
0.0654288
0.0647178
0.0609407
0.0610463
-0.302551
-0.271559
-0.212429
-0.136258
-0.0541501
0.0295943
0.111865
0.188693
0.254468
0.300408
0.324566
0.217182
0.0180149
-0.211707
-0.240524
-0.161124
-0.137459
-0.130717
-0.115622
-0.103858
-0.315772
-0.287386
-0.231394
-0.158253
-0.0792338
0.00122953
0.0798234
0.152452
0.213124
0.250848
0.27029
0.144232
-0.042522
-0.356078
-0.457478
-0.297439
-0.27302
-0.267335
-0.255255
-0.250638
-0.319244
-0.29464
-0.242839
-0.173533
-0.0981996
-0.0215188
0.0532952
0.121948
0.178078
0.209811
0.218166
0.107498
0.0446756
0.155564
0.187959
-0.0602127
-0.247183
-0.248357
-0.247073
-0.246574
-0.311506
-0.29129
-0.244859
-0.180579
-0.109596
-0.0370115
0.0341565
0.0995138
0.152034
0.181001
0.176271
0.100981
0.109652
0.352236
0.407892
0.0354144
-0.210865
-0.223586
-0.218105
-0.231828
-0.290526
-0.274777
-0.236014
-0.178346
-0.112471
-0.0440012
0.0239688
0.0873915
0.138546
0.165469
0.147719
-0.0132407
-0.364024
-0.93911
-1.47753
-1.79625
-1.58972
-1.21585
-0.86556
-0.78962
-0.25806
-0.247347
-0.216783
-0.167081
-0.106655
-0.0420853
0.0237381
0.0869904
0.141412
0.172222
0.154815
-0.0769584
-0.712219
-1.55351
-2.02261
-2.24574
-2.14974
-1.89242
-1.59364
-1.40839
-0.218728
-0.212431
-0.190702
-0.148827
-0.0937487
-0.0320408
0.0333233
0.0991543
0.161294
0.210147
0.223131
0.112654
-0.173223
-0.475782
-0.719145
-0.695503
-0.472324
-0.21527
0.000517227
0.121312
-0.179053
-0.175589
-0.162469
-0.12808
-0.0767963
-0.016363
0.0505731
0.122797
0.196596
0.27743
0.351564
0.466685
0.625135
0.959587
1.382
1.81577
2.16643
2.38283
2.48769
2.52459
-0.14521
-0.14319
-0.136139
-0.109046
-0.0606519
0.00125716
0.0716155
0.151203
0.241437
0.345067
0.478791
0.632049
0.981486
1.53582
2.18361
2.75165
3.1723
3.42029
3.52775
3.55516
-0.113549
-0.113003
-0.110816
-0.0922039
-0.0471397
0.0164347
0.0912726
0.175784
0.273268
0.385394
0.50981
0.646373
0.866501
1.37873
1.93199
2.4182
2.77311
2.97813
3.0711
3.09832
-0.0859273
-0.0852509
-0.0847782
-0.0741131
-0.0344731
0.0299959
0.107527
0.194316
0.289074
0.396767
0.508177
0.625591
0.757413
1.10198
1.54658
1.91232
2.18871
2.35242
2.42642
2.44714
-0.0663104
-0.0649878
-0.0649626
-0.0588616
-0.0218797
0.0445371
0.123923
0.209898
0.300995
0.402353
0.500755
0.594095
0.681568
0.890605
1.20056
1.46672
1.66395
1.7779
1.82748
1.83989
-0.0552434
-0.0562738
-0.0591775
-0.0524295
-0.00909453
0.0641077
0.145844
0.22881
0.313706
0.403968
0.485476
0.553427
0.614562
0.753787
0.963318
1.13948
1.2678
1.34076
1.37244
1.37989
-0.0213651
-0.0258731
-0.0311197
-0.0205997
0.0264423
0.100822
0.178347
0.253414
0.328035
0.404789
0.472346
0.523273
0.568372
0.657247
0.799938
0.91324
0.99212
1.03588
1.05341
1.05552
0.0781542
0.0728201
0.068198
0.0776281
0.114281
0.169108
0.228028
0.287026
0.346942
0.409134
0.463844
0.501353
0.533537
0.590848
0.682775
0.756982
0.806051
0.83226
0.842701
0.843239
0.223548
0.220589
0.217281
0.219953
0.235224
0.26009
0.2917
0.328237
0.369824
0.416403
0.458542
0.488516
0.513358
0.551753
0.607586
0.654542
0.685601
0.702083
0.708817
0.708578
0.353066
0.351935
0.349117
0.344398
0.340914
0.342634
0.35178
0.368577
0.393519
0.426104
0.458718
0.485406
0.50773
0.53548
0.569779
0.597117
0.615421
0.625355
0.628874
0.628037
0.432532
0.431999
0.429052
0.421241
0.409877
0.400563
0.397299
0.401667
0.414451
0.435646
0.46087
0.484916
0.506368
0.527396
0.548041
0.564201
0.575359
0.581453
0.583497
0.58233
0.468816
0.468332
0.465668
0.458414
0.446931
0.435456
0.427497
0.425295
0.430285
0.443075
0.462105
0.48316
0.503577
0.517933
0.529753
0.540876
0.549466
0.554626
0.556326
0.555024
0.480335
0.479846
0.477722
0.472311
0.463402
0.453504
0.445166
0.440494
0.440754
0.4472
0.459417
0.476405
0.494661
0.503352
0.509334
0.518591
0.527672
0.533922
0.536288
0.534955
0.480933
0.480468
0.478856
0.475141
0.469009
0.461613
0.454462
0.449114
0.446545
0.447605
0.452732
0.46134
0.47108
0.475429
0.481704
0.4938
0.505623
0.513747
0.516688
0.515122
0.478042
0.47763
0.476407
0.473806
0.469695
0.464395
0.458674
0.45346
0.4492
0.44567
0.442145
0.438697
0.435607
0.435371
0.447217
0.464445
0.479068
0.48823
0.491336
0.489914
0.474763
0.474426
0.473504
0.471553
0.468619
0.464841
0.460433
0.455716
0.450539
0.44348
0.431614
0.412956
0.395005
0.39444
0.412912
0.433773
0.449419
0.458298
0.46123
0.460281
0.471766
0.471532
0.470903
0.469415
0.46718
0.464349
0.461122
0.45727
0.452354
0.443796
0.426631
0.397237
0.365464
0.368033
0.392702
0.414725
0.428457
0.435023
0.436673
0.43588
0.468387
0.468292
0.468024
0.467181
0.465493
0.463633
0.461462
0.459209
0.45628
0.448822
0.431821
0.40037
0.368038
0.374112
0.396426
0.413317
0.422356
0.426173
0.427111
0.426558
0.463225
0.463273
0.463356
0.463214
0.462571
0.461882
0.461566
0.461567
0.461829
0.459477
0.449761
0.426897
0.405934
0.412588
0.42293
0.428033
0.430183
0.431467
0.432111
0.431773
0.45469
0.454908
0.455381
0.455928
0.456559
0.457731
0.459815
0.463217
0.46764
0.47248
0.472781
0.466138
0.460019
0.460466
0.457148
0.452243
0.449423
0.44882
0.447479
0.446279
0.441315
0.441651
0.442459
0.443772
0.445834
0.449183
0.454395
0.462064
0.472177
0.48473
0.495694
0.502945
0.510707
0.500159
0.482225
0.469479
0.462694
0.458595
0.456034
0.455334
0.420852
0.421471
0.422932
0.425397
0.42903
0.434748
0.443323
0.455552
0.471151
0.490499
0.507694
0.522686
0.529714
0.509516
0.489752
0.477892
0.469018
0.463084
0.459726
0.459382
0.390316
0.391321
0.393556
0.397356
0.403176
0.411505
0.423352
0.439387
0.459337
0.482671
0.502767
0.512718
0.515347
0.493625
0.481841
0.476878
0.473329
0.466839
0.461456
0.461599
0.346177
0.347523
0.350579
0.356019
0.364267
0.37552
0.389825
0.407568
0.427928
0.449314
0.469596
0.475828
0.459147
0.443223
0.451772
0.465046
0.476591
0.47078
0.465225
0.465276
0.285451
0.287015
0.290885
0.298061
0.308568
0.321679
0.336597
0.351251
0.361544
0.376083
0.399874
0.403573
0.373053
0.366832
0.403661
0.439944
0.455295
0.450199
0.446242
0.445276
0.207661
0.209014
0.213436
0.221901
0.233636
0.246909
0.257987
0.259856
0.253259
0.254144
0.289894
0.300143
0.266905
0.273034
0.327477
0.374419
0.391107
0.379505
0.373579
0.371936
0.117336
0.118275
0.121689
0.129996
0.140404
0.150583
0.153819
0.13931
0.104492
0.11094
0.153996
0.175139
0.1471
0.158481
0.210793
0.252652
0.247779
0.24299
0.238364
0.236608
0.0256775
0.025301
0.0253385
0.0260999
0.0268292
0.0289401
0.0293458
0.0199451
-0.00158564
-0.0057497
0.0195907
0.0448284
0.0490189
0.033694
0.0349931
0.0171239
0.0387045
0.0486677
0.0494782
0.0490654
0.394971
0.592881
0.805902
0.982668
1.12475
1.23794
1.33271
1.41192
1.44403
1.42801
0.739903
0.870121
1.00578
1.12309
1.2223
1.30489
1.37139
1.41797
1.4423
1.45495
0.971628
1.05951
1.15142
1.2334
1.30392
1.36287
1.40951
1.44381
1.46881
1.4865
1.13848
1.20027
1.26514
1.32472
1.37636
1.42009
1.45594
1.4848
1.50802
1.52616
1.26851
1.31297
1.36153
1.40647
1.44645
1.48129
1.51108
1.53608
1.55633
1.5742
1.37513
1.40921
1.4489
1.48535
1.51873
1.54868
1.57488
1.59704
1.61437
1.63193
1.46938
1.49892
1.53375
1.5666
1.59707
1.62473
1.64895
1.66909
1.68391
1.70135
1.55907
1.5889
1.62334
1.6559
1.68586
1.71277
1.73595
1.75458
1.76737
1.78484
1.6551
1.68884
1.72557
1.75956
1.78983
1.81617
1.83824
1.85544
1.86698
1.88479
1.77047
1.80905
1.84745
1.88186
1.91126
1.93603
1.95641
1.97218
1.98357
2.00192
1.91552
1.95513
1.99064
2.0211
2.04674
2.06886
2.08791
2.10347
2.11616
2.13429
2.0902
2.12243
2.14829
2.17062
2.1907
2.20947
2.22713
2.2437
2.25946
2.27766
2.27786
2.29549
2.3111
2.32772
2.34389
2.35846
2.3715
2.38549
2.40259
2.42227
2.45964
2.47054
2.48271
2.49352
2.50278
2.51236
2.52326
2.53487
2.54482
2.56
2.67059
2.67263
2.65749
2.64226
2.6359
2.64158
2.66019
2.69061
2.72276
2.75351
2.97651
2.83946
2.76318
2.72112
2.7037
2.70773
2.7351
2.79125
2.89471
3.10999
1.25989
1.25651
1.25058
1.24077
1.22782
1.21539
1.20506
1.19708
1.19139
1.18805
1.1876
1.19026
1.19531
1.20251
1.21191
1.22357
1.23668
1.24866
1.25611
1.26083
1.17792
1.1838
1.1907
1.19594
1.19877
1.19843
1.19551
1.19156
1.18795
1.18559
1.18535
1.18746
1.19107
1.19537
1.19928
1.20125
1.20011
1.196
1.19009
1.18304
1.17029
1.17263
1.17598
1.17888
1.18109
1.18287
1.18381
1.18352
1.18243
1.18146
1.18153
1.18286
1.18459
1.1858
1.18579
1.18458
1.18274
1.18037
1.1772
1.17423
1.16518
1.16627
1.16813
1.1705
1.17245
1.17383
1.1749
1.17571
1.17612
1.17628
1.17666
1.17733
1.17777
1.17766
1.17707
1.17614
1.1747
1.1726
1.17047
1.16905
1.16013
1.16078
1.16189
1.1636
1.1654
1.167
1.16824
1.16922
1.17007
1.17079
1.17139
1.17177
1.17179
1.17148
1.17084
1.16974
1.16825
1.16663
1.16527
1.16448
1.15527
1.15572
1.1565
1.1578
1.15928
1.1608
1.16224
1.16348
1.16453
1.16548
1.16623
1.16661
1.16659
1.16618
1.16537
1.16427
1.16305
1.16185
1.1609
1.16037
1.15055
1.15089
1.1515
1.15257
1.15386
1.15523
1.15665
1.15805
1.15934
1.16048
1.16139
1.16186
1.16184
1.16138
1.16061
1.1597
1.15873
1.15778
1.15706
1.15668
1.14596
1.14622
1.14671
1.14763
1.1488
1.15009
1.15146
1.15291
1.15437
1.15573
1.15684
1.15743
1.15747
1.15711
1.15651
1.15577
1.15498
1.15423
1.15368
1.15338
1.14141
1.14162
1.14203
1.14284
1.14394
1.14519
1.14655
1.14802
1.14959
1.15116
1.15251
1.1533
1.15351
1.15334
1.15293
1.15237
1.15174
1.15114
1.15072
1.15048
1.13685
1.13701
1.13737
1.13811
1.13917
1.1404
1.14178
1.14331
1.14499
1.14677
1.1484
1.14947
1.14995
1.15002
1.1498
1.14941
1.14894
1.14848
1.14816
1.14798
1.13221
1.13233
1.13264
1.13335
1.1344
1.13566
1.13711
1.13876
1.14062
1.14265
1.14463
1.14607
1.14686
1.14717
1.14715
1.14693
1.1466
1.14626
1.14603
1.14588
1.12742
1.12752
1.12779
1.12848
1.12957
1.1309
1.13245
1.13428
1.1364
1.13877
1.14118
1.14306
1.14419
1.14478
1.14499
1.14495
1.14476
1.14453
1.14437
1.14426
1.12243
1.1225
1.12275
1.12345
1.12459
1.12602
1.12771
1.12974
1.13218
1.135
1.13796
1.14035
1.1419
1.14284
1.14333
1.14351
1.14348
1.14336
1.14326
1.14318
1.11717
1.11722
1.11746
1.11817
1.11938
1.12094
1.12282
1.12512
1.12791
1.13123
1.13484
1.13792
1.14005
1.14143
1.14224
1.14267
1.14282
1.14283
1.1428
1.14275
1.11157
1.11158
1.11181
1.11256
1.11388
1.11562
1.11777
1.12045
1.12378
1.12781
1.13226
1.13612
1.13886
1.1407
1.14189
1.14256
1.14295
1.1431
1.14314
1.14311
1.10551
1.10551
1.10572
1.1065
1.10792
1.10984
1.11228
1.11538
1.1193
1.12416
1.12963
1.13449
1.13804
1.14055
1.14222
1.14329
1.14397
1.14431
1.14443
1.14443
1.09871
1.09868
1.09892
1.09975
1.1013
1.10348
1.10632
1.11
1.11472
1.12063
1.12736
1.13343
1.13793
1.14115
1.14342
1.14501
1.14603
1.1466
1.14682
1.14682
1.09091
1.09086
1.09113
1.09204
1.09378
1.09629
1.09964
1.10406
1.1098
1.11705
1.12536
1.13286
1.1385
1.14262
1.14561
1.14774
1.14918
1.15001
1.15033
1.15034
1.0816
1.08154
1.08186
1.08292
1.08492
1.08788
1.09192
1.09729
1.10432
1.11323
1.12345
1.13274
1.13975
1.14493
1.14874
1.15153
1.15347
1.15458
1.15499
1.15501
1.07023
1.07016
1.07056
1.07184
1.07427
1.07792
1.08291
1.0896
1.09835
1.10937
1.12195
1.13331
1.1419
1.1483
1.15304
1.15654
1.15899
1.16039
1.16089
1.16091
1.05614
1.05605
1.05658
1.05822
1.06127
1.06588
1.0722
1.08063
1.09157
1.10524
1.12067
1.13452
1.14497
1.15276
1.15858
1.16289
1.1659
1.16759
1.16819
1.16821
1.03842
1.0383
1.03905
1.04123
1.0452
1.05118
1.05936
1.07017
1.084
1.10099
1.11985
1.13658
1.14915
1.15852
1.16555
1.17076
1.1744
1.17642
1.1771
1.17712
1.01566
1.01554
1.01665
1.01966
1.02503
1.03306
1.0439
1.05797
1.07558
1.09667
1.11959
1.13961
1.15456
1.16571
1.1741
1.18034
1.18469
1.18703
1.1878
1.18781
0.985547
0.985468
0.987232
0.991665
0.999364
1.01061
1.02539
1.04397
1.06643
1.09251
1.12011
1.1438
1.16136
1.17445
1.18436
1.19178
1.19687
1.19953
1.20037
1.20035
0.943979
0.944085
0.947258
0.954614
0.966589
0.983124
1.00374
1.0284
1.05693
1.08884
1.12165
1.14931
1.16965
1.18484
1.19639
1.2051
1.21093
1.21386
1.21474
1.21469
0.88337
0.884629
0.892313
0.906167
0.925904
0.950801
0.979586
1.01197
1.04766
1.08608
1.12446
1.15624
1.17945
1.19682
1.21006
1.21996
1.22654
1.22974
1.23057
1.23048
0.810993
0.813285
0.827916
0.851767
0.882242
0.916881
0.95458
0.99525
1.03868
1.08438
1.12935
1.16643
1.19366
1.2142
1.22989
1.24151
1.24924
1.25298
1.25403
1.25402
0.736978
0.743798
0.76539
0.799185
0.839719
0.883827
0.930411
0.979381
1.03063
1.08371
1.13546
1.17805
1.20941
1.23316
1.25144
1.26517
1.27415
1.27784
1.27889
1.2791
0.677508
0.686088
0.71236
0.753003
0.801169
0.853193
0.907705
0.96442
1.0231
1.08328
1.14148
1.18914
1.22412
1.25053
1.27071
1.28574
1.29538
1.30001
1.30178
1.30209
0.629197
0.638353
0.668056
0.713556
0.767517
0.825838
0.886965
0.950471
1.01592
1.08268
1.14687
1.19911
1.2372
1.26576
1.28751
1.30374
1.31465
1.31995
1.32199
1.32235
0.588868
0.598231
0.630225
0.679453
0.738029
0.801484
0.868187
0.937583
1.00905
1.08182
1.15146
1.2078
1.24857
1.27894
1.30196
1.31917
1.33074
1.33668
1.33897
1.33936
0.553899
0.563352
0.597049
0.649289
0.711625
0.779413
0.850934
0.925516
1.0024
1.08061
1.15525
1.21527
1.25838
1.29024
1.3142
1.33207
1.34419
1.35058
1.35302
1.35344
0.522642
0.532142
0.567146
0.621907
0.687403
0.758911
0.834677
0.913907
0.995715
1.07895
1.15824
1.22167
1.26689
1.30002
1.32472
1.34307
1.35549
1.36222
1.36475
1.36518
0.49387
0.503437
0.539561
0.596472
0.664677
0.739447
0.818978
0.90241
0.988748
1.07669
1.16041
1.22711
1.27432
1.3086
1.33397
1.35259
1.36519
1.37205
1.37455
1.37502
0.466788
0.476421
0.513557
0.572343
0.642978
0.720636
0.803525
0.890772
0.981304
1.07371
1.16172
1.23165
1.28086
1.31631
1.3423
1.36123
1.37393
1.38086
1.38339
1.38371
0.440878
0.450632
0.488713
0.549065
0.621951
0.702194
0.788109
0.878825
0.973245
1.06989
1.16212
1.23536
1.28667
1.32338
1.35006
1.36933
1.38217
1.38907
1.39158
1.39187
0.415749
0.425702
0.464592
0.526488
0.601366
0.683932
0.772581
0.86646
0.964487
1.06517
1.16158
1.23826
1.29186
1.33
1.3575
1.37719
1.39019
1.39708
1.39948
1.39977
0.391203
0.401392
0.44105
0.504464
0.581096
0.66574
0.756859
0.853619
0.954975
1.0595
1.16007
1.24037
1.29651
1.33627
1.36473
1.38494
1.39813
1.40498
1.40725
1.40748
0.367185
0.377606
0.418099
0.482839
0.561068
0.64759
0.740921
0.840283
0.9447
1.05285
1.15754
1.24164
1.30059
1.34223
1.37184
1.39263
1.406
1.41273
1.41484
1.41499
0.343609
0.354343
0.395583
0.461579
0.541263
0.629466
0.724773
0.826473
0.933676
1.04521
1.15393
1.24197
1.30405
1.34791
1.37885
1.40029
1.41379
1.42035
1.42223
1.42227
0.320513
0.331544
0.373557
0.440696
0.521699
0.6114
0.708464
0.812237
0.92194
1.03659
1.14916
1.24127
1.30682
1.35327
1.38583
1.40797
1.42148
1.42771
1.42929
1.42924
0.297877
0.309238
0.352047
0.420233
0.50242
0.593443
0.69205
0.797648
0.909556
1.027
1.14322
1.23942
1.30873
1.35825
1.39284
1.4158
1.4291
1.43474
1.43594
1.43579
0.275904
0.287513
0.33109
0.40024
0.483487
0.575677
0.675609
0.782787
0.896611
1.01653
1.1361
1.23632
1.3096
1.36269
1.39995
1.42405
1.43688
1.44145
1.44206
1.44182
0.25447
0.266428
0.310727
0.380751
0.464942
0.55815
0.659239
0.767746
0.883205
1.00528
1.12781
1.23187
1.30923
1.36633
1.40707
1.43311
1.44548
1.44821
1.44765
1.44725
0.233739
0.24602
0.290993
0.361829
0.446872
0.540953
0.643027
0.752651
0.869457
0.993315
1.11841
1.22598
1.30741
1.36879
1.41385
1.44325
1.45615
1.45657
1.45335
1.45193
0.213671
0.226249
0.271948
0.343532
0.429321
0.524159
0.627062
0.737588
0.855483
0.98079
1.108
1.21862
1.30396
1.36959
1.41945
1.45389
1.46995
1.47001
1.46286
1.45254
0.194341
0.20715
0.253507
0.325703
0.412074
0.507477
0.610995
0.722136
0.840809
0.967167
1.09601
1.20912
1.2983
1.36811
1.42265
1.46344
1.48601
1.48928
1.47989
1.47264
0.175813
0.188747
0.235664
0.308399
0.395154
0.49092
0.594858
0.706284
0.825409
0.952347
1.08228
1.19715
1.28978
1.36364
1.42099
1.46621
1.49223
1.50045
1.46436
1.41528
0.158362
0.171718
0.218455
0.291713
0.378507
0.474394
0.57863
0.690158
0.809354
0.936401
1.06678
1.18257
1.27746
1.35586
1.41258
1.4512
1.47811
1.46722
1.40999
1.34596
0.140188
0.156161
0.202215
0.276194
0.362378
0.458276
0.562038
0.673817
0.792771
0.919492
1.04951
1.16529
1.26009
1.34591
1.39614
1.44414
1.42141
1.38171
1.31284
1.24407
0.152848
0.173165
0.222546
0.300762
0.39189
0.491617
0.600715
0.715526
0.837526
0.967636
1.09125
1.19366
1.28055
1.37019
1.41356
1.34273
1.29887
1.23768
1.16549
1.11733
0.133017
0.146232
0.183072
0.251686
0.337445
0.432809
0.536686
0.647866
0.765948
0.891296
1.01922
1.13306
1.2237
1.30564
1.37483
1.37141
1.25932
1.17776
1.11585
1.03384
0.111581
0.126
0.167818
0.237784
0.323871
0.418858
0.521531
0.631727
0.748758
0.872562
0.998514
1.11006
1.19756
1.26605
1.29415
1.22302
1.08592
0.99185
0.917357
0.829716
0.089926
0.102485
0.148402
0.219647
0.305858
0.40103
0.503637
0.613471
0.729531
0.851723
0.974685
1.08163
1.16209
1.21384
1.19278
1.06586
0.916211
0.800368
0.70341
0.569309
0.0662847
0.0790553
0.127052
0.199464
0.285969
0.381149
0.483613
0.592806
0.707671
0.827862
0.947294
1.04884
1.12134
1.15252
1.09445
0.913653
0.735063
0.58355
0.442546
0.25274
0.0433849
0.0558807
0.105084
0.178619
0.265626
0.360763
0.462838
0.571134
0.684557
0.802376
0.91787
1.01346
1.07717
1.07882
0.969238
0.76868
0.557759
0.360358
0.17988
-0.217856
0.0203949
0.0325898
0.0823342
0.156668
0.244099
0.339262
0.440939
0.548322
0.66019
0.775407
0.886643
0.975603
1.02843
0.996524
0.845021
0.639126
0.417281
0.21032
0.0339702
-0.289185
-0.00349023
0.00855726
0.0585554
0.133377
0.221114
0.31631
0.417624
0.524115
0.634374
0.746817
0.853567
0.935349
0.974349
0.923586
0.732276
0.532659
0.325242
0.151817
0.081495
0.0445451
-0.0287697
-0.0168573
0.0333667
0.108455
0.196291
0.291356
0.392149
0.497519
0.605837
0.715018
0.816661
0.89049
0.914485
0.831057
0.630887
0.442855
0.268898
0.157368
0.121583
0.111521
-0.0556047
-0.0437301
0.00662595
0.0818928
0.169697
0.26446
0.364519
0.468505
0.574508
0.679913
0.775751
0.841408
0.842583
0.724646
0.538206
0.364474
0.218992
0.159792
0.147547
0.142674
-0.0841075
-0.0724089
-0.0217119
0.0536891
0.141357
0.235645
0.334756
0.437061
0.540372
0.641544
0.730848
0.788144
0.763257
0.624288
0.450308
0.288502
0.185191
0.153374
0.156667
0.156376
-0.114183
-0.102568
-0.0516085
0.0239053
0.111338
0.204987
0.302909
0.403243
0.503471
0.599931
0.682259
0.728757
0.688142
0.52948
0.370023
0.225995
0.17977
0.168715
0.16477
0.164322
-0.145483
-0.133817