/*--------------------------------*- C++ -*----------------------------------*\
| =========                 |                                                 |
| \\      /  F ield         | OpenFOAM: The Open Source CFD Toolbox           |
|  \\    /   O peration     | Version:  2306                                  |
|   \\  /    A nd           | Website:  www.openfoam.com                      |
|    \\/     M anipulation  |                                                 |
\*---------------------------------------------------------------------------*/
FoamFile
{
    version     2.0;
    format      ascii;
    arch        "LSB;label=32;scalar=64";
    class       surfaceScalarField;
    location    "33";
    object      phi;
}
// * * * * * * * * * * * * * * * * * * * * * * * * * * * * * * * * * * * * * //

dimensions      [0 3 -1 0 0 0 0];

oriented        oriented;

internalField   nonuniform List<scalar> 
17370
(
-0.0910993
0.0935438
0.286566
-0.0749516
0.0569504
0.364777
-0.0409326
0.0299476
0.427153
-0.0211902
0.015587
0.504855
-0.0113328
0.00862912
0.602106
-0.00649317
0.0050409
0.72051
-0.00382833
0.00296719
0.863768
-0.00221347
0.00165069
1.03601
-0.00113272
0.00072092
1.24291
-0.00031555
-7.51188e-05
1.49158
0.00045764
-0.000862537
1.4916
0.0012662
-0.00177339
1.2432
0.00232633
-0.00307001
1.03638
0.00392352
-0.00512887
0.864112
0.00657421
-0.00870187
0.721185
0.011398
-0.0156439
0.60346
0.0212396
-0.0299884
0.508188
0.0409654
-0.0569754
0.432178
0.0749709
-0.093555
0.36536
0.0911104
0.1979
-0.127343
0.0881389
0.0392045
-0.364733
0.353783
-0.0726351
0.0835856
-0.446564
0.454364
-0.0817204
0.0739202
-0.520967
0.529522
-0.0658103
0.0572547
-0.612844
0.621015
-0.0495006
0.0413301
-0.726996
0.733786
-0.0343986
0.0276078
-0.867514
0.872436
-0.0222697
0.0173474
-1.03855
1.04188
-0.0136476
0.0103192
-1.24471
1.2471
-0.00778316
0.00538769
-1.49283
1.49484
-0.00343164
0.00142742
-1.49268
1.49449
0.000382946
-0.00219243
-1.2441
1.24602
0.00416542
-0.00608242
-1.0376
1.04009
0.00843181
-0.0109255
-0.866162
0.869822
0.0142083
-0.0178684
-0.724485
0.729785
0.0227487
-0.0280486
-0.608892
0.615786
0.034797
-0.0416905
-0.514991
0.52271
0.0498208
-0.0575392
-0.439772
0.447844
0.0660534
-0.0741259
-0.375164
0.377003
0.081881
-0.0837202
-0.256928
0.22344
0.0727279
-0.0392402
-0.0686418
0.0589099
0.00973192
-0.0520901
0.0587938
-0.374532
0.367828
-0.0579113
0.0540873
-0.453821
0.457645
-0.0487295
0.0443901
-0.527732
0.532071
-0.0401656
0.0363833
-0.62109
0.624873
-0.0321632
0.0281024
-0.734866
0.738927
-0.0236502
0.0196801
-0.874038
0.878008
-0.0155692
0.0120735
-1.04338
1.04688
-0.00852728
0.00548093
-1.24864
1.25169
-0.00226639
-0.000719657
-1.49693
1.49991
0.00368615
-0.00684942
-1.49742
1.50059
0.0098261
-0.0132876
-1.2501
1.25356
0.0167032
-0.0207256
-1.04574
1.04976
0.024618
-0.0289888
-0.877336
0.881707
0.0329771
-0.0371189
-0.739334
0.743476
0.0408327
-0.0449877
-0.626364
0.630519
0.04927
-0.0545728
-0.534955
0.540258
0.0583384
-0.0591478
-0.45794
0.458749
0.0523562
-0.0320074
-0.336429
0.31608
0.00977683
-0.0685243
0.0587475
-0.053148
0.0490961
0.00405187
-0.0331857
0.043687
-0.358347
0.347846
-0.0474102
0.0468274
-0.459491
0.460074
-0.0438533
0.0405851
-0.536001
0.539269
-0.0368752
0.0335411
-0.628416
0.63175
-0.0299817
0.0268442
-0.742231
0.745368
-0.0235189
0.020382
-0.881548
0.884685
-0.0168213
0.0134719
-1.05036
1.05371
-0.00976593
0.00635011
-1.25498
1.25839
-0.00254699
-0.00108402
-1.50328
1.50691
0.0046889
-0.00841479
-1.50412
1.50784
0.011728
-0.0153048
-1.25717
1.26075
0.0185297
-0.0219542
-1.05353
1.05695
0.024975
-0.0281825
-0.885325
0.888532
0.0312168
-0.0346656
-0.746981
0.75043
0.0379019
-0.0415106
-0.634544
0.638153
0.0446936
-0.0475737
-0.544495
0.547375
0.0480597
-0.0442017
-0.456936
0.453077
0.0335413
-0.0162218
-0.296743
0.279423
0.00410581
-0.0529389
0.0488331
-0.045971
0.0434438
0.00252718
-0.0229413
0.0333175
-0.337193
0.326817
-0.0391085
0.040101
-0.459774
0.458781
-0.0388902
0.0365944
-0.541928
0.544224
-0.0339562
0.0313991
-0.634728
0.637285
-0.0284065
0.0255733
-0.748422
0.751255
-0.0223795
0.0194249
-0.887684
0.890638
-0.0161465
0.0130677
-1.05686
1.05994
-0.00955533
0.00618243
-1.26178
1.26516
-0.0022926
-0.00149426
-1.51066
1.51445
0.00524761
-0.00903317
-1.51165
1.51544
0.0122683
-0.0156033
-1.26422
1.26755
0.0185111
-0.0216031
-1.06012
1.06321
0.0243989
-0.0274334
-0.891683
0.894717
0.0301288
-0.0329741
-0.753635
0.756481
0.0353992
-0.0379007
-0.641177
0.643679
0.0400823
-0.0411477
-0.549214
0.550279
0.0400062
-0.0340008
-0.447917
0.441911
0.0233937
-0.0102353
-0.264292
0.251134
0.00259328
-0.0456502
0.043057
-0.0413429
0.0395557
0.00178724
-0.0168665
0.0261496
-0.316938
0.307655
-0.0327699
0.0349157
-0.457181
0.455035
-0.0345036
0.032831
-0.546205
0.547877
-0.030639
0.0285457
-0.639556
0.641649
-0.0261451
0.0238019
-0.753853
0.756196
-0.0210271
0.0183224
-0.893488
0.896192
-0.015185
0.0121981
-1.06294
1.06593
-0.00878676
0.0055228
-1.26844
1.2717
-0.0017358
-0.00197085
-1.51819
1.5219
0.00563325
-0.00928849
-1.51918
1.52283
0.0123762
-0.0155579
-1.27082
1.274
0.0183203
-0.0212111
-1.06624
1.06913
0.0237063
-0.0262732
-0.897523
0.90009
0.0284398
-0.0306542
-0.758947
0.761161
0.0325808
-0.0345961
-0.645897
0.647912
0.0361035
-0.0363173
-0.550866
0.55108
0.0339453
-0.0270162
-0.435354
0.428425
0.0174262
-0.00735755
-0.239667
0.229598
0.00186762
-0.0408858
0.0390182
-0.0380149
0.0366725
0.00134232
-0.0128746
0.0208554
-0.299022
0.291042
-0.0276302
0.0305692
-0.452453
0.449514
-0.0307923
0.029685
-0.549282
0.550389
-0.0277025
0.0258002
-0.643659
0.645561
-0.0236334
0.0215525
-0.758405
0.760486
-0.0191261
0.0167315
-0.898719
0.901113
-0.0138843
0.0110913
-1.06878
1.07158
-0.00782956
0.00467987
-1.27488
1.27803
-0.00102408
-0.00253423
-1.52551
1.52907
0.0060394
-0.00953554
-1.52642
1.52992
0.0124685
-0.015445
-1.27711
1.28009
0.017954
-0.020484
-1.07185
1.07438
0.0226065
-0.0247659
-0.9024
0.904559
0.0266222
-0.0285542
-0.763203
0.765135
0.0302469
-0.032015
-0.649798
0.651566
0.0328824
-0.0323837
-0.550947
0.550448
0.0291245
-0.0219313
-0.421308
0.414114
0.0135601
-0.00564795
-0.22071
0.212797
0.00144009
-0.0373922
0.0359521
-0.0354983
0.0344663
0.00103206
-0.0100379
0.0167757
-0.2837
0.276963
-0.023281
0.0266766
-0.446315
0.442919
-0.027485
0.0268184
-0.551248
0.551915
-0.0250903
0.0233465
-0.647404
0.649148
-0.0213438
0.01941
-0.762521
0.764455
-0.0171425
0.0149101
-0.903396
0.905629
-0.0122767
0.00968985
-1.07421
1.07679
-0.00664551
0.00366906
-1.28106
1.28404
-0.000184026
-0.00321157
-1.53253
1.53592
0.00654358
-0.00983052
-1.53331
1.5366
0.0125411
-0.0152318
-1.28295
1.28564
0.0174651
-0.0197016
-1.07677
1.079
0.0215875
-0.0235124
-0.90658
0.908505
0.0251653
-0.0268806
-0.766931
0.768646
0.0283688
-0.0298086
-0.653206
0.654646
0.0301756
-0.02898
-0.54962
0.548425
0.0251488
-0.0180983
-0.406966
0.399916
0.0108741
-0.00449574
-0.205722
0.199344
0.00115096
-0.0346748
0.0335238
-0.0335592
0.0327593
0.000799937
-0.00791467
0.0135547
-0.270797
0.265157
-0.0195554
0.0231378
-0.439407
0.435825
-0.0244199
0.0240021
-0.552463
0.552881
-0.0225504
0.020927
-0.650855
0.652478
-0.0190387
0.0172172
-0.766362
0.768184
-0.0150797
0.0129734
-0.907769
0.909876
-0.0104883
0.00805619
-1.07924
1.08167
-0.00520613
0.00241959
-1.28688
1.28966
0.000846253
-0.00403732
-1.5392
1.54239
0.00714754
-0.0101749
-1.53976
1.54279
0.0126344
-0.0150474
-1.28822
1.29063
0.0170406
-0.0190288
-1.08114
1.08313
0.0207006
-0.0224023
-0.910307
0.912009
0.0238674
-0.0254004
-0.770229
0.771762
0.0267123
-0.0278025
-0.6559
0.65699
0.0278307
-0.0260266
-0.546937
0.545133
0.0218676
-0.0151734
-0.393043
0.386348
0.00893328
-0.00367521
-0.193579
0.188321
0.000944499
-0.0324917
0.0315472
-0.0320562
0.0314368
0.000619457
-0.00625579
0.0109422
-0.260014
0.255328
-0.0163199
0.0198898
-0.432234
0.428664
-0.0215006
0.0213241
-0.553194
0.55337
-0.0201271
0.018589
-0.65409
0.655628
-0.0167877
0.015045
-0.769994
0.771737
-0.0129994
0.0109853
-0.911884
0.913898
-0.00860978
0.00629103
-1.08398
1.0863
-0.00358354
0.00095643
-1.29233
1.29495
0.00209607
-0.00504731
-1.54544
1.54839
0.00790054
-0.0106576
-1.54569
1.54844
0.0128861
-0.0150613
-1.29296
1.29513
0.016841
-0.0186012
-1.08503
1.08679
0.0200695
-0.0215609
-0.913598
0.91509
0.0228524
-0.0242132
-0.773167
0.774528
0.0253792
-0.0260886
-0.657886
0.658595
0.0257624
-0.0234655
-0.543107
0.54081
0.0191553
-0.0129134
-0.379893
0.373651
0.00749333
-0.00307551
-0.183525
0.179107
0.000794753
-0.0306917
0.0298969
-0.030898
0.0304268
0.000471235
-0.0048946
0.00874032
-0.251081
0.247235
-0.0134327
0.0168264
-0.425176
0.421782
-0.0186209
0.0186605
-0.553458
0.553418
-0.0177029
0.0162529
-0.657171
0.658621
-0.0145276
0.0128425
-0.773473
0.775158
-0.0108555
0.00890166
-0.915818
0.917772
-0.00660996
0.00438625
-1.08849
1.09072
-0.00180331
-0.00068334
-1.29746
1.29994
0.00355041
-0.00629305
-1.5512
1.55394
0.00891242
-0.0114123
-1.55107
1.55357
0.0134044
-0.0153208
-1.29723
1.29915
0.0168692
-0.0183929
-1.08848
1.09
0.0196611
-0.0209591
-0.916483
0.917781
0.0220933
-0.0232794
-0.775738
0.776924
0.0242549
-0.0245927
-0.659096
0.659434
0.0239194
-0.0212394
-0.538354
0.535674
0.0169083
-0.0111468
-0.367673
0.361912
0.00640396
-0.00262977
-0.175048
0.171274
0.00068543
-0.0291718
0.0284863
-0.0300259
0.0296828
0.000343063
-0.00372356
0.00680988
-0.243787
0.240701
-0.0107861
0.0138747
-0.418548
0.415459
-0.0157032
0.0158987
-0.553332
0.553136
-0.0150505
0.0137072
-0.660079
0.661422
-0.0120272
0.0103782
-0.776842
0.778491
-0.00844022
0.00654767
-0.919608
0.921501
-0.00434315
0.00221741
-1.0928
1.09492
0.000232834
-0.00258701
-1.3023
1.30466
0.00527829
-0.00781939
-1.55656
1.5591
0.0102085
-0.0124435
-1.55594
1.55818
0.0141862
-0.01583
-1.30098
1.30262
0.0171447
-0.0184198
-1.09145
1.09273
0.0194739
-0.0205443
-0.918966
0.920037
0.0214835
-0.0224689
-0.777948
0.778933
0.0231887
-0.0232709
-0.659637
0.659719
0.0222433
-0.0192886
-0.532895
0.52994
0.0150319
-0.00974486
-0.356423
0.351135
0.00556507
-0.00229355
-0.167788
0.164517
0.000604689
-0.0278574
0.0272527
-0.0294033
0.0291777
0.000225646
-0.00266308
0.00504177
-0.237985
0.235606
-0.00828421
0.0109748
-0.412585
0.409894
-0.0127255
0.0130167
-0.552938
0.552647
-0.0122532
0.0110072
-0.662798
0.664044
-0.00937463
0.00775415
-0.780135
0.781756
-0.00584596
0.00398501
-0.923265
0.925126
-0.00182896
-0.000236072
-1.09691
1.09897
0.00260585
-0.00484647
-1.30688
1.30912
0.00736396
-0.00969605
-1.56149
1.56383
0.0118422
-0.0138038
-1.56027
1.56224
0.0152872
-0.0166447
-1.30418
1.30554
0.0177026
-0.0187162
-1.0939
1.09492
0.0195466
-0.020381
-0.921001
0.921836
0.0211039
-0.02186
-0.779773
0.780529
0.0223231
-0.0221239
-0.659642
0.659443
0.0207714
-0.0176036
-0.526923
0.523755
0.013468
-0.00862497
-0.34611
0.341267
0.00491513
-0.00204149
-0.16148
0.158606
0.000547366
-0.0266936
0.0261462
-0.0290127
0.0289004
0.000112274
-0.00164707
0.00333381
-0.233592
0.231905
-0.0058097
0.00801287
-0.407471
0.405267
-0.00957922
0.00991308
-0.552395
0.552062
-0.00924686
0.00810511
-0.665331
0.666473
-0.00652284
0.00490685
-0.783365
0.784981
-0.00298047
0.00110397
-0.92686
0.928736
0.00105675
-0.0030974
-1.10091
1.10295
0.00539855
-0.00753584
-1.31123
1.31337
0.00989138
-0.0120179
-1.56601
1.56814
0.0139162
-0.0155831
-1.56406
1.56572
0.0168
-0.0178714
-1.30683
1.3079
0.018679
-0.0194237
-1.09585
1.09659
0.0200185
-0.0206016
-0.922551
0.923134
0.0210813
-0.0215624
-0.78111
0.781591
0.0216725
-0.0211806
-0.659024
0.658532
0.0194913
-0.0161506
-0.520554
0.517213
0.0121647
-0.00773157
-0.33668
0.332247
0.0044169
-0.00185859
-0.155932
0.153374
0.000509841
-0.0256384
0.0251286
-0.0288506
0.0288516
-9.92256e-07
-0.000650494
0.00165805
-0.230572
0.229564
-0.00334969
0.00499106
-0.403388
0.401747
-0.00624167
0.00650004
-0.551856
0.551598
-0.0058436
0.00473642
-0.667699
0.668806
-0.00315536
0.00152432
-0.786571
0.788202
0.000411866
-0.00227602
-0.930454
0.932318
0.00440014
-0.00639999
-1.10484
1.10684
0.0086387
-0.0106994
-1.31538
1.31744
0.0129318
-0.0148861
-1.57012
1.57207
0.0165578
-0.0179336
-1.56724
1.56862
0.0188467
-0.0195788
-1.30886
1.3096
0.0200582
-0.0204371
-1.09722
1.0976
0.0206945
-0.0209382
-0.923588
0.923832
0.0211721
-0.021389
-0.781892
0.782109
0.0211962
-0.0203457
-0.657733
0.656883
0.0183821
-0.0149389
-0.5139
0.510457
0.0111193
-0.007044
-0.328067
0.323992
0.00404845
-0.0017312
-0.150987
0.14867
0.00048671
-0.0246553
0.0241686
-0.0289154
0.0290481
-0.000132711
0.000388011
-8.50337e-05
-0.228907
0.228604
-0.000796568
0.00182562
-0.400472
0.399443
-0.00267761
0.00279386
-0.55155
0.551434
-0.00210847
0.000991294
-0.670048
0.671165
0.000608462
-0.00226912
-0.789776
0.791437
0.0042364
-0.00612892
-0.934
0.935893
0.00828306
-0.0102982
-1.10869
1.11071
0.0125294
-0.0145418
-1.31936
1.32138
0.0166546
-0.0184303
-1.57388
1.57566
0.0198507
-0.0209265
-1.56984
1.57092
0.0215375
-0.0219066
-1.31021
1.31058
0.0220668
-0.0220908
-1.09786
1.09788
0.0220317
-0.0219393
-0.923951
0.923858
0.02184
-0.0216906
-0.782027
0.781878
0.021211
-0.019951
-0.655726
0.654466
0.0176608
-0.014066
-0.507066
0.503471
0.0103584
-0.00656056
-0.320148
0.31635
0.00380554
-0.00165788
-0.146498
0.14435
0.000478403
-0.0237143
0.0232359
-0.0292522
0.0295167
-0.0002645
0.00143647
-0.00179853
-0.228652
0.229014
0.00178484
-0.0014345
-0.398818
0.398468
0.00106008
-0.00113366
-0.551613
0.551687
0.00184966
-0.00298537
-0.67244
0.673576
0.00463177
-0.00637144
-0.793029
0.794769
0.00845782
-0.0104656
-0.937626
0.939634
0.0127408
-0.0148482
-1.1126
1.11471
0.0171427
-0.0191593
-1.32327
1.32529
0.0211995
-0.0228151
-1.57727
1.57888
0.0240007
-0.0247654
-1.57182
1.57258
0.025066
-0.0250706
-1.31085
1.31085
0.0248818
-0.0245434
-1.09776
1.09743
0.024152
-0.0236855
-0.923562
0.923096
0.0232517
-0.0227124
-0.781392
0.780853
0.0218316
-0.0200269
-0.652942
0.651137
0.0173845
-0.0136297
-0.499963
0.496208
0.0099883
-0.00636375
-0.312762
0.309137
0.00373432
-0.00165013
-0.142314
0.14023
0.000482433
-0.0227913
0.0223089
-0.0298563
0.0302645
-0.00040813
0.00246985
-0.00351495
-0.229707
0.230753
0.0043302
-0.00475199
-0.398553
0.398975
0.00502082
-0.00542725
-0.552189
0.552595
0.0062782
-0.00753479
-0.674923
0.67618
0.00933979
-0.011254
-0.796447
0.798361
0.0135429
-0.0157261
-0.941491
0.943674
0.0181667
-0.020389
-1.11669
1.11891
0.0227587
-0.0247918
-1.32718
1.32921
0.0267768
-0.028245
-1.58035
1.58182
0.0291777
-0.0295806
-1.57314
1.57354
0.0295255
-0.0291112
-1.31071
1.31029
0.0285342
-0.0277759
-1.09688
1.09612
0.0270261
-0.0261808
-0.922366
0.92152
0.0254156
-0.0244495
-0.779905
0.778939
0.0230794
-0.0207953
-0.649187
0.646903
0.0178385
-0.013908
-0.492588
0.488658
0.0102328
-0.00660292
-0.30567
0.30204
0.00392615
-0.00175239
-0.138198
0.136024
0.00051397
-0.0218529
0.0213389
-0.0307576
0.0313258
-0.000568181
0.00354407
-0.00523773
-0.232152
0.233845
0.00688143
-0.00806626
-0.399779
0.400964
0.00906622
-0.00996934
-0.553588
0.554491
0.0111947
-0.0127376
-0.677743
0.679286
0.0148419
-0.0170222
-0.800217
0.802398
0.0195842
-0.0219964
-0.94571
0.948122
0.0246637
-0.0270618
-1.12101
1.12341
0.0295765
-0.0316745
-1.33112
1.33322
0.0336235
-0.0349277
-1.5831
1.58441
0.0355916
-0.0356143
-1.5737
1.57372
0.0351795
-0.0343351
-1.30968
1.30883
0.0333425
-0.0321198
-1.0951
1.09388
0.0309585
-0.0296937
-0.92036
0.919095
0.0285577
-0.027098
-0.777526
0.776067
0.0253245
-0.0226025
-0.644555
0.641833
0.0193039
-0.0150889
-0.484864
0.480649
0.0112077
-0.0073406
-0.298493
0.294626
0.00441547
-0.00198279
-0.133834
0.131401
0.000580917
-0.0208389
0.020258
-0.0319775
0.0327345
-0.000757066
0.00477091
-0.00717288
-0.235914
0.238316
0.00967351
-0.0116278
-0.402562
0.404517
0.0133871
-0.0148475
-0.556077
0.557538
0.0165481
-0.0184767
-0.681214
0.683143
0.0209937
-0.0235405
-0.804524
0.807071
0.0264936
-0.029256
-0.950404
0.953167
0.0322957
-0.0350043
-1.12572
1.12843
0.0377933
-0.040048
-1.33522
1.33748
0.0420263
-0.0432054
-1.58553
1.58671
0.0436001
-0.0432413
-1.5735
1.57314
0.0423786
-0.0410503
-1.30771
1.30638
0.0396122
-0.0379088
-1.09235
1.09065
0.0363208
-0.0346126
-0.917449
0.915741
0.0330852
-0.0311196
-0.77418
0.772214
0.0288794
-0.0256126
-0.639053
0.635786
0.0218389
-0.0171546
-0.476533
0.471848
0.0128614
-0.00851664
-0.290759
0.286415
0.00515684
-0.00232073
-0.128894
0.126058
0.000678497
-0.0196801
0.0190016
-0.0335728
0.0345802
-0.0010074
0.00633381
-0.00958959
-0.241106
0.244362
0.0130941
-0.0159257
-0.407007
0.409839
0.0185132
-0.0205779
-0.559791
0.561856
0.0228056
-0.0251809
-0.685514
0.68789
0.0282123
-0.0312537
-0.809581
0.812622
0.0347723
-0.0380484
-0.955852
0.959128
0.0416211
-0.044753
-1.13109
1.13422
0.0479
-0.0503488
-1.33965
1.34209
0.0523707
-0.0534123
-1.5877
1.58874
0.0535033
-0.0526875
-1.57249
1.57168
0.0513603
-0.0494765
-1.30472
1.30284
0.047519
-0.0452722
-1.08854
1.0863
0.0432129
-0.0410063
-0.913556
0.91135
0.0390087
-0.0364387
-0.769807
0.767237
0.0336287
-0.0297
-0.632451
0.628522
0.0253268
-0.0199956
-0.467239
0.461908
0.0150816
-0.0100337
-0.282002
0.276955
0.00608431
-0.00273604
-0.123114
0.119765
0.000798303
-0.0183222
0.0175239
-0.0356639
0.0370277
-0.00136385
0.00848324
-0.0128422
-0.248016
0.252375
0.017566
-0.0214344
-0.413368
0.417236
0.0249857
-0.0278257
-0.56494
0.56778
0.0307742
-0.0337813
-0.690822
0.693829
0.0375366
-0.0412531
-0.81566
0.819376
0.0454945
-0.0493867
-0.962351
0.966244
0.0535502
-0.0571118
-1.1373
1.14086
0.0605777
-0.0631619
-1.34442
1.347
0.0651321
-0.0659036
-1.58952
1.5903
0.065549
-0.064127
-1.5705
1.56908
0.0621908
-0.0596328
-1.30056
1.29801
0.0570833
-0.0541882
-1.08354
1.08064
0.051551
-0.0487431
-0.908519
0.905711
0.0461514
-0.0429501
-0.764202
0.761
0.0394956
-0.0348228
-0.624512
0.619839
0.0297268
-0.023525
-0.456639
0.450437
0.0177508
-0.011783
-0.271794
0.265826
0.00712077
-0.00318808
-0.1163
0.112367
0.000925392
-0.0167285
0.0158031
-0.0384515
0.0403476
-0.00189609
0.0115721
-0.0174072
-0.257115
0.26295
0.0236484
-0.0287644
-0.422103
0.427219
0.0335118
-0.037359
-0.571988
0.575835
0.0413663
-0.0453456
-0.697586
0.701565
0.0501106
-0.0546748
-0.823118
0.827682
0.0597554
-0.0643038
-0.970075
0.974624
0.0690356
-0.0729499
-1.14429
1.1482
0.0766002
-0.0791471
-1.34935
1.3519
0.0808144
-0.0810533
-1.59066
1.5909
0.0799676
-0.0776644
-1.56714
1.56484
0.0748957
-0.0714492
-1.29495
1.29151
0.0681442
-0.0645222
-1.0772
1.07358
0.061303
-0.0578757
-0.902178
0.898751
0.0547244
-0.050932
-0.757242
0.75345
0.046819
-0.0412779
-0.615066
0.609525
0.0352038
-0.0277732
-0.444239
0.436809
0.0208552
-0.0137614
-0.25973
0.252636
0.00827109
-0.00367943
-0.108322
0.103731
0.00105986
-0.014888
0.0138281
-0.0422581
0.044991
-0.00273286
0.0162059
-0.0240564
-0.269124
0.276975
0.0322101
-0.0388096
-0.433868
0.440468
0.0449437
-0.0500208
-0.58151
0.586587
0.0554284
-0.0606752
-0.706424
0.711671
0.0666912
-0.0722532
-0.832291
0.837853
0.0782469
-0.0834421
-0.979083
0.984279
0.088664
-0.092815
-1.15191
1.15606
0.096479
-0.0987876
-1.35407
1.35638
0.0999098
-0.0993904
-1.59057
1.59006
0.0973785
-0.0940158
-1.56188
1.55852
0.0902888
-0.085813
-1.28746
1.28298
0.0815957
-0.0770557
-1.06928
1.06474
0.0731175
-0.0690523
-0.894537
0.890472
0.0653219
-0.060904
-0.748998
0.74458
0.0560079
-0.0492296
-0.603749
0.596971
0.0417396
-0.0326593
-0.429304
0.420224
0.0243485
-0.0159561
-0.24546
0.237068
0.00952458
-0.00419745
-0.0990545
0.0937274
0.0011942
-0.0127923
0.0115981
-0.0476445
0.0518079
-0.0041634
0.0235711
-0.0342514
-0.285187
0.295867
0.0449317
-0.0534525
-0.449534
0.458055
0.0612186
-0.0676441
-0.594016
0.600441
0.074596
-0.0812484
-0.717792
0.724444
0.088584
-0.0950911
-0.843414
0.849921
0.101861
-0.107537
-0.9893
0.994977
0.113038
-0.11722
-1.15988
1.16406
0.120646
-0.122502
-1.35816
1.36002
0.122883
-0.121477
-1.58886
1.58745
0.118486
-0.114066
-1.55447
1.55005
0.109406
-0.103937
-1.27788
1.27241
0.0988357
-0.0933489
-1.05946
1.05397
0.0885802
-0.0836495
-0.885402
0.880472
0.079094
-0.0735336
-0.739159
0.733598
0.0671716
-0.0584771
-0.589555
0.580861
0.0491284
-0.0381423
-0.411044
0.400058
0.0282784
-0.0184086
-0.228717
0.218848
0.0108881
-0.00473252
-0.0883789
0.0822234
0.00132181
-0.0104477
0.0091259
-0.0556621
0.0628526
-0.00719054
0.0367998
-0.0517356
-0.307451
0.322387
0.0660246
-0.0771239
-0.470466
0.481565
0.0865709
-0.0942563
-0.609734
0.617419
0.102619
-0.110363
-0.731667
0.739411
0.118501
-0.125418
-0.856163
0.86308
0.132381
-0.13802
-1.00024
1.00588
0.14327
-0.147002
-1.16767
1.1714
0.149737
-0.150764
-1.36116
1.36218
0.150086
-0.147563
-1.58523
1.5827
0.143453
-0.137922
-1.54488
1.53935
0.132305
-0.12586
-1.26632
1.25988
0.119888
-0.113428
-1.04774
1.04128
0.107689
-0.101489
-0.874237
0.868037
0.0955079
-0.0880266
-0.726413
0.718932
0.0795494
-0.0684864
-0.571068
0.560005
0.057165
-0.0442616
-0.388999
0.376096
0.0327366
-0.021201
-0.20921
0.197675
0.0124043
-0.00529476
-0.0762238
0.0691143
0.00143716
-0.00788612
0.00644896
-0.06961
0.0734191
-0.00380905
0.0273823
-0.0402483
-0.33989
0.352756
0.0528933
-0.06279
-0.497823
0.50772
0.0716941
-0.080419
-0.628285
0.63701
0.0904143
-0.0993604
-0.746738
0.755684
0.109439
-0.118504
-0.86914
0.878205
0.128173
-0.136734
-1.01063
1.01919
0.145592
-0.153046
-1.17413
1.18159
0.160223
-0.165621
-1.36218
1.36758
0.169836
-0.171686
-1.57912
1.58097
0.171047
-0.168313
-1.53287
1.53014
0.164234
-0.15846
-1.25265
1.24687
0.152466
-0.144705
-1.03392
1.02616
0.137145
-0.128019
-0.860158
0.851032
0.118681
-0.107061
-0.709113
0.697493
0.0943093
-0.0788346
-0.547763
0.532289
0.0640527
-0.0476456
-0.362949
0.346542
0.0336314
-0.0203844
-0.18645
0.173203
0.0110283
-0.00428004
-0.0626893
0.0559411
0.00100441
-0.00521414
0.00420973
-0.0805349
0.078272
0.00226299
0.00559436
-0.0136415
-0.368375
0.376422
0.0230057
-0.0299812
-0.522157
0.529133
0.0371288
-0.0444517
-0.64779
0.655113
0.0533565
-0.0616252
-0.764319
0.772588
0.0705804
-0.0789134
-0.886743
0.895076
0.0878532
-0.0955053
-1.02751
1.03516
0.103666
-0.110237
-1.18895
1.19552
0.116587
-0.121144
-1.3728
1.37736
0.124201
-0.125034
-1.5821
1.58293
0.123332
-0.119446
-1.5266
1.52271
0.114069
-0.106796
-1.24033
1.23306
0.0992513
-0.0899251
-1.01726
1.00793
0.080454
-0.0691479
-0.83904
0.827734
0.0584501
-0.0471559
-0.681273
0.669979
0.0372318
-0.0268041
-0.514653
0.504226
0.0181115
-0.0105268
-0.329701
0.322116
0.00555849
-0.00207675
-0.160403
0.156921
0.000368194
0.000235555
-0.0495331
0.0489293
-0.000200003
-0.0030074
0.00320741
-0.0813559
0.0783622
0.00299375
-0.0030353
-0.00121216
-0.387255
0.391503
0.0072371
-0.0123679
-0.539927
0.545058
0.0178924
-0.0240954
-0.664066
0.670269
0.0316158
-0.038654
-0.780053
0.787091
0.0465737
-0.0538418
-0.902708
0.909976
0.0614549
-0.0683689
-1.04267
1.04959
0.0755637
-0.0814681
-1.20171
1.20761
0.0867291
-0.090263
-1.38126
1.3848
0.0924767
-0.0922941
-1.58295
1.58277
0.0895637
-0.0846321
-1.51794
1.513
0.0784346
-0.0705308
-1.22524
1.21733
0.0621481
-0.0523931
-0.997671
0.987916
0.0428929
-0.0321332
-0.815767
0.805007
0.0226707
-0.0132016
-0.656366
0.646897
0.00580962
0.00120566
-0.491963
0.484948
-0.00557991
0.00769917
-0.312678
0.310559
-0.00771529
0.00633469
-0.151562
0.152943
-0.0044484
0.00227489
-0.0475581
0.0497316
-0.000753566
-0.0029658
0.00371937
-0.079845
0.0770291
0.002816
-0.00609193
0.00422243
-0.399475
0.401344
-0.000726828
-0.00315388
-0.553166
0.557047
0.00802442
-0.0132072
-0.677236
0.682418
0.0195779
-0.0255987
-0.793678
0.799699
0.0323721
-0.0386306
-0.916781
0.923039
0.0455809
-0.0515007
-1.0561
1.06202
0.0578527
-0.0626139
-1.21312
1.21788
0.0671186
-0.0699843
-1.38806
1.39093
0.0713251
-0.070196
-1.582
1.58087
0.0669868
-0.0616995
-1.50729
1.502
0.0553348
-0.0471331
-1.20902
1.20082
0.0390536
-0.0298786
-0.977754
0.968579
0.0210359
-0.0115991
-0.793961
0.784525
0.0031738
0.00465654
-0.63554
0.627709
-0.010238
0.0144035
-0.476207
0.472042
-0.0160958
0.0152875
-0.305007
0.305815
-0.012961
0.00950158
-0.152283
0.155742
-0.00632598
0.00304719
-0.0508537
0.0541325
-0.000948269
-0.00396735
0.00491561
-0.0782376
0.0758425
0.00239511
-0.00671141
0.00619523
-0.407602
0.408119
-0.00359708
0.000850707
-0.563959
0.566705
0.00323564
-0.0080195
-0.688228
0.693012
0.0133806
-0.0187066
-0.805198
0.810524
0.0245999
-0.0300675
-0.928922
0.93439
0.036072
-0.0413793
-1.06782
1.07313
0.0468015
-0.0511733
-1.2225
1.22688
0.0550049
-0.0573165
-1.39338
1.39569
0.0581501
-0.0566782
-1.57948
1.57801
0.0532969
-0.0478361
-1.49596
1.49049
0.0417007
-0.034155
-1.1926
1.18506
0.026795
-0.0184664
-0.959265
0.950936
0.0108333
-0.00272366
-0.774877
0.766767
-0.00415741
0.0105158
-0.618512
0.612153
-0.0148456
0.0178311
-0.465289
0.462303
-0.0187493
0.0171109
-0.302639
0.304278
-0.0139797
0.0101102
-0.1569
0.16077
-0.00662644
0.00312653
-0.0561907
0.0596906
-0.000975828
-0.005406
0.00638182
-0.0769073
0.0749087
0.00199867
-0.00625722
0.00605247
-0.413254
0.413459
-0.00459388
0.00223113
-0.572308
0.574671
0.00182555
-0.00598448
-0.697665
0.701824
0.0106763
-0.0153707
-0.815227
0.819921
0.0206709
-0.0256034
-0.939587
0.944519
0.0311369
-0.0358201
-1.07818
1.08287
0.0407191
-0.044657
-1.23096
1.2349
0.0480162
-0.0499714
-1.39771
1.39967
0.0505101
-0.0492901
-1.5764
1.57518
0.0459716
-0.0409773
-1.48465
1.47966
0.0352978
-0.0284319
-1.17748
1.17061
0.0220847
-0.0146743
-0.942719
0.935308
0.00804687
-0.00124027
-0.758684
0.751878
-0.00454279
0.0098636
-0.604834
0.599513
-0.0134731
0.0159213
-0.456772
0.454324
-0.0164092
0.0149495
-0.302179
0.303638
-0.0123443
0.00886759
-0.162184
0.16566
-0.00573292
0.00272399
-0.0615749
0.0645838
-0.000854368
-0.00681434
0.00766871
-0.0760057
0.0744819
0.00152375
-0.00518397
0.00516618
-0.417597
0.417614
-0.00385482
0.00199503
-0.579844
0.581704
0.00186481
-0.00572206
-0.706028
0.709885
0.0103065
-0.0144282
-0.824364
0.828485
0.0191565
-0.0235843
-0.949495
0.953923
0.028876
-0.0331638
-1.0876
1.09189
0.0375478
-0.0412765
-1.23866
1.24239
0.0447614
-0.0465606
-1.40163
1.40343
0.0471807
-0.0459977
-1.57358
1.5724
0.043251
-0.0384857
-1.47452
1.46976
0.0335273
-0.0275499
-1.16376
1.15778
0.0218417
-0.0155408
-0.92814
0.921839
0.00975126
-0.00369087
-0.744888
0.738828
-0.00109184
0.00576653
-0.593234
0.588559
-0.00902158
0.0110563
-0.449661
0.447627
-0.0116405
0.0108425
-0.302004
0.302802
-0.00891945
0.00628698
-0.166492
0.169125
-0.00402813
0.00194356
-0.0658369
0.0679215
-0.00063547
-0.007938
0.00857347
-0.0756449
0.074471
0.00117386
-0.00401895
0.00402568
-0.421196
0.42119
-0.00266495
0.000787528
-0.586626
0.588504
0.00290721
-0.00644133
-0.71376
0.717294
0.0104639
-0.0145333
-0.832678
0.836747
0.0189799
-0.0235943
-0.958232
0.962847
0.0282026
-0.0323218
-1.0963
1.10042
0.0368312
-0.0403172
-1.24601
1.24949
0.0433349
-0.0455555
-1.40514
1.40736
0.0463992
-0.0455862
-1.57129
1.57047
0.0431462
-0.0391592
-1.46524
1.46126
0.0347643
-0.0294318
-1.15161
1.14628
0.0244336
-0.0188492
-0.915552
0.909967
0.013781
-0.00863778
-0.732884
0.727741
0.00415899
2.17328e-05
-0.583146
0.578965
-0.00286255
0.00493793
-0.443462
0.441387
-0.00572956
0.00537533
-0.300961
0.301315
-0.0044577
0.00307792
-0.168972
0.170351
-0.0019448
0.000945816
-0.0682835
0.0692825
-0.000338482
-0.00863513
0.00897361
-0.0758171
0.0748479
0.00096924
-0.0027283
0.00247607
-0.424584
0.424836
-0.00124024
-0.000796594
-0.592967
0.595003
0.0042583
-0.00776465
-0.721141
0.724648
0.0117259
-0.0154882
-0.84072
0.844483
0.0201222
-0.0240084
-0.966959
0.970845
0.0286149
-0.0325719
-1.10472
1.10867
0.0369749
-0.0406565
-1.25297
1.25666
0.0439671
-0.0459987
-1.40936
1.41139
0.0472259
-0.046877
-1.56961
1.56926
0.0451616
-0.0416085
-1.4572
1.45364
0.0377726
-0.0329897
-1.1411
1.13631
0.0285244
-0.0234281
-0.904237
0.89914
0.0189463
-0.0141894
-0.722381
0.717624
0.010139
-0.00623532
-0.574242
0.570339
0.00328678
-0.00116021
-0.437489
0.435362
-8.84395e-05
0.000456684
-0.298769
0.298401
-0.000600034
0.000484902
-0.169166
0.169281
-0.000373917
0.000303215
-0.0687473
0.068818
-0.000164522
-0.00879231
0.00895683
-0.0762652
0.0756045
0.000660701
-0.00161515
0.000994973
-0.428174
0.428795
3.08912e-05
-0.00247486
-0.598613
0.601057
0.00565865
-0.00909891
-0.728199
0.73164
0.01297
-0.0169281
-0.848204
0.852162
0.021024
-0.0251086
-0.974993
0.979078
0.0297072
-0.0334765
-1.11308
1.11685
0.0379816
-0.0416311
-1.26016
1.26381
0.0450186
-0.047599
-1.41384
1.41642
0.0493509
-0.0493368
-1.56897
1.56895
0.0479264
-0.0451397
-1.45027
1.44749
0.0418906
-0.0375184
-1.13142
1.12705
0.0333416
-0.028819
-0.893974
0.889451
0.024325
-0.0200205
-0.71259
0.708285
0.0162019
-0.0123549
-0.566073
0.562226
0.00949441
-0.00696101
-0.431378
0.428845
0.00529812
-0.00397101
-0.295411
0.294084
0.00292422
-0.00183256
-0.16726
0.166168
0.000885931
-0.000184037
-0.0674817
0.0667798
-5.86927e-05
-0.00848774
0.00854643
-0.0771059
0.0766
0.000505959
-0.000697156
0.00019629
-0.432019
0.432519
0.00168477
-0.00388123
-0.604632
0.606828
0.00722257
-0.0105805
-0.734886
0.738244
0.0143609
-0.0179845
-0.855879
0.859503
0.0222536
-0.0260651
-0.983218
0.987029
0.03064
-0.0348553
-1.12109
1.1253
0.0390226
-0.0430113
-1.26752
1.27151
0.046836
-0.0495361
-1.41891
1.42161
0.0516958
-0.0524937
-1.56917
1.56997
0.0515655
-0.0494247
-1.44457
1.44243
0.0463967
-0.0424754
-1.12268
1.11876
0.0386881
-0.0343086
-0.884508
0.880129
0.0301545
-0.0259293
-0.70344
0.699215
0.0221907
-0.0182557
-0.557892
0.553957
0.0151161
-0.0122453
-0.424864
0.421993
0.0098492
-0.00768821
-0.290476
0.288315
0.00573895
-0.00369336
-0.163285
0.16124
0.00203776
-0.000725709
-0.0648219
0.0635099
0.000113886
-0.00792123
0.00780735
-0.0781947
0.077873
0.000321706
0.000326587
-0.00113963
-0.435928
0.436741
0.00281317
-0.00529684
-0.610247
0.612731
0.00859162
-0.0118273
-0.741427
0.744663
0.0157281
-0.0192454
-0.863171
0.866688
0.0234008
-0.0273597
-0.991354
0.995313
0.0318632
-0.0360596
-1.1294
1.13359
0.0404601
-0.0444904
-1.27544
1.27947
0.0485198
-0.0519824
-1.42462
1.42808
0.0546136
-0.0557384
-1.57072
1.57184
0.0555188
-0.0537153
-1.44018
1.43838
0.0512328
-0.0478066
-1.11474
1.11132
0.0440461
-0.0398339
-0.875429
0.871217
0.0358046
-0.0314944
-0.694561
0.690251
0.0278209
-0.0237318
-0.549808