/*--------------------------------*- C++ -*----------------------------------*\
| =========                 |                                                 |
| \\      /  F ield         | OpenFOAM: The Open Source CFD Toolbox           |
|  \\    /   O peration     | Version:  2306                                  |
|   \\  /    A nd           | Website:  www.openfoam.com                      |
|    \\/     M anipulation  |                                                 |
\*---------------------------------------------------------------------------*/
FoamFile
{
    version     2.0;
    format      ascii;
    arch        "LSB;label=32;scalar=64";
    class       surfaceScalarField;
    location    "35";
    object      phi;
}
// * * * * * * * * * * * * * * * * * * * * * * * * * * * * * * * * * * * * * //

dimensions      [0 3 -1 0 0 0 0];

oriented        oriented;

internalField   nonuniform List<scalar> 
17370
(
-0.0910991
0.0935439
0.286566
-0.0749521
0.056951
0.364777
-0.0409331
0.029948
0.427153
-0.0211906
0.0155874
0.504855
-0.0113334
0.00863013
0.602105
-0.00649494
0.00504349
0.720509
-0.00383193
0.00297163
0.863767
-0.00221798
0.00165412
1.03601
-0.00113392
0.000719975
1.24292
-0.000313309
-8.09518e-05
1.49159
0.000464813
-0.000867502
1.49159
0.00126983
-0.00177667
1.2432
0.0023297
-0.0030734
1.03638
0.00392691
-0.00513228
0.864112
0.00657754
-0.00870471
0.721185
0.0114002
-0.0156456
0.60346
0.0212411
-0.0299898
0.508188
0.0409667
-0.0569765
0.432178
0.0749717
-0.0935554
0.365359
0.0911107
0.1979
-0.127344
0.0881388
0.0392048
-0.364734
0.353783
-0.0726357
0.0835863
-0.446564
0.454364
-0.0817216
0.0739215
-0.520968
0.529522
-0.065812
0.0572572
-0.612845
0.621014
-0.0495042
0.0413354
-0.726996
0.733785
-0.0344059
0.0276174
-0.867513
0.872436
-0.0222807
0.0173579
-1.03855
1.04188
-0.013655
0.0103202
-1.24471
1.24711
-0.0077773
0.00537562
-1.49283
1.49484
-0.00341593
0.00140926
-1.49269
1.4945
0.000401544
-0.00221104
-1.2441
1.24602
0.00418231
-0.00609767
-1.0376
1.04009
0.0084475
-0.0109431
-0.866161
0.869823
0.0142285
-0.0178903
-0.724484
0.729783
0.022771
-0.0280701
-0.608892
0.615783
0.0348166
-0.0417076
-0.514992
0.522708
0.0498349
-0.0575506
-0.439772
0.447842
0.066062
-0.0741318
-0.375163
0.377002
0.081885
-0.0837243
-0.256926
0.223437
0.072731
-0.0392415
-0.0686421
0.0589098
0.00973233
-0.0520923
0.0587959
-0.374533
0.367829
-0.0579137
0.0540899
-0.453822
0.457646
-0.0487327
0.0443938
-0.527733
0.532072
-0.0401691
0.0363856
-0.621091
0.624874
-0.0321631
0.0280996
-0.734866
0.73893
-0.023645
0.0196739
-0.874039
0.87801
-0.0155617
0.0120638
-1.04339
1.04688
-0.00851308
0.00546123
-1.24865
1.2517
-0.00223925
-0.000753345
-1.49693
1.49992
0.00372614
-0.00689284
-1.49742
1.50059
0.00986819
-0.0133233
-1.2501
1.25356
0.0167317
-0.0207482
-1.04574
1.04975
0.0246388
-0.0290118
-0.877333
0.881706
0.0330031
-0.0371467
-0.73933
0.743474
0.0408598
-0.0450123
-0.626361
0.630514
0.0492919
-0.054592
-0.534952
0.540252
0.0583557
-0.0591624
-0.457937
0.458744
0.0523681
-0.032014
-0.336424
0.31607
0.00977898
-0.0685215
0.0587425
-0.0531476
0.0490954
0.00405218
-0.0331878
0.0436902
-0.358348
0.347845
-0.0474147
0.0468329
-0.459493
0.460075
-0.0438596
0.0405916
-0.536004
0.539272
-0.0368822
0.0335494
-0.628421
0.631754
-0.0299924
0.0268566
-0.742235
0.745371
-0.0235301
0.0203866
-0.88155
0.884694
-0.0168136
0.013452
-1.05036
1.05372
-0.00973455
0.00631235
-1.25498
1.25841
-0.00250616
-0.00112613
-1.5033
1.50693
0.00473082
-0.00845761
-1.50413
1.50785
0.0117724
-0.0153504
-1.25717
1.26075
0.0185773
-0.0220042
-1.05352
1.05695
0.025026
-0.0282331
-0.885319
0.888526
0.031266
-0.0347125
-0.746976
0.750422
0.0379455
-0.0415495
-0.634541
0.638145
0.0447282
-0.0476035
-0.544492
0.547367
0.0480851
-0.0442213
-0.456928
0.453065
0.0335547
-0.0162284
-0.296728
0.279402
0.0041078
-0.0529319
0.0488241
-0.0459697
0.043442
0.00252772
-0.0229466
0.0333251
-0.337192
0.326813
-0.0391175
0.0401105
-0.459775
0.458781
-0.0389
0.0366046
-0.54193
0.544225
-0.0339668
0.0314092
-0.634731
0.637288
-0.0284146
0.0255779
-0.748427
0.751264
-0.0223788
0.0194185
-0.887695
0.890655
-0.0161352
0.0130533
-1.05688
1.05996
-0.00953724
0.00615719
-1.2618
1.26518
-0.00225501
-0.00154588
-1.51068
1.51448
0.00531176
-0.0091075
-1.51166
1.51546
0.0123454
-0.0156769
-1.26423
1.26756
0.0185788
-0.0216655
-1.06012
1.06321
0.0244599
-0.0274961
-0.891673
0.894709
0.030193
-0.0330379
-0.753622
0.756467
0.0354602
-0.0379558
-0.641166
0.643662
0.040132
-0.0411916
-0.549202
0.550262
0.0400447
-0.0340311
-0.447898
0.441885
0.0234141
-0.0102449
-0.264262
0.251093
0.00259599
-0.0456388
0.0430428
-0.0413398
0.0395516
0.00178828
-0.0168765
0.0261647
-0.316931
0.307643
-0.0327882
0.0349341
-0.457182
0.455036
-0.0345193
0.0328422
-0.54621
0.547888
-0.0306439
0.0285459
-0.639566
0.641664
-0.0261417
0.0237955
-0.753868
0.756214
-0.021016
0.0183049
-0.893503
0.896214
-0.0151592
0.0121642
-1.06296
1.06596
-0.00874478
0.00547403
-1.26847
1.27174
-0.00168085
-0.00203037
-1.51823
1.52194
0.00569876
-0.00936346
-1.5192
1.52287
0.0124593
-0.0156468
-1.27082
1.27401
0.018411
-0.0212993
-1.06623
1.06912
0.023788
-0.0263484
-0.897512
0.900073
0.0285124
-0.0307268
-0.758934
0.761149
0.0326545
-0.0346704
-0.645883
0.647899
0.036176
-0.0363853
-0.550849
0.551058
0.0340051
-0.0270618
-0.435318
0.428375
0.0174561
-0.00737126
-0.239612
0.229527
0.00187147
-0.0408682
0.0389967
-0.0380088
0.0366641
0.00134468
-0.0128931
0.020883
-0.299002
0.291012
-0.0276652
0.0306086
-0.45245
0.449507
-0.0308352
0.0297316
-0.549292
0.550395
-0.0277539
0.0258555
-0.643675
0.645573
-0.0236892
0.0216022
-0.758427
0.760514
-0.0191613
0.0167486
-0.898749
0.901162
-0.013881
0.0110722
-1.06883
1.07164
-0.00779614
0.00463481
-1.27493
1.27809
-0.000964655
-0.0026103
-1.52556
1.52914
0.00613183
-0.00964191
-1.52646
1.52997
0.0125857
-0.0155694
-1.27714
1.28012
0.0180846
-0.0206228
-1.07186
1.07439
0.0227513
-0.0249109
-0.90239
0.90455
0.026765
-0.0286935
-0.763182
0.765111
0.0303812
-0.0321423
-0.649778
0.651539
0.0329996
-0.0324882
-0.550916
0.550404
0.0292136
-0.0219977
-0.421238
0.414022
0.013603
-0.00566769
-0.220619
0.212684
0.00144573
-0.037366
0.0359202
-0.0354877
0.034452
0.00103571
-0.0100695
0.0168248
-0.28366
0.276904
-0.0233447
0.0267452
-0.446304
0.442904
-0.0275504
0.0268764
-0.551256
0.55193
-0.0251366
0.0233807
-0.647421
0.649177
-0.0213635
0.0194162
-0.762552
0.764499
-0.0171353
0.0148947
-0.903448
0.905688
-0.0122547
0.00966111
-1.07428
1.07687
-0.00660431
0.00361127
-1.28114
1.28414
-0.000103482
-0.00331365
-1.53262
1.53604
0.00666628
-0.00997133
-1.53339
1.53669
0.0126919
-0.0153858
-1.28299
1.28568
0.017615
-0.0198425
-1.07678
1.07901
0.0217224
-0.0236418
-0.906571
0.90849
0.0252928
-0.0270145
-0.766902
0.768624
0.0285136
-0.0299646
-0.653172
0.654623
0.0303343
-0.0291322
-0.549567
0.548364
0.0252806
-0.0181951
-0.406849
0.399764
0.0109351
-0.00452273
-0.205582
0.19917
0.00115821
-0.034637
0.0334788
-0.0335413
0.0327354
0.000805915
-0.00796328
0.0136308
-0.270717
0.26505
-0.0196586
0.02326
-0.439382
0.43578
-0.0245559
0.0241448
-0.55249
0.552901
-0.0226954
0.0210691
-0.650903
0.652529
-0.0191697
0.0173284
-0.766413
0.768254
-0.0151609
0.0130243
-0.907831
0.909967
-0.0105049
0.0080415
-1.07933
1.08179
-0.00515873
0.00234452
-1.287
1.28981
0.000949288
-0.00416317
-1.53934
1.54255
0.00729491
-0.010344
-1.53987
1.54292
0.0128247
-0.0152606
-1.28827
1.29071
0.0172712
-0.019276
-1.08115
1.08316
0.0209573
-0.0226681
-0.910297
0.912008
0.0241409
-0.0256767
-0.770213
0.771749
0.0269849
-0.028066
-0.655879
0.65696
0.0280781
-0.0262462
-0.546859
0.545027
0.0220503
-0.0153051
-0.392846
0.386101
0.00901588
-0.00371167
-0.193365
0.18806
0.000954296
-0.032438
0.0314837
-0.0320277
0.0314008
0.000626885
-0.00632373
0.0110515
-0.259876
0.255148
-0.0164701
0.0200649
-0.432172
0.428577
-0.0216893
0.0215172
-0.553212
0.553384
-0.0203223
0.018781
-0.654145
0.655687
-0.0169665
0.0152008
-0.770075
0.771841
-0.0131211
0.0110733
-0.912001
0.914049
-0.00866269
0.0063116
-1.08413
1.08648
-0.00356595
0.00089867
-1.29251
1.29517
0.00220324
-0.00520444
-1.54563
1.54863
0.0081033
-0.0109005
-1.54585
1.54865
0.0131552
-0.0153476
-1.29307
1.29526
0.01714
-0.0189159
-1.08509
1.08686
0.0203975
-0.0219054
-0.913611
0.915119
0.0232106
-0.0245736
-0.773147
0.77451
0.0257376
-0.0264414
-0.657839
0.658543
0.0261047
-0.0237738
-0.542971
0.54064
0.0194115
-0.013095
-0.379584
0.373268
0.00760489
-0.00312361
-0.18321
0.178729
0.00080733
-0.0306174
0.0298101
-0.030855
0.0303744
0.000480587
-0.00498706
0.00889284
-0.250854
0.246949
-0.0136483
0.0170818
-0.425067
0.421633
-0.0188912
0.0189204
-0.553488
0.553459
-0.0179379
0.0164536
-0.657258
0.658742
-0.0146909
0.0129727
-0.773594
0.775312
-0.0109535
0.00897368
-0.915981
0.917961
-0.00665024
0.00439144
-1.0887
1.09096
-0.00176341
-0.000768759
-1.29771
1.30024
0.00368715
-0.00647441
-1.5515
1.55428
0.0091373
-0.0116836
-1.55132
1.55387
0.0137144
-0.0156708
-1.29738
1.29933
0.017256
-0.0188109
-1.08856
1.09011
0.0200988
-0.021401
-0.916522
0.917824
0.0225261
-0.0237129
-0.775747
0.776934
0.0247049
-0.0250572
-0.659046
0.659399
0.0243738
-0.0216533
-0.53815
0.535429
0.0172501
-0.0113853
-0.367204
0.36134
0.00654769
-0.00268983
-0.174598
0.17074
0.000700174
-0.029071
0.0283708
-0.0299633
0.029608
0.000355271
-0.00384649
0.00701493
-0.243433
0.240265
-0.0110804
0.0142327
-0.418352
0.415199
-0.0161029
0.0163112
-0.553381
0.553173
-0.0154562
0.0140919
-0.660238
0.661602
-0.0123778
0.0106876
-0.777022
0.778712
-0.00869404
0.00674289
-0.919829
0.92178
-0.0044678
0.00227453
-1.09308
1.09528
0.000249431
-0.00266847
-1.30265
1.30507
0.00542882
-0.00803527
-1.55694
1.55955
0.010489
-0.012789
-1.55629
1.55859
0.0145837
-0.0162814
-1.30121
1.30291
0.0176408
-0.0189666
-1.09158
1.09291
0.0200635
-0.021173
-0.919038
0.920147
0.0221298
-0.023129
-0.778004
0.779003
0.0238618
-0.0239347
-0.659606
0.659678
0.022883
-0.019851
-0.532584
0.529552
0.0154858
-0.0100572
-0.355722
0.350294
0.00575178
-0.00237147
-0.167155
0.163775
0.000624224
-0.027723
0.0270988
-0.0293159
0.0290742
0.000241639
-0.00282298
0.00530793
-0.23746
0.234975
-0.00866475
0.0114349
-0.41226
0.40949
-0.0132355
0.013542
-0.552968
0.552662
-0.0127685
0.0114926
-0.662997
0.664273
-0.00980184
0.00811136
-0.780394
0.782084
-0.006119
0.00418397
-0.923608
0.925543
-0.00195142
-0.000178369
-1.09733
1.09946
0.00262228
-0.00493385
-1.30736
1.30967
0.00753919
-0.0099615
-1.56203
1.56445
0.0121953
-0.0142309
-1.56076
1.5628
0.0157826
-0.017215
-1.30453
1.30597
0.0183383
-0.019414
-1.09416
1.09524
0.0202943
-0.0211857
-0.921156
0.922048
0.0219556
-0.0227245
-0.779864
0.780633
0.023194
-0.0230013
-0.659587
0.659394
0.0216071
-0.0183365
-0.52644
0.523169
0.014058
-0.00902794
-0.345104
0.340074
0.00515387
-0.0021399
-0.160614
0.1576
0.000571666
-0.0265182
0.0259465
-0.0288939
0.0287613
0.000132573
-0.00185137
0.00367728
-0.232839
0.231013
-0.00630782
0.0086188
-0.406986
0.404675
-0.0102364
0.0105558
-0.552432
0.552113
-0.00982462
0.00859455
-0.66562
0.66685
-0.00690881
0.00521036
-0.78375
0.785448
-0.00321444
0.00128684
-0.927329
0.929256
0.000926894
-0.00302799
-1.10146
1.10356
0.00540894
-0.00763462
-1.31186
1.31408
0.0100969
-0.0123284
-1.56673
1.56896
0.0143265
-0.0160934
-1.5647
1.56647
0.0173817
-0.0185242
-1.30731
1.30845
0.0193809
-0.0201626
-1.09621
1.09699
0.0207833
-0.0214023
-0.922838
0.923457
0.0219488
-0.0225298
-0.781307
0.781888
0.0226875
-0.022225
-0.658978
0.658515
0.0205238
-0.0170725
-0.519857
0.516406
0.0129038
-0.00822791
-0.335273
0.330597
0.0047053
-0.00197437
-0.154769
0.152038
0.00053708
-0.0254124
0.0248754
-0.0286907
0.0286716
1.91347e-05
-0.000889359
0.0020622
-0.229534
0.228362
-0.00393701
0.00571673
-0.402679
0.400899
-0.00705524
0.00733177
-0.551925
0.551649
-0.00664129
0.00546421
-0.668164
0.669341
-0.00378407
0.00206035
-0.7871
0.788823
-1.839e-05
-0.00195331
-0.931037
0.933009
0.00420344
-0.00631971
-1.10553
1.10765
0.00868519
-0.0108533
-1.31619
1.31835
0.0131935
-0.0152445
-1.57104
1.57309
0.0170148
-0.0185062
-1.56809
1.56958
0.0195368
-0.0203879
-1.30951
1.31036
0.0209837
-0.0214849
-1.0977
1.09821
0.0218407
-0.0221718
-0.92399
0.924321
0.0224535
-0.0227561
-0.782269
0.782571
0.0226003
-0.0217891
-0.657735
0.656924
0.0197417
-0.0160974
-0.512931
0.509287
0.0120256
-0.00764728
-0.326138
0.321759
0.00439961
-0.0018738
-0.149458
0.146933
0.0005214
-0.02437
0.0238486
-0.0287079
0.0288099
-0.000102064
0.000138407
0.000371805
-0.227536
0.227026
-0.00145692
0.00262783
-0.39948
0.398309
-0.00356992
0.00371138
-0.551581
0.551439
-0.00300168
0.0018264
-0.670642
0.671818
-0.000110304
-0.00167615
-0.790497
0.792284
0.00379431
-0.00582232
-0.934825
0.936853
0.00811484
-0.0102468
-1.10963
1.11176
0.0125945
-0.014713
-1.32039
1.32251
0.016951
-0.0188473
-1.575
1.57689
0.020394
-0.0215904
-1.57091
1.57211
0.0222994
-0.0227796
-1.3111
1.31158
0.0230354
-0.0231852
-1.09859
1.09874
0.0232466
-0.023282
-0.924558
0.924593
0.023317
-0.0232623
-0.782588
0.782534
0.0228243
-0.0215606
-0.655753
0.654489
0.0191796
-0.0153797
-0.505683
0.501883
0.011398
-0.00725577
-0.317592
0.313449
0.00421096
-0.00182368
-0.144535
0.142148
0.000519206
-0.023357
0.0228378
-0.0289793
0.0292163
-0.000237013
0.00114934
-0.00133759
-0.226899
0.227088
0.0010986
-0.000610665
-0.397536
0.397048
0.000174492
-0.000286927
-0.551622
0.551734
0.0011265
-0.0023954
-0.673196
0.674465
0.00419668
-0.00606896
-0.794005
0.795877
0.00827653
-0.0103795
-0.93871
0.940813
0.0127475
-0.0149342
-1.11375
1.11594
0.0173174
-0.0194207
-1.3245
1.3266
0.0215651
-0.0232861
-1.57862
1.58034
0.0245712
-0.0254463
-1.57311
1.57399
0.0258487
-0.0259582
-1.31195
1.31206
0.0258693
-0.0256313
-1.09876
1.09852
0.0253402
-0.0250034
-0.924462
0.924125
0.0246941
-0.0242784
-0.782149
0.781734
0.0234824
-0.0217261
-0.65295
0.651193
0.0190113
-0.015029
-0.49817
0.494188
0.0110756
-0.00707596
-0.309497
0.305498
0.00414782
-0.00182419
-0.139864
0.13754
0.00052893
-0.0223461
0.0218171
-0.0295237
0.0299038
-0.000380052
0.00226975
-0.00317029
-0.227604
0.228505
0.00381313
-0.0040845
-0.396982
0.397253
0.00424865
-0.00466069
-0.552276
0.552688
0.00561952
-0.00700198
-0.675951
0.677333
0.00893833
-0.0109498
-0.797667
0.799679
0.0133222
-0.0155782
-0.942753
0.945009
0.0181108
-0.0204321
-1.118
1.12032
0.0229253
-0.0250774
-1.32859
1.33075
0.0271907
-0.0287784
-1.58191
1.5835
0.0298386
-0.0303751
-1.57466
1.5752
0.0304424
-0.0301509
-1.31202
1.31173
0.0296726
-0.0290197
-1.09808
1.09743
0.028355
-0.0276048
-0.923544
0.922793
0.0269333
-0.0260764
-0.780908
0.780051
0.0248288
-0.0225356
-0.64926
0.646967
0.0194237
-0.0151932
-0.490295
0.486064
0.0111846
-0.00720119
-0.301657
0.297674
0.0042665
-0.00189739
-0.135283
0.132914
0.000555063
-0.0213127
0.0207576
-0.0303732
0.0309304
-0.000557181
0.00346964
-0.00509496
-0.229788
0.231413
0.00662919
-0.00770954
-0.39792
0.399
0.00861236
-0.00946341
-0.553656
0.554507
0.0106785
-0.012251
-0.678982
0.680555
0.0144151
-0.0166673
-0.801622
0.803874
0.0193292
-0.0218518
-0.947135
0.949657
0.0246566
-0.0271849
-1.12254
1.12507
0.0298348
-0.0320464
-1.33278
1.33499
0.0341159
-0.0355409
-1.58491
1.58634
0.0363209
-0.0364664
-1.57549
1.57564
0.0361439
-0.0354179
-1.31124
1.31051
0.0345305
-0.0334239
-1.09652
1.09541
0.0323607
-0.0311849
-0.92174
0.920564
0.0301403
-0.0287619
-0.778735
0.777357
0.0269879
-0.0241322
-0.644551
0.641695
0.0206084
-0.0160771
-0.481948
0.477417
0.0118968
-0.00774713
-0.293798
0.289649
0.00463619
-0.00207442
-0.130557
0.127996
0.000606833
-0.0202203
0.0196135
-0.0315762
0.03234
-0.000763778
0.00482057
-0.00723467
-0.233452
0.235866
0.00972727
-0.0116605
-0.40051
0.402443
0.0133951
-0.0148297
-0.556039
0.557474
0.0165035
-0.0184253
-0.682491
0.684413
0.0209753
-0.0235902
-0.806084
0.808699
0.0266475
-0.0295077
-0.952058
0.954918
0.03264
-0.0354132
-1.12749
1.13026
0.0382583
-0.0405629
-1.33709
1.33939
0.0426123
-0.0438681
-1.58757
1.58882
0.0443451
-0.044063
-1.57551
1.57523
0.0432776
-0.042042
-1.30951
1.30827
0.0406923
-0.0390917
-1.094
1.0924
0.037589
-0.035959
-0.919017
0.917387
0.0345013
-0.0325368
-0.775494
0.773529
0.0302597
-0.0268456
-0.638789
0.635374
0.0228584
-0.0178883
-0.472998
0.468028
0.0133409
-0.00877968
-0.285524
0.280962
0.00529106
-0.0023725
-0.125381
0.122462
0.000691628
-0.019014
0.0183224
-0.0331851
0.0342085
-0.00102338
0.00645438
-0.0097747
-0.238689
0.242009
0.0133398
-0.0162179
-0.404933
0.407811
0.018864
-0.0210033
-0.559758
0.561897
0.0233147
-0.0257609
-0.686833
0.689279
0.0288695
-0.0319726
-0.811295
0.814398
0.0355334
-0.038822
-0.957662
0.96095
0.0423796
-0.0454856
-1.13293
1.13604
0.0486036
-0.0510379
-1.34157
1.344
0.0530535
-0.0540959
-1.58985
1.59089
0.0541988
-0.0534128
-1.57463
1.57385
0.0521105
-0.0502736
-1.30667
1.30484
0.0483899
-0.0462304
-1.0904
1.08824
0.0442625
-0.0421587
-0.915305
0.913202
0.0402383
-0.0377341
-0.771121
0.768617
0.0349006
-0.0308387
-0.631932
0.62787
0.026243
-0.0206143
-0.463138
0.457509
0.0154641
-0.0102364
-0.276342
0.271115
0.0061833
-0.00276846
-0.119439
0.116024
0.000802952
-0.017631
0.0168281
-0.0353039
0.0366878
-0.00138391
0.00864221
-0.0131011
-0.24573
0.250189
0.017929
-0.0218639
-0.411376
0.415311
0.025499
-0.0284105
-0.565083
0.567994
0.031451
-0.0345358
-0.692338
0.695423
0.038353
-0.0420831
-0.817494
0.821224
0.0463061
-0.0501645
-0.964157
0.968016
0.0542917
-0.0578335
-1.13907
1.14261
0.0612968
-0.0638832
-1.3463
1.34889
0.0658535
-0.0666384
-1.59166
1.59245
0.0663067
-0.06493
-1.57269
1.57131
0.0630421
-0.0605342
-1.3026
1.30009
0.0580276
-0.0552208
-1.08557
1.08276
0.0527003
-0.0500398
-0.910513
0.907852
0.0475865
-0.0444784
-0.765658
0.762549
0.0409874
-0.0361001
-0.623749
0.618862
0.0307003
-0.0241681
-0.451931
0.445399
0.0181705
-0.0120319
-0.265767
0.259628
0.00725301
-0.00323398
-0.112474
0.108455
0.000933083
-0.0160229
0.0150898
-0.0381204
0.0400388
-0.00191841
0.0117635
-0.0177327
-0.255018
0.260987
0.0241203
-0.0293095
-0.420213
0.425402
0.0340793
-0.0378977
-0.572249
0.576068
0.0418345
-0.0457287
-0.699242
0.703136
0.0504349
-0.0549662
-0.82496
0.829492
0.0600229
-0.0645718
-0.971831
0.97638
0.0693412
-0.0733228
-1.14607
1.15005
0.0770711
-0.0797208
-1.35128
1.35393
0.0815227
-0.0819051
-1.59288
1.59326
0.0809894
-0.0788747
-1.56948
1.56737
0.0762794
-0.0729911
-1.29712
1.29383
0.0697865
-0.066221
-1.07934
1.07578
0.0630318
-0.0596783
-0.904434
0.901081
0.0565573
-0.0527197
-0.758863
0.755026
0.0484348
-0.042552
-0.613868
0.607985
0.0361562
-0.0284488
-0.438911
0.431204
0.0213395
-0.0140583
-0.253343
0.246062
0.0084229
-0.00372717
-0.104301
0.0996053
0.00106611
-0.0141626
0.0130965
-0.0419578
0.0447173
-0.00275946
0.0164501
-0.024487
-0.267272
0.275309
0.0328722
-0.0396304
-0.432129
0.438887
0.0458232
-0.0508031
-0.581705
0.586685
0.0559827
-0.0610512
-0.707901
0.712969
0.0669047
-0.0723732
-0.834049
0.839517
0.0783345
-0.0835581
-0.980865
0.986089
0.0888585
-0.093104
-1.15386
1.1581
0.0968835
-0.0993213
-1.35623
1.35867
0.100606
-0.10025
-1.59311
1.59276
0.098414
-0.0952472
-1.56464
1.56147
0.0917036
-0.0874373
-1.28997
1.2857
0.0834168
-0.0790471
-1.07156
1.06719
0.0751871
-0.0710904
-0.896826
0.892729
0.0672037
-0.0625288
-0.750458
0.745783
0.0573416
-0.050319
-0.601917
0.594895
0.0426781
-0.0334352
-0.423517
0.414274
0.0249135
-0.0162667
-0.238651
0.230004
0.00965906
-0.00422855
-0.0948014
0.0893708
0.00119442
-0.0120497
0.0108553
-0.0473899
0.0515932
-0.00420328
0.0238897
-0.0348078
-0.283675
0.294593
0.0458315
-0.0546884
-0.448196
0.457053
0.0627022
-0.06917
-0.594115
0.600583
0.0760131
-0.0825405
-0.718948
0.725475
0.089737
-0.0961565
-0.844982
0.851402
0.102885
-0.108548
-0.991126
0.996789
0.114031
-0.118174
-1.16197
1.16611
0.121544
-0.123331
-1.36052
1.36231
0.123605
-0.122066
-1.5916
1.59007
0.118918
-0.114355
-1.55746
1.5529
0.109612
-0.104128
-1.28071
1.27523
0.0990964
-0.093755
-1.06206
1.05672
0.0891438
-0.0843371
-0.887605
0.882798
0.0798183
-0.07429
-0.740231
0.734703
0.0680794
-0.0595468
-0.587499
0.578966
0.0502284
-0.0390267
-0.404976
0.393775
0.0288235
-0.018624
-0.221332
0.211132
0.0109326
-0.00471497
-0.083906
0.0776883
0.00130686
-0.00970344
0.00839659
-0.0554904
0.0627365
-0.0072461
0.0371585
-0.0523652
-0.306404
0.32161
0.0670852
-0.0786715
-0.469866
0.481453
0.0885874
-0.0965968
-0.610089
0.618098
0.105189
-0.113062
-0.732694
0.740567
0.121278
-0.128213
-0.857604
0.864538
0.135122
-0.140637
-1.002
1.00752
0.145667
-0.14913
-1.16957
1.17303
0.151496
-0.152107
-1.36321
1.36382
0.150892
-0.147801
-1.58748
1.58439
0.143105
-0.137007
-1.54736
1.54126
0.130972
-0.124199
-1.26891
1.26214
0.118086
-0.111695
-1.0505
1.04411
0.106247
-0.100636
-0.876812
0.871201
0.0953822
-0.0887275
-0.727996
0.721341
0.0808493
-0.0700327
-0.569643
0.558827
0.0584901
-0.0450537
-0.382392
0.368955
0.0330539
-0.0211829
-0.201126
0.189255
0.0122812
-0.00519652
-0.0716249
0.0645403
0.00139765
-0.00717097
0.00577332
-0.0695474
0.0734163
-0.00386893
0.0277411
-0.0408436
-0.33938
0.352482
0.053892
-0.0642884
-0.498245
0.508642
0.0737742
-0.0830219
-0.629466
0.638714
0.0935715
-0.102936
-0.748153
0.757518
0.113322
-0.122515
-0.870635
0.879828
0.132167
-0.140582
-1.01209
1.0205
0.149146
-0.15622
-1.1754
1.18247
0.162832
-0.16758
-1.36325
1.368
0.170945
-0.171902
-1.5801
1.58106
0.170335
-0.166664
-1.53409
1.53042
0.161876
-0.155567
-1.25449
1.24818
0.149399
-0.141952
-1.03677
1.02933
0.135288
-0.127807
-0.864082
0.856601
0.120259
-0.1102
-0.712711
0.702653
0.0978442
-0.0820093
-0.546762
0.530927
0.0663574
-0.0489509
-0.35517
0.337764
0.0343008
-0.0206892
-0.177754
0.164143
0.0111957
-0.0043573
-0.0581352
0.0512968
0.00103087
-0.00455422
0.00352335
-0.0805603
0.0783378
0.0022225
0.00581921
-0.0140407
-0.368337
0.376559
0.0237486
-0.0311487
-0.523608
0.531008
0.0388053
-0.0466736
-0.650161
0.65803
0.0561928
-0.0649437
-0.766596
0.775346
0.0742246
-0.0826762
-0.888482
0.896934
0.0915765
-0.0990736
-1.02865
1.03614
0.106961
-0.113194
-1.18943
1.19567
0.119083
-0.123163
-1.37259
1.37667
0.12569
-0.126085
-1.58143
1.58182
0.124066
-0.120001
-1.52626
1.52219
0.114635
-0.107615
-1.24155
1.23453
0.100529
-0.091928
-1.0211
1.0125
0.0832463
-0.0727569
-0.845911
0.835422
0.0625427
-0.0513431
-0.687057
0.675858
0.040992
-0.0296668
-0.512509
0.501184
0.0201974
-0.0119695
-0.319904
0.311676
0.00661049
-0.00282563
-0.151029
0.147244
0.000880497
-3.67716e-05
-0.0449034
0.0440597
-0.000100484
-0.00235219
0.00245267
-0.0814444
0.078438
0.00300637
-0.00303015
-0.00126244
-0.387501
0.391793
0.00751994
-0.0129374
-0.542175
0.547593
0.0187661
-0.0253816
-0.667578
0.674194
0.0334025
-0.0408405
-0.783222
0.79066
0.0490264
-0.0563942
-0.904657
0.912025
0.0639895
-0.0708136
-1.04351
1.05034
0.0778553
-0.0835939
-1.20158
1.20732
0.0886812
-0.0921067
-1.38027
1.38369
0.0943074
-0.0942626
-1.58171
1.58167
0.0918404
-0.0873896
-1.51764
1.51319
0.0817071
-0.0743979
-1.22727
1.21996
0.0665112
-0.0571329
-1.00292
0.993542
0.0477077
-0.0366717
-0.823566
0.81253
0.0266671
-0.016423
-0.661401
0.651157
0.00821529
-0.000557568
-0.487947
0.480289
-0.00411668
0.0064446
-0.301892
0.299564
-0.00665894
0.00551255
-0.141759
0.142905
-0.00386707
0.0019661
-0.0425302
0.0444312
-0.000643185
-0.00219599
0.00283917
-0.0799137
0.0770586
0.00285511
-0.00625736
0.00446007
-0.399761
0.401558
-0.000875665
-0.00307994
-0.555879
0.559835
0.00802527
-0.0134409
-0.681562
0.686977
0.0201283
-0.0264165
-0.797538
0.803827
0.0333835
-0.0397327
-0.918899
0.925248
0.0467185
-0.052644
-1.05679
1.06272
0.0589948
-0.0637777
-1.21275
1.21753
0.0683723
-0.0714143
-1.38701
1.39005
0.0730736
-0.0723713
-1.58124
1.58054
0.0696932
-0.0650061
-1.50811
1.50343
0.0591331
-0.0513344
-1.21221
1.20442
0.043431
-0.0341776
-0.983545
0.974291
0.0249818
-0.0149069
-0.800878
0.790803
0.00579041
0.00272213
-0.638739
0.630227
-0.00874698
0.0132833
-0.470944
0.466407
-0.0149928
0.0141951
-0.293969
0.294767
-0.0120236
0.00876948
-0.142203
0.145457
-0.00579628
0.00276487
-0.045359
0.0483904
-0.000850006
-0.00304119
0.0038912
-0.0782354
0.0757928
0.00244261
-0.00694848
0.00657133
-0.407739
0.408116
-0.00401449
0.00130445
-0.566734
0.569444
0.00261692
-0.00744794
-0.692965
0.697796
0.0129378
-0.0184021
-0.809481
0.814945
0.0244232
-0.0299796
-0.931201
0.936758
0.0360697
-0.0414626
-1.06856
1.07396
0.0470066
-0.0515388
-1.22225
1.22678
0.0556242
-0.0582444
-1.39277
1.39539
0.0594902
-0.058462
-1.57962
1.5786
0.0555412
-0.0505164
-1.49796
1.49293
0.0446539
-0.0372036
-1.19648
1.18903
0.0297167
-0.0210221
-0.964715
0.956021
0.0128664
-0.0040532
-0.780379
0.771566
-0.00346883
0.0103618
-0.620272
0.613379
-0.0148853
0.0177772
-0.459499
0.456607
-0.0184911
0.0166464
-0.291566
0.29341
-0.0135169
0.00973565
-0.14664
0.150422
-0.00633601
0.00296367
-0.0503371
0.0537094
-0.000912742
-0.00434117
0.00525391
-0.0768167
0.0747802
0.00203648
-0.00647463
0.00642557
-0.413141
0.41319
-0.00509341
0.00287547
-0.574896
0.577114
0.000895767
-0.00498307
-0.702433
0.706521
0.00966215
-0.0143836
-0.819683
0.824405
0.0197477
-0.0247585
-0.942021
0.947032
0.0304063
-0.0352256
-1.07912
1.08394
0.0403173
-0.0444812
-1.23107
1.23523
0.04815
-0.0504348
-1.39775
1.40003
0.0513599
-0.0504933
-1.57742
1.57656
0.0474734
-0.0426979
-1.48743
1.48265
0.0371
-0.0301618
-1.18147
1.17453
0.023592
-0.0157917
-0.947401
0.939601
0.00871594
-0.00138792
-0.762788
0.75546
-0.0047983
0.0103981
-0.60541
0.59981
-0.0141021
0.0165612
-0.451146
0.448687
-0.0168692
0.0151389
-0.29149
0.29322
-0.0123967
0.00886359
-0.152064
0.155597
-0.00569301
0.00268448
-0.0556528
0.0586613
-0.000834548
-0.00570137
0.00653591
-0.0758432
0.0742973
0.00154584
-0.00533209
0.00545765
-0.417221
0.417096
-0.00434011
0.00268739
-0.582085
0.583738
0.000900412
-0.0046081
-0.710579
0.714287
0.00908218
-0.0131533
-0.828798
0.832869
0.017896
-0.022385
-0.952063
0.956552
0.027795
-0.0322333
-1.08882
1.09326
0.036831
-0.0407979
-1.23923
1.2432
0.044583
-0.0466727
-1.40232
1.40441
0.0476052
-0.046673
-1.57527
1.57434
0.044096
-0.0394004
-1.47767
1.47298
0.034405
-0.0282789
-1.16755
1.16143
0.0223446
-0.0157187
-0.932064
0.925438
0.00959113
-0.00317355
-0.748002
0.741584
-0.00186724
0.0066957
-0.593185
0.588356
-0.00996017
0.0118635
-0.44393
0.442026
-0.0123385
0.0113571
-0.291751
0.292733
-0.00929553
0.00657059
-0.15671
0.159435
-0.00419787
0.00199845
-0.0600504
0.0622498
-0.000638343
-0.00683556
0.00747391
-0.0754385
0.0742565
0.00118197
-0.00408931
0.00419975
-0.420588
0.420478
-0.00300331
0.00131385
-0.588461
0.590151
0.00208755
-0.00540971
-0.717966
0.721289
0.00926497
-0.0132424
-0.836961
0.840938
0.0176668
-0.0223233
-0.9609
0.965556
0.0270368
-0.0312987
-1.09782
1.10208
0.0360105
-0.0397121
-1.24706
1.25076
0.0429856
-0.0454398
-1.40639
1.40885
0.0465157
-0.0458675
-1.57344
1.57279
0.0435138
-0.0395193
-1.46849
1.4645
0.0350376
-0.0295391
-1.1551
1.1496
0.0243381
-0.0184886
-0.918846
0.912996
0.0131545
-0.00772029
-0.735269
0.729835
0.003013
0.00131952
-0.582648
0.578315
-0.00422172
0.00627936
-0.437825
0.435767
-0.00694573
0.00639991
-0.291103
0.291648
-0.00526422
0.0036474
-0.159605
0.161222
-0.00230549
0.00110981
-0.0628403
0.064036
-0.000383395
-0.00759038
0.00797377
-0.0755933
0.0746263
0.000967011
-0.00273087
0.00252649
-0.423804
0.424009
-0.00141897
-0.000371621
-0.594457
0.596248
0.00361057
-0.00691376
-0.724933
0.728236
0.0106892
-0.0143356
-0.844781
0.848427
0.0189244
-0.0228318
-0.96969
0.973597
0.027523
-0.0316011
-1.10651
1.11059
0.036176
-0.0400357
-1.25444
1.2583
0.0435486
-0.0457551
-1.41105
1.41326
0.0471451
-0.046899
-1.57206
1.57182
0.0452169
-0.0416234
-1.46041
1.45682
0.0376963
-0.0327695
-1.14426
1.13933
0.0281433
-0.0228481
-0.907023
0.901728
0.0181781
-0.0132235
-0.7242
0.719245
0.00901655
-0.00499701
-0.573356
0.569336
0.00201783
8.27266e-05
-0.431801
0.429701
-0.00115992
0.00134572
-0.289341
0.289155
-0.00129052
0.000942415
-0.16038
0.160728
-0.00064621
0.00040414
-0.0637445
0.0639866
-0.000181817
-0.00787404
0.00805586
-0.0760444
0.0753915
0.000652948
-0.00157184
0.000966
-0.42729
0.427896
-3.91882e-05
-0.00223086
-0.599759
0.602029
0.00520254
-0.00844959
-0.731589
0.734836
0.0121394
-0.0159791
-0.852012
0.855852
0.0200155
-0.0241059
-0.97775
0.981841
0.0287664
-0.0326303
-1.1151
1.11897
0.037271
-0.0410574
-1.26196
1.26575
0.0445948
-0.0472989
-1.41586
1.41857
0.0491582
-0.0492019
-1.57161
1.57165
0.047796
-0.0449581
-1.4534
1.45056
0.0416266
-0.0371428
-1.1343
1.12982
0.0328519
-0.0281938
-0.896391
0.891733
0.0235721
-0.0191374
-0.714026
0.709591
0.0152186
-0.0112993
-0.564918
0.560999
0.00842318
-0.00593521
-0.425689
0.423201
0.00437177
-0.00318786
-0.286339
0.285155
0.00230276
-0.00141217
-0.158968
0.158078
0.000646047
-9.42051e-05
-0.0628856
0.0623338
-7.48076e-05
-0.00767524
0.00775005
-0.0769018
0.0764085
0.000493286
-0.000625658
0.000129117
-0.431102
0.431598
0.00170473
-0.00376614
-0.605515
0.607576
0.00693073
-0.0101215
-0.737906
0.741097
0.0137368
-0.0172464
-0.859439
0.862948
0.0214529
-0.0252581
-0.985974
0.989779
0.0298747
-0.0341601
-1.12329
1.12758
0.038427
-0.0425156
-1.26958
1.27367
0.0464454
-0.0492267
-1.42117
1.42395
0.0514508
-0.052274
-1.57191
1.57273
0.0513304
-0.0491373
-1.4476
1.44541
0.0460414
-0.0420359
-1.12536
1.12135
0.0381694
-0.0337037
-0.886673
0.882207
0.0294753
-0.0251766
-0.704628
0.700329
0.0213822
-0.0174075
-0.556561
0.552586
0.0142608
-0.0114242
-0.419194
0.416357
0.00910858
-0.00705485
-0.281681
0.279628
0.00522868
-0.00333395
-0.155419
0.153525
0.0018173
-0.000631268
-0.0605621
0.0593761
9.16508e-05
-0.00719529
0.00710364
-0.0780172
0.0777127
0.000304484
0.00043899
-0.0012732
-0.435013
0.435847
0.00289784
-0.0052813
-0.610932
0.613315
0.00843439
-0.0115297
-0.744131
0.747226
0.0152878
-0.0187024
-0.866499
0.869913
0.0227963
-0.026742
-0.99409
0.998036
0.0312704
-0.0355153
-1.13173
1.13597
0.0399856
-0.0440842
-1.27768
1.28178
0.0481821
-0.0516935
-1.42702
1.43053
0.0543555
-0.0554803
-1.57349
1.57462
0.0552314
-0.0533718
-1.4431
1.44124
0.0508301
-0.047341
-1.11726
1.11377
0.0435295
-0.03927
-0.877438
0.873179
0.0352033
-0.0308564
-0.695609
0.691262
0.0271531
-0.0230407
-0.548366