0.490941 	1.40472 	0.00586363 	3.00063 	-4.31695e-20
0.561075 	1.40472 	0.00586363 	3.00063 	-4.31695e-20
0.63121 	1.40472 	0.00586363 	3.00063 	-4.31695e-20
0.701344 	1.40472 	0.00586363 	3.00063 	-4.31695e-20
0.771478 	1.40472 	0.00586363 	3.00063 	-4.31695e-20
0.841613 	1.40472 	0.00586363 	3.00063 	-4.31695e-20
0.911747 	1.40472 	0.00586363 	3.00063 	-4.31695e-20
0.981881 	1.40472 	0.00586363 	3.00063 	-4.31695e-20
1.05202 	1.40472 	0.00586363 	3.00063 	-4.31695e-20
1.12215 	1.40472 	0.00586363 	3.00063 	-4.31695e-20
1.19228 	1.40472 	0.00586363 	3.00063 	-4.31695e-20
1.26242 	1.40472 	0.00586363 	3.00063 	-4.31695e-20
1.33255 	1.3651 	0.0138017 	3.01486 	-4.35401e-20
1.40269 	1.3651 	0.0138017 	3.01486 	-4.35401e-20
1.47282 	1.3651 	0.0138017 	3.01486 	-4.35401e-20
1.54296 	1.3651 	0.0138017 	3.01486 	-4.35401e-20
1.61309 	1.3651 	0.0138017 	3.01486 	-4.35401e-20
1.68323 	1.3651 	0.0138017 	3.01486 	-4.35401e-20
1.75336 	1.3651 	0.0138017 	3.01486 	-4.35401e-20
1.82349 	1.3651 	0.0138017 	3.01486 	-4.35401e-20
1.89363 	1.3651 	0.0138017 	3.01486 	-4.35401e-20
1.96376 	1.3651 	0.0138017 	3.01486 	-4.35401e-20
2.0339 	1.3651 	0.0138017 	3.01486 	-4.35401e-20
2.10403 	1.3651 	0.0138017 	3.01486 	-4.35401e-20
2.17417 	1.30445 	0.014497 	3.03144 	9.16728e-20
2.2443 	1.30445 	0.014497 	3.03144 	9.16728e-20
2.31443 	1.30445 	0.014497 	3.03144 	9.16728e-20
2.38457 	1.30445 	0.014497 	3.03144 	9.16728e-20
2.4547 	1.30445 	0.014497 	3.03144 	9.16728e-20
2.52484 	1.30445 	0.014497 	3.03144 	9.16728e-20
2.59497 	1.30445 	0.014497 	3.03144 	9.16728e-20
2.66511 	1.30445 	0.014497 	3.03144 	9.16728e-20
2.73524 	1.30445 	0.014497 	3.03144 	9.16728e-20
2.80538 	1.30445 	0.014497 	3.03144 	9.16728e-20
2.87551 	1.30445 	0.014497 	3.03144 	9.16728e-20
2.94564 	1.30445 	0.014497 	3.03144 	9.16728e-20
3.01578 	1.23072 	0.0163172 	3.05926 	-1.04624e-20
3.08591 	1.23072 	0.0163172 	3.05926 	-1.04624e-20
3.15605 	1.23072 	0.0163172 	3.05926 	-1.04624e-20
3.22618 	1.23072 	0.0163172 	3.05926 	-1.04624e-20
3.29632 	1.23072 	0.0163172 	3.05926 	-1.04624e-20
3.36645 	1.23072 	0.0163172 	3.05926 	-1.04624e-20
3.43659 	1.23072 	0.0163172 	3.05926 	-1.04624e-20
3.50672 	1.23072 	0.0163172 	3.05926 	-1.04624e-20
3.57685 	1.23072 	0.0163172 	3.05926 	-1.04624e-20
3.64699 	1.23072 	0.0163172 	3.05926 	-1.04624e-20
3.71712 	1.23072 	0.0163172 	3.05926 	-1.04624e-20
3.78726 	1.22363 	0.00730004 	3.05491 	2.05199e-20
3.85739 	1.14484 	-0.00111764 	3.08467 	-1.4782e-19
3.92753 	1.14484 	-0.00111764 	3.08467 	-1.4782e-19
3.99766 	1.14484 	-0.00111764 	3.08467 	-1.4782e-19
4.06779 	1.14484 	-0.00111764 	3.08467 	-1.4782e-19
4.13793 	1.14484 	-0.00111764 	3.08467 	-1.4782e-19
4.20806 	1.14484 	-0.00111764 	3.08467 	-1.4782e-19
4.2782 	1.14484 	-0.00111764 	3.08467 	-1.4782e-19
4.34833 	1.14484 	-0.00111764 	3.08467 	-1.4782e-19
4.41847 	1.14484 	-0.00111764 	3.08467 	-1.4782e-19
4.4886 	1.14484 	-0.00111764 	3.08467 	-1.4782e-19
4.55874 	1.14484 	-0.00111764 	3.08467 	-1.4782e-19
4.62887 	1.14484 	-0.00111764 	3.08467 	-1.4782e-19
4.699 	1.14484 	-0.00111764 	3.08467 	-1.4782e-19
4.76914 	1.06583 	0.00625422 	3.1059 	2.85273e-19
4.83927 	1.06583 	0.00625422 	3.1059 	2.85273e-19
4.90941 	1.06583 	0.00625422 	3.1059 	2.85273e-19
4.97954 	1.06583 	0.00625422 	3.1059 	2.85273e-19
5.04968 	1.06583 	0.00625422 	3.1059 	2.85273e-19
5.11981 	1.06583 	0.00625422 	3.1059 	2.85273e-19
5.18994 	1.06583 	0.00625422 	3.1059 	2.85273e-19
5.26008 	1.06583 	0.00625422 	3.1059 	2.85273e-19
5.33021 	1.06583 	0.00625422 	3.1059 	2.85273e-19
5.40035 	1.06583 	0.00625422 	3.1059 	2.85273e-19
5.47048 	1.06583 	0.00625422 	3.1059 	2.85273e-19
5.54062 	1.06583 	0.00625422 	3.1059 	2.85273e-19
5.61075 	0.991018 	-0.00243293 	3.13429 	-1.37224e-19
5.68089 	0.991018 	-0.00243293 	3.13429 	-1.37224e-19
5.75102 	0.991018 	-0.00243293 	3.13429 	-1.37224e-19
5.82115 	0.991018 	-0.00243293 	3.13429 	-1.37224e-19
5.89129 	0.991018 	-0.00243293 	3.13429 	-1.37224e-19
5.96142 	0.991018 	-0.00243293 	3.13429 	-1.37224e-19
6.03156 	0.991018 	-0.00243293 	3.13429 	-1.37224e-19
6.10169 	0.991018 	-0.00243293 	3.13429 	-1.37224e-19
6.17183 	0.991018 	-0.00243293 	3.13429 	-1.37224e-19
6.24196 	0.991018 	-0.00243293 	3.13429 	-1.37224e-19
6.3121 	0.991018 	-0.00243293 	3.13429 	-1.37224e-19
6.38223 	0.991018 	-0.00243293 	3.13429 	-1.37224e-19
6.45236 	0.919613 	0.00591378 	3.15255 	0
6.5225 	0.919613 	0.00591378 	3.15255 	0
6.59263 	0.919613 	0.00591378 	3.15255 	0
6.66277 	0.919613 	0.00591378 	3.15255 	0
6.7329 	0.919613 	0.00591378 	3.15255 	0
6.80304 	0.919613 	0.00591378 	3.15255 	0
6.87317 	0.919613 	0.00591378 	3.15255 	0
6.9433 	0.919613 	0.00591378 	3.15255 	0
7.01344 	0.919613 	0.00591378 	3.15255 	0
7.08357 	0.919613 	0.00591378 	3.15255 	0
7.15371 	0.919613 	0.00591378 	3.15255 	0
7.22384 	0.919613 	0.00591378 	3.15255 	0
7.29398 	0.851579 	-0.000563092 	3.17861 	0
7.36411 	0.851579 	-0.000563092 	3.17861 	0
7.43425 	0.851579 	-0.000563092 	3.17861 	0
7.50438 	0.851579 	-0.000563092 	3.17861 	0
7.57451 	0.851579 	-0.000563092 	3.17861 	0
7.64465 	0.851579 	-0.000563092 	3.17861 	0
7.71478 	0.851579 	-0.000563092 	3.17861 	0
7.78492 	0.851579 	-0.000563092 	3.17861 	0
7.85505 	0.851579 	-0.000563092 	3.17861 	0
7.92519 	0.851579 	-0.000563092 	3.17861 	0
7.99532 	0.851579 	-0.000563092 	3.17861 	0
8.06545 	0.851579 	-0.000563092 	3.17861 	0
8.13559 	0.851579 	-0.000563092 	3.17861 	0
8.20572 	0.784454 	0.00982556 	3.19518 	3.91868e-22
8.27586 	0.784454 	0.00982556 	3.19518 	3.91868e-22
8.34599 	0.784454 	0.00982556 	3.19518 	3.91868e-22
8.41613 	0.784454 	0.00982556 	3.19518 	3.91868e-22
8.48626 	0.784454 	0.00982556 	3.19518 	3.91868e-22
8.5564 	0.784454 	0.00982556 	3.19518 	3.91868e-22
8.62653 	0.784454 	0.00982556 	3.19518 	3.91868e-22
8.69666 	0.784454 	0.00982556 	3.19518 	3.91868e-22
8.7668 	0.784454 	0.00982556 	3.19518 	3.91868e-22
8.83693 	0.784454 	0.00982556 	3.19518 	3.91868e-22
8.90707 	0.784454 	0.00982556 	3.19518 	3.91868e-22
8.9772 	0.784454 	0.00982556 	3.19518 	3.91868e-22
9.04734 	0.718151 	0.00610063 	3.22053 	1.82695e-19
9.11747 	0.718151 	0.00610063 	3.22053 	1.82695e-19
9.18761 	0.718151 	0.00610063 	3.22053 	1.82695e-19
9.25774 	0.718151 	0.00610063 	3.22053 	1.82695e-19
9.32787 	0.718151 	0.00610063 	3.22053 	1.82695e-19
9.39801 	0.718151 	0.00610063 	3.22053 	1.82695e-19
9.46814 	0.718151 	0.00610063 	3.22053 	1.82695e-19
9.53828 	0.718151 	0.00610063 	3.22053 	1.82695e-19
9.60841 	0.718151 	0.00610063 	3.22053 	1.82695e-19
9.67855 	0.718151 	0.00610063 	3.22053 	1.82695e-19
9.74868 	0.718151 	0.00610063 	3.22053 	1.82695e-19
9.81881 	0.718151 	0.00610063 	3.22053 	1.82695e-19
9.88895 	0.718151 	0.00610063 	3.22053 	1.82695e-19
9.95908 	0.650494 	0.0231965 	3.23696 	-7.91603e-21
10.0292 	0.650494 	0.0231965 	3.23696 	-7.91603e-21
10.0994 	0.650494 	0.0231965 	3.23696 	-7.91603e-21
10.1695 	0.650494 	0.0231965 	3.23696 	-7.91603e-21
10.2396 	0.650494 	0.0231965 	3.23696 	-7.91603e-21
10.3098 	0.650494 	0.0231965 	3.23696 	-7.91603e-21
10.3799 	0.650494 	0.0231965 	3.23696 	-7.91603e-21
10.45 	0.650494 	0.0231965 	3.23696 	-7.91603e-21
10.5202 	0.650494 	0.0231965 	3.23696 	-7.91603e-21
10.5903 	0.650494 	0.0231965 	3.23696 	-7.91603e-21
10.6604 	0.650494 	0.0231965 	3.23696 	-7.91603e-21
10.7306 	0.650494 	0.0231965 	3.23696 	-7.91603e-21
10.8007 	0.580542 	0.0318018 	3.26328 	-1.72562e-19
10.8708 	0.580542 	0.0318018 	3.26328 	-1.72562e-19
10.941 	0.580542 	0.0318018 	3.26328 	-1.72562e-19
11.0111 	0.580542 	0.0318018 	3.26328 	-1.72562e-19
11.0812 	0.580542 	0.0318018 	3.26328 	-1.72562e-19
11.1514 	0.580542 	0.0318018 	3.26328 	-1.72562e-19
11.2215 	0.580542 	0.0318018 	3.26328 	-1.72562e-19
11.2916 	0.580542 	0.0318018 	3.26328 	-1.72562e-19
11.3618 	0.580542 	0.0318018 	3.26328 	-1.72562e-19
11.4319 	0.580542 	0.0318018 	3.26328 	-1.72562e-19
11.502 	0.580542 	0.0318018 	3.26328 	-1.72562e-19
11.5722 	0.580542 	0.0318018 	3.26328 	-1.72562e-19
11.6423 	0.580542 	0.0318018 	3.26328 	-1.72562e-19
11.7124 	0.501869 	0.0689253 	3.28338 	-2.33952e-19
11.7826 	0.501869 	0.0689253 	3.28338 	-2.33952e-19
11.8527 	0.501869 	0.0689253 	3.28338 	-2.33952e-19
11.9228 	0.501869 	0.0689253 	3.28338 	-2.33952e-19
11.993 	0.501869 	0.0689253 	3.28338 	-2.33952e-19
12.0631 	0.501869 	0.0689253 	3.28338 	-2.33952e-19
12.1332 	0.501869 	0.0689253 	3.28338 	-2.33952e-19
12.2034 	0.501869 	0.0689253 	3.28338 	-2.33952e-19
12.2735 	0.501869 	0.0689253 	3.28338 	-2.33952e-19
12.3437 	0.501869 	0.0689253 	3.28338 	-2.33952e-19
12.4138 	0.501869 	0.0689253 	3.28338 	-2.33952e-19
12.4839 	0.501869 	0.0689253 	3.28338 	-2.33952e-19
12.5541 	0.501869 	0.0689253 	3.28338 	-2.33952e-19
12.6242 	0.407664 	0.0996523 	3.31433 	4.2136e-19
12.6943 	0.407664 	0.0996523 	3.31433 	4.2136e-19
12.7645 	0.407664 	0.0996523 	3.31433 	4.2136e-19
12.8346 	0.407664 	0.0996523 	3.31433 	4.2136e-19
12.9047 	0.407664 	0.0996523 	3.31433 	4.2136e-19
12.9749 	0.407664 	0.0996523 	3.31433 	4.2136e-19
13.045 	0.407664 	0.0996523 	3.31433 	4.2136e-19
13.1151 	0.407664 	0.0996523 	3.31433 	4.2136e-19
13.1853 	0.407664 	0.0996523 	3.31433 	4.2136e-19
13.2554 	0.407664 	0.0996523 	3.31433 	4.2136e-19
13.3255 	0.407664 	0.0996523 	3.31433 	4.2136e-19
13.3957 	0.407664 	0.0996523 	3.31433 	4.2136e-19
13.4658 	0.407664 	0.0996523 	3.31433 	4.2136e-19
13.5359 	0.277556 	0.187043 	3.35429 	-1.85524e-19
13.6061 	0.277556 	0.187043 	3.35429 	-1.85524e-19
13.6762 	0.277556 	0.187043 	3.35429 	-1.85524e-19
13.7463 	0.277556 	0.187043 	3.35429 	-1.85524e-19
13.8165 	0.277556 	0.187043 	3.35429 	-1.85524e-19
13.8866 	0.277556 	0.187043 	3.35429 	-1.85524e-19
13.9567 	0.277556 	0.187043 	3.35429 	-1.85524e-19
14.0269 	0.277556 	0.187043 	3.35429 	-1.85524e-19
14.097 	0.277556 	0.187043 	3.35429 	-1.85524e-19
14.1671 	0.277556 	0.187043 	3.35429 	-1.85524e-19
14.2373 	0.277556 	0.187043 	3.35429 	-1.85524e-19
14.3074 	0.277556 	0.187043 	3.35429 	-1.85524e-19
14.3776 	0.150371 	0.214978 	3.38355 	0
14.4477 	-0.0795236 	0.211497 	3.44873 	-6.73141e-20
14.5178 	-0.0795236 	0.211497 	3.44873 	-6.73141e-20
14.588 	-0.0795236 	0.211497 	3.44873 	-6.73141e-20
14.6581 	-0.0795236 	0.211497 	3.44873 	-6.73141e-20
14.7282 	-0.0795236 	0.211497 	3.44873 	-6.73141e-20
14.7984 	-0.0795236 	0.211497 	3.44873 	-6.73141e-20
14.8685 	-0.0573389 	0.239374 	3.44003 	1.31799e-19
14.9386 	-0.0573389 	0.239374 	3.44003 	1.31799e-19
15.0088 	-0.0573389 	0.239374 	3.44003 	1.31799e-19
15.0789 	-0.0573389 	0.239374 	3.44003 	1.31799e-19
15.149 	-0.0573389 	0.239374 	3.44003 	1.31799e-19
15.2192 	-0.325151 	0.311597 	3.51631 	-5.22001e-19
15.2893 	-0.325151 	0.311597 	3.51631 	-5.22001e-19
15.3594 	-0.325151 	0.311597 	3.51631 	-5.22001e-19
15.4296 	-0.190535 	0.394038 	3.47213 	2.34685e-19
15.4997 	-0.190535 	0.394038 	3.47213 	2.34685e-19
15.5698 	-0.190535 	0.394038 	3.47213 	2.34685e-19
15.64 	-0.190535 	0.394038 	3.47213 	2.34685e-19
15.7101 	-0.190535 	0.394038 	3.47213 	2.34685e-19
15.7802 	-0.190535 	0.394038 	3.47213 	2.34685e-19
15.8504 	-0.190535 	0.394038 	3.47213 	2.34685e-19
15.9205 	-0.49022 	0.394786 	3.56867 	1.12927e-19
15.9906 	-0.49022 	0.394786 	3.56867 	1.12927e-19
16.0608 	-0.49022 	0.394786 	3.56867 	1.12927e-19
16.1309 	-0.254126 	0.492373 	3.47714 	-8.84134e-20
16.201 	-0.254126 	0.492373 	3.47714 	-8.84134e-20
16.2712 	-0.254126 	0.492373 	3.47714 	-8.84134e-20
16.3413 	-0.254126 	0.492373 	3.47714 	-8.84134e-20
16.4114 	-0.254126 	0.492373 	3.47714 	-8.84134e-20
16.4816 	-0.254126 	0.492373 	3.47714 	-8.84134e-20
16.5517 	-0.254126 	0.492373 	3.47714 	-8.84134e-20
16.6219 	-0.482273 	0.602413 	3.56415 	0
16.692 	-0.482273 	0.602413 	3.56415 	0
16.7621 	-0.482273 	0.602413 	3.56415 	0
16.8323 	-0.482273 	0.602413 	3.56415 	0
16.9024 	-0.482273 	0.602413 	3.56415 	0
16.9725 	-0.205527 	0.609294 	3.44373 	-5.43855e-20
17.0427 	-0.205527 	0.609294 	3.44373 	-5.43855e-20
17.1128 	-0.205527 	0.609294 	3.44373 	-5.43855e-20
17.1829 	-0.205527 	0.609294 	3.44373 	-5.43855e-20
17.2531 	-0.393024 	0.712129 	3.52164 	-4.06877e-19
17.3232 	-0.393024 	0.712129 	3.52164 	-4.06877e-19
17.3933 	-0.393024 	0.712129 	3.52164 	-4.06877e-19
17.4635 	-0.393024 	0.712129 	3.52164 	-4.06877e-19
17.5336 	-0.393024 	0.712129 	3.52164 	-4.06877e-19
17.6037 	-0.393024 	0.712129 	3.52164 	-4.06877e-19
17.6739 	-0.393024 	0.712129 	3.52164 	-4.06877e-19
17.744 	-0.393024 	0.712129 	3.52164 	-4.06877e-19
17.8141 	-0.393024 	0.712129 	3.52164 	-4.06877e-19
17.8843 	-0.393024 	0.712129 	3.52164 	-4.06877e-19
17.9544 	-0.28533 	0.750914 	3.40991 	0
18.0245 	-0.28533 	0.750914 	3.40991 	0
18.0947 	-0.28533 	0.750914 	3.40991 	0
18.1648 	-0.28533 	0.750914 	3.40991 	0
18.2349 	-0.28533 	0.750914 	3.40991 	0
18.3051 	-0.28533 	0.750914 	3.40991 	0
18.3752 	-0.28533 	0.750914 	3.40991 	0
18.4453 	-0.28533 	0.750914 	3.40991 	0
18.5155 	-0.28533 	0.750914 	3.40991 	0
18.5856 	-0.413391 	0.84272 	3.46355 	0
18.6557 	-0.413391 	0.84272 	3.46355 	0
18.7259 	-0.413391 	0.84272 	3.46355 	0
18.796 	-0.413391 	0.84272 	3.46355 	0
18.8662 	-0.413391 	0.84272 	3.46355 	0
18.9363 	-0.413391 	0.84272 	3.46355 	0
19.0064 	-0.413391 	0.84272 	3.46355 	0
19.0766 	-0.413391 	0.84272 	3.46355 	0
19.1467 	-0.413391 	0.84272 	3.46355 	0
19.2168 	-0.493304 	0.937162 	3.47546 	2.63744e-19
19.287 	-0.190747 	0.844843 	3.12566 	1.21966e-19
19.3571 	-0.190747 	0.844843 	3.12566 	1.21966e-19
19.4272 	-0.190747 	0.844843 	3.12566 	1.21966e-19
19.4974 	-0.190747 	0.844843 	3.12566 	1.21966e-19
19.5675 	-0.190747 	0.844843 	3.12566 	1.21966e-19
19.6376 	-0.190747 	0.844843 	3.12566 	1.21966e-19
19.7078 	-0.190747 	0.844843 	3.12566 	1.21966e-19
19.7779 	-0.190747 	0.844843 	3.12566 	1.21966e-19
19.848 	-0.190747 	0.844843 	3.12566 	1.21966e-19
19.9182 	-0.251357 	0.917959 	3.22767 	2.41072e-19
19.9883 	-0.251357 	0.917959 	3.22767 	2.41072e-19
20.0584 	-0.251357 	0.917959 	3.22767 	2.41072e-19
20.1286 	-0.251357 	0.917959 	3.22767 	2.41072e-19
20.1987 	-0.251357 	0.917959 	3.22767 	2.41072e-19
20.2688 	-0.251357 	0.917959 	3.22767 	2.41072e-19
20.339 	-0.251357 	0.917959 	3.22767 	2.41072e-19
20.4091 	-0.251357 	0.917959 	3.22767 	2.41072e-19
20.4792 	-0.251357 	0.917959 	3.22767 	2.41072e-19
20.5494 	-0.251357 	0.917959 	3.22767 	2.41072e-19
20.6195 	-0.321507 	1.00332 	3.29647 	1.87745e-19
20.6896 	-0.321507 	1.00332 	3.29647 	1.87745e-19
20.7598 	-0.321507 	1.00332 	3.29647 	1.87745e-19
20.8299 	-0.321507 	1.00332 	3.29647 	1.87745e-19
20.9 	-0.171382 	0.84229 	2.45569 	1.46666e-19
20.9702 	-0.171382 	0.84229 	2.45569 	1.46666e-19
21.0403 	-0.171382 	0.84229 	2.45569 	1.46666e-19
21.1105 	-0.171382 	0.84229 	2.45569 	1.46666e-19
21.1806 	-0.171382 	0.84229 	2.45569 	1.46666e-19
21.2507 	-0.171382 	0.84229 	2.45569 	1.46666e-19
21.3209 	-0.232628 	0.913295 	2.64592 	0
21.391 	-0.232628 	0.913295 	2.64592 	0
21.4611 	-0.232628 	0.913295 	2.64592 	0
21.5313 	-0.232628 	0.913295 	2.64592 	0
21.6014 	-0.232628 	0.913295 	2.64592 	0
21.6715 	-0.232628 	0.913295 	2.64592 	0
21.7417 	-0.232628 	0.913295 	2.64592 	0
21.8118 	-0.232628 	0.913295 	2.64592 	0
21.8819 	-0.232628 	0.913295 	2.64592 	0
21.9521 	-0.232628 	0.913295 	2.64592 	0
22.0222 	-0.232628 	0.913295 	2.64592 	0
22.0923 	-0.283474 	0.992347 	2.79583 	1.94195e-19
22.1625 	-0.283474 	0.992347 	2.79583 	1.94195e-19
22.2326 	-0.283474 	0.992347 	2.79583 	1.94195e-19
22.3027 	-0.283474 	0.992347 	2.79583 	1.94195e-19
22.3729 	-0.283474 	0.992347 	2.79583 	1.94195e-19
22.443 	-0.283474 	0.992347 	2.79583 	1.94195e-19
22.5131 	-0.283474 	0.992347 	2.79583 	1.94195e-19
22.5833 	-0.283474 	0.992347 	2.79583 	1.94195e-19
22.6534 	-0.283474 	0.992347 	2.79583 	1.94195e-19
22.7235 	-0.283474 	0.992347 	2.79583 	1.94195e-19
22.7937 	-0.283474 	0.992347 	2.79583 	1.94195e-19
22.8638 	-0.338406 	1.08326 	2.88582 	-5.35788e-19
22.9339 	-0.338406 	1.08326 	2.88582 	-5.35788e-19
23.0041 	-0.338406 	1.08326 	2.88582 	-5.35788e-19
23.0742 	-0.204185 	0.759842 	1.81517 	-4.60932e-20
23.1443 	-0.204185 	0.759842 	1.81517 	-4.60932e-20
23.2145 	-0.204185 	0.759842 	1.81517 	-4.60932e-20
23.2846 	-0.204185 	0.759842 	1.81517 	-4.60932e-20
23.3548 	-0.204185 	0.759842 	1.81517 	-4.60932e-20
23.4249 	-0.204185 	0.759842 	1.81517 	-4.60932e-20
23.495 	-0.204185 	0.759842 	1.81517 	-4.60932e-20
23.5652 	-0.204185 	0.759842 	1.81517 	-4.60932e-20
23.6353 	-0.204185 	0.759842 	1.81517 	-4.60932e-20
23.7054 	-0.226705 	0.789279 	1.90377 	8.45548e-21
23.7756 	-0.226705 	0.789279 	1.90377 	8.45548e-21
23.8457 	-0.226705 	0.789279 	1.90377 	8.45548e-21
23.9158 	-0.226705 	0.789279 	1.90377 	8.45548e-21
23.986 	-0.226705 	0.789279 	1.90377 	8.45548e-21
24.0561 	-0.226705 	0.789279 	1.90377 	8.45548e-21
24.1262 	-0.226705 	0.789279 	1.90377 	8.45548e-21
24.1964 	-0.226705 	0.789279 	1.90377 	8.45548e-21
24.2665 	-0.226705 	0.789279 	1.90377 	8.45548e-21
24.3366 	-0.226705 	0.789279 	1.90377 	8.45548e-21
24.4068 	-0.226705 	0.789279 	1.90377 	8.45548e-21
24.4769 	-0.226705 	0.789279 	1.90377 	8.45548e-21
24.547 	-0.226705 	0.789279 	1.90377 	8.45548e-21
24.6172 	-0.229053 	0.832865 	1.93136 	-3.32221e-19
24.6873 	-0.229053 	0.832865 	1.93136 	-3.32221e-19
24.7574 	-0.229053 	0.832865 	1.93136 	-3.32221e-19
24.8276 	-0.229053 	0.832865 	1.93136 	-3.32221e-19
24.8977 	-0.229053 	0.832865 	1.93136 	-3.32221e-19
24.9678 	-0.229053 	0.832865 	1.93136 	-3.32221e-19
25.038 	-0.229053 	0.832865 	1.93136 	-3.32221e-19
25.1081 	-0.229053 	0.832865 	1.93136 	-3.32221e-19
25.1782 	-0.229053 	0.832865 	1.93136 	-3.32221e-19
25.2484 	-0.229053 	0.832865 	1.93136 	-3.32221e-19
25.3185 	-0.229053 	0.832865 	1.93136 	-3.32221e-19
25.3886 	-0.229053 	0.832865 	1.93136 	-3.32221e-19
25.4588 	-0.238222 	0.860148 	1.95133 	3.32858e-19
25.5289 	-0.238222 	0.860148 	1.95133 	3.32858e-19
25.5991 	-0.238222 	0.860148 	1.95133 	3.32858e-19
25.6692 	-0.238222 	0.860148 	1.95133 	3.32858e-19
25.7393 	-0.238222 	0.860148 	1.95133 	3.32858e-19
25.8095 	-0.238222 	0.860148 	1.95133 	3.32858e-19
25.8796 	-0.238222 	0.860148 	1.95133 	3.32858e-19
25.9497 	-0.238222 	0.860148 	1.95133 	3.32858e-19
26.0199 	-0.238222 	0.860148 	1.95133 	3.32858e-19
26.09 	-0.296181 	0.654907 	1.49994 	8.48881e-20
26.1601 	-0.296181 	0.654907 	1.49994 	8.48881e-20
26.2303 	-0.296181 	0.654907 	1.49994 	8.48881e-20
26.3004 	-0.296181 	0.654907 	1.49994 	8.48881e-20
26.3705 	-0.296181 	0.654907 	1.49994 	8.48881e-20
26.4407 	-0.316777 	0.769089 	1.49146 	-8.7324e-20
26.5108 	-0.316777 	0.769089 	1.49146 	-8.7324e-20
26.5809 	-0.316777 	0.769089 	1.49146 	-8.7324e-20
26.6511 	-0.316777 	0.769089 	1.49146 	-8.7324e-20
26.7212 	-0.316777 	0.769089 	1.49146 	-8.7324e-20
26.7913 	-0.316777 	0.769089 	1.49146 	-8.7324e-20
26.8615 	-0.316777 	0.769089 	1.49146 	-8.7324e-20
26.9316 	-0.316777 	0.769089 	1.49146 	-8.7324e-20
27.0017 	-0.316777 	0.769089 	1.49146 	-8.7324e-20
27.0719 	-0.316777 	0.769089 	1.49146 	-8.7324e-20
27.142 	-0.316777 	0.769089 	1.49146 	-8.7324e-20
27.2121 	-0.316777 	0.769089 	1.49146 	-8.7324e-20
27.2823 	-0.316777 	0.769089 	1.49146 	-8.7324e-20
27.3524 	-0.328352 	0.92936 	1.47632 	0
27.4225 	-0.328352 	0.92936 	1.47632 	0
27.4927 	-0.328352 	0.92936 	1.47632 	0
27.5628 	-0.328352 	0.92936 	1.47632 	0
27.6329 	-0.328352 	0.92936 	1.47632 	0
27.7031 	-0.328352 	0.92936 	1.47632 	0
27.7732 	-0.328352 	0.92936 	1.47632 	0
27.8434 	-0.328352 	0.92936 	1.47632 	0
27.9135 	-0.328352 	0.92936 	1.47632 	0
27.9836 	-0.328352 	0.92936 	1.47632 	0
28.0538 	-0.328352 	0.92936 	1.47632 	0
28.1239 	-0.328352 	0.92936 	1.47632 	0
28.194 	-0.328352 	0.92936 	1.47632 	0
28.2642 	-0.328352 	0.92936 	1.47632 	0
28.3343 	-0.328352 	0.92936 	1.47632 	0
28.4044 	-0.376211 	1.02496 	1.45966 	0
28.4746 	-0.376211 	1.02496 	1.45966 	0
28.5447 	-0.376211 	1.02496 	1.45966 	0
28.6148 	-0.376211 	1.02496 	1.45966 	0
28.685 	-0.376211 	1.02496 	1.45966 	0
28.7551 	-0.376211 	1.02496 	1.45966 	0
28.8252 	-0.376211 	1.02496 	1.45966 	0
28.8954 	-0.376211 	1.02496 	1.45966 	0
28.9655 	-0.376211 	1.02496 	1.45966 	0
29.0356 	-0.376211 	1.02496 	1.45966 	0
29.1058 	-0.376211 	1.02496 	1.45966 	0
29.1759 	-0.376211 	1.02496 	1.45966 	0
29.246 	-0.376211 	1.02496 	1.45966 	0
29.3162 	-0.376211 	1.02496 	1.45966 	0
29.3863 	-0.376211 	1.02496 	1.45966 	0
29.4564 	-0.512149 	1.03486 	1.45129 	-2.54126e-19
29.5266 	-0.512149 	1.03486 	1.45129 	-2.54126e-19
29.5967 	-0.512149 	1.03486 	1.45129 	-2.54126e-19
29.6668 	-0.512149 	1.03486 	1.45129 	-2.54126e-19
29.737 	-0.512149 	1.03486 	1.45129 	-2.54126e-19
29.8071 	-0.512149 	1.03486 	1.45129 	-2.54126e-19
29.8773 	-0.512149 	1.03486 	1.45129 	-2.54126e-19
29.9474 	-0.512149 	1.03486 	1.45129 	-2.54126e-19
30.0175 	-0.512149 	1.03486 	1.45129 	-2.54126e-19
30.0877 	-0.512149 	1.03486 	1.45129 	-2.54126e-19
30.1578 	-0.512149 	1.03486 	1.45129 	-2.54126e-19
30.2279 	-0.512149 	1.03486 	1.45129 	-2.54126e-19
30.2981 	-0.512149 	1.03486 	1.45129 	-2.54126e-19
30.3682 	-0.512149 	1.03486 	1.45129 	-2.54126e-19
30.4383 	-0.512149 	1.03486 	1.45129 	-2.54126e-19
30.5085 	-0.512149 	1.03486 	1.45129 	-2.54126e-19
30.5786 	-0.741665 	0.966389 	1.44899 	-9.48389e-20
30.6487 	-0.741665 	0.966389 	1.44899 	-9.48389e-20
30.7189 	-0.741665 	0.966389 	1.44899 	-9.48389e-20
30.789 	-0.741665 	0.966389 	1.44899 	-9.48389e-20
30.8591 	-0.741665 	0.966389 	1.44899 	-9.48389e-20
30.9293 	-0.741665 	0.966389 	1.44899 	-9.48389e-20
30.9994 	-0.741665 	0.966389 	1.44899 	-9.48389e-20
31.0695 	-0.741665 	0.966389 	1.44899 	-9.48389e-20
31.1397 	-0.741665 	0.966389 	1.44899 	-9.48389e-20
31.2098 	-0.741665 	0.966389 	1.44899 	-9.48389e-20
31.2799 	-0.741665 	0.966389 	1.44899 	-9.48389e-20
31.3501 	-0.741665 	0.966389 	1.44899 	-9.48389e-20
31.4202 	-0.741665 	0.966389 	1.44899 	-9.48389e-20
31.4903 	-0.741665 	0.966389 	1.44899 	-9.48389e-20
31.5605 	-0.638916 	0.796204 	1.08149 	-4.37956e-19
31.6306 	-0.638916 	0.796204 	1.08149 	-4.37956e-19
31.7007 	-0.76341 	0.578074 	1.02864 	3.04588e-19
31.7709 	-0.76341 	0.578074 	1.02864 	3.04588e-19
31.841 	-0.76341 	0.578074 	1.02864 	3.04588e-19
31.9111 	-0.76341 	0.578074 	1.02864 	3.04588e-19
31.9813 	-0.76341 	0.578074 	1.02864 	3.04588e-19
32.0514 	-0.76341 	0.578074 	1.02864 	3.04588e-19
32.1216 	-0.76341 	0.578074 	1.02864 	3.04588e-19
32.1917 	-0.76341 	0.578074 	1.02864 	3.04588e-19
32.2618 	-0.76341 	0.578074 	1.02864 	3.04588e-19
32.332 	-0.76341 	0.578074 	1.02864 	3.04588e-19
32.4021 	-0.76341 	0.578074 	1.02864 	3.04588e-19
32.4722 	-0.76341 	0.578074 	1.02864 	3.04588e-19
32.5424 	-0.76341 	0.578074 	1.02864 	3.04588e-19
32.6125 	-0.76341 	0.578074 	1.02864 	3.04588e-19
32.6826 	-0.76341 	0.578074 	1.02864 	3.04588e-19
32.7528 	-0.76341 	0.578074 	1.02864 	3.04588e-19
32.8229 	-0.76341 	0.578074 	1.02864 	3.04588e-19
32.893 	-0.76341 	0.578074 	1.02864 	3.04588e-19
32.9632 	-0.742008 	0.229595 	1.07275 	4.51263e-20
33.0333 	-0.742008 	0.229595 	1.07275 	4.51263e-20
33.1034 	-0.742008 	0.229595 	1.07275 	4.51263e-20
33.1736 	-0.742008 	0.229595 	1.07275 	4.51263e-20
33.2437 	-0.742008 	0.229595 	1.07275 	4.51263e-20
33.3138 	-0.742008 	0.229595 	1.07275 	4.51263e-20
33.384 	-0.742008 	0.229595 	1.07275 	4.51263e-20
33.4541 	-0.742008 	0.229595 	1.07275 	4.51263e-20
33.5242 	-0.742008 	0.229595 	1.07275 	4.51263e-20
33.5944 	-0.742008 	0.229595 	1.07275 	4.51263e-20
33.6645 	-0.742008 	0.229595 	1.07275 	4.51263e-20
33.7346 	-0.742008 	0.229595 	1.07275 	4.51263e-20
33.8048 	-0.742008 	0.229595 	1.07275 	4.51263e-20
33.8749 	-0.742008 	0.229595 	1.07275 	4.51263e-20
33.945 	-0.742008 	0.229595 	1.07275 	4.51263e-20
34.0152 	-0.742008 	0.229595 	1.07275 	4.51263e-20
34.0853 	-0.742008 	0.229595 	1.07275 	4.51263e-20
34.1554 	-0.742008 	0.229595 	1.07275 	4.51263e-20
34.2256 	-0.676681 	-0.139028 	1.20157 	-7.2166e-20
34.2957 	-0.676681 	-0.139028 	1.20157 	-7.2166e-20
34.3659 	-0.676681 	-0.139028 	1.20157 	-7.2166e-20
34.436 	-0.676681 	-0.139028 	1.20157 	-7.2166e-20
34.5061 	-0.676681 	-0.139028 	1.20157 	-7.2166e-20
34.5763 	-0.676681 	-0.139028 	1.20157 	-7.2166e-20
34.6464 	-0.676681 	-0.139028 	1.20157 	-7.2166e-20
34.7165 	-0.676681 	-0.139028 	1.20157 	-7.2166e-20
34.7867 	-0.676681 	-0.139028 	1.20157 	-7.2166e-20
34.8568 	-0.676681 	-0.139028 	1.20157 	-7.2166e-20
34.9269 	-0.676681 	-0.139028 	1.20157 	-7.2166e-20
34.9971 	-0.676681 	-0.139028 	1.20157 	-7.2166e-20
35.0672 	-0.676681 	-0.139028 	1.20157 	-7.2166e-20
35.1373 	-0.676681 	-0.139028 	1.20157 	-7.2166e-20
35.2075 	-0.676681 	-0.139028 	1.20157 	-7.2166e-20
35.2776 	-0.676681 	-0.139028 	1.20157 	-7.2166e-20
35.3477 	-0.676681 	-0.139028 	1.20157 	-7.2166e-20
35.4179 	-0.676681 	-0.139028 	1.20157 	-7.2166e-20
35.488 	-0.676681 	-0.139028 	1.20157 	-7.2166e-20
35.5581 	-0.676681 	-0.139028 	1.20157 	-7.2166e-20
35.6283 	-0.474489 	-0.362493 	1.33425 	-8.87862e-21
35.6984 	-0.474489 	-0.362493 	1.33425 	-8.87862e-21
35.7685 	-0.474489 	-0.362493 	1.33425 	-8.87862e-21
35.8387 	-0.474489 	-0.362493 	1.33425 	-8.87862e-21
35.9088 	-0.474489 	-0.362493 	1.33425 	-8.87862e-21
35.9789 	-0.474489 	-0.362493 	1.33425 	-8.87862e-21
36.0491 	-0.474489 	-0.362493 	1.33425 	-8.87862e-21
36.1192 	-0.474489 	-0.362493 	1.33425 	-8.87862e-21
36.1893 	-0.474489 	-0.362493 	1.33425 	-8.87862e-21
36.2595 	-0.474489 	-0.362493 	1.33425 	-8.87862e-21
36.3296 	-0.474489 	-0.362493 	1.33425 	-8.87862e-21
36.3997 	-0.474489 	-0.362493 	1.33425 	-8.87862e-21
36.4699 	-0.474489 	-0.362493 	1.33425 	-8.87862e-21
36.54 	-0.474489 	-0.362493 	1.33425 	-8.87862e-21
36.6102 	-0.474489 	-0.362493 	1.33425 	-8.87862e-21
36.6803 	-0.474489 	-0.362493 	1.33425 	-8.87862e-21
36.7504 	-0.474489 	-0.362493 	1.33425 	-8.87862e-21
36.8206 	-0.474489 	-0.362493 	1.33425 	-8.87862e-21
36.8907 	-0.474489 	-0.362493 	1.33425 	-8.87862e-21
36.9608 	-0.474489 	-0.362493 	1.33425 	-8.87862e-21
37.031 	-0.474489 	-0.362493 	1.33425 	-8.87862e-21
37.1011 	-0.278418 	-0.422436 	1.45617 	0
37.1712 	-0.278418 	-0.422436 	1.45617 	0
37.2414 	-0.278418 	-0.422436 	1.45617 	0
37.3115 	-0.278418 	-0.422436 	1.45617 	0
37.3816 	-0.278418 	-0.422436 	1.45617 	0
37.4518 	-0.278418 	-0.422436 	1.45617 	0
37.5219 	-0.278418 	-0.422436 	1.45617 	0
37.592 	-0.278418 	-0.422436 	1.45617 	0
37.6622 	-0.278418 	-0.422436 	1.45617 	0
37.7323 	-0.278418 	-0.422436 	1.45617 	0
37.8024 	-0.278418 	-0.422436 	1.45617 	0
37.8726 	-0.278418 	-0.422436 	1.45617 	0
37.9427 	-0.278418 	-0.422436 	1.45617 	0
38.0128 	-0.278418 	-0.422436 	1.45617 	0
38.083 	-0.278418 	-0.422436 	1.45617 	0
38.1531 	-0.278418 	-0.422436 	1.45617 	0
38.2232 	-0.278418 	-0.422436 	1.45617 	0
38.2934 	-0.142169 	-0.401906 	1.57034 	0
38.3635 	-0.142169 	-0.401906 	1.57034 	0
38.4336 	-0.142169 	-0.401906 	1.57034 	0
38.5038 	-0.142169 	-0.401906 	1.57034 	0
38.5739 	-0.142169 	-0.401906 	1.57034 	0
38.644 	-0.142169 	-0.401906 	1.57034 	0
38.7142 	-0.142169 	-0.401906 	1.57034 	0
38.7843 	-0.142169 	-0.401906 	1.57034 	0
38.8545 	-0.142169 	-0.401906 	1.57034 	0
38.9246 	-0.142169 	-0.401906 	1.57034 	0
38.9947 	-0.142169 	-0.401906 	1.57034 	0
39.0649 	-0.142169 	-0.401906 	1.57034 	0
39.135 	-0.142169 	-0.401906 	1.57034 	0
39.2051 	-0.142169 	-0.401906 	1.57034 	0
39.2753 	-0.142169 	-0.401906 	1.57034 	0
39.3454 	-0.142169 	-0.401906 	1.57034 	0
39.4155 	-0.142169 	-0.401906 	1.57034 	0
39.4857 	-0.142169 	-0.401906 	1.57034 	0
39.5558 	-0.0479872 	-0.343714 	1.66588 	0
39.6259 	-0.0479872 	-0.343714 	1.66588 	0
39.6961 	-0.0479872 	-0.343714 	1.66588 	0
39.7662 	-0.0479872 	-0.343714 	1.66588 	0
39.8363 	-0.0479872 	-0.343714 	1.66588 	0
39.9065 	-0.0479872 	-0.343714 	1.66588 	0
39.9766 	-0.0479872 	-0.343714 	1.66588 	0
40.0467 	-0.0479872 	-0.343714 	1.66588 	0
40.1169 	-0.0479872 	-0.343714 	1.66588 	0
40.187 	-0.0479872 	-0.343714 	1.66588 	0
40.2571 	-0.0479872 	-0.343714 	1.66588 	0
40.3273 	-0.0479872 	-0.343714 	1.66588 	0
40.3974 	-0.0479872 	-0.343714 	1.66588 	0
40.4675 	-0.0479872 	-0.343714 	1.66588 	0
40.5377 	-0.0479872 	-0.343714 	1.66588 	0
40.6078 	-0.0479872 	-0.343714 	1.66588 	0
40.6779 	-0.0479872 	-0.343714 	1.66588 	0
40.7481 	-0.00164981 	-0.280256 	1.73069 	0
40.8182 	-0.00164981 	-0.280256 	1.73069 	0
40.8883 	-0.00164981 	-0.280256 	1.73069 	0
40.9585 	-0.00164981 	-0.280256 	1.73069 	0
41.0286 	-0.00164981 	-0.280256 	1.73069 	0
41.0988 	-0.00164981 	-0.280256 	1.73069 	0
41.1689 	-0.00164981 	-0.280256 	1.73069 	0
41.239 	-0.00164981 	-0.280256 	1.73069 	0
41.3092 	-0.00164981 	-0.280256 	1.73069 	0
41.3793 	-0.00164981 	-0.280256 	1.73069 	0
41.4494 	-0.00164981 	-0.280256 	1.73069 	0
41.5196 	-0.00164981 	-0.280256 	1.73069 	0
41.5897 	-0.00164981 	-0.280256 	1.73069 	0
41.6598 	-0.00164981 	-0.280256 	1.73069 	0
41.73 	-0.00164981 	-0.280256 	1.73069 	0
41.8001 	-0.00164981 	-0.280256 	1.73069 	0
41.8702 	-0.00164981 	-0.280256 	1.73069 	0
41.9404 	-0.00164981 	-0.280256 	1.73069 	0
42.0105 	0.0267479 	-0.223358 	1.76933 	0
42.0806 	0.0267479 	-0.223358 	1.76933 	0
42.1508 	0.0267479 	-0.223358 	1.76933 	0
42.2209 	0.0267479 	-0.223358 	1.76933 	0
42.291 	0.0267479 	-0.223358 	1.76933 	0
42.3612 	0.0267479 	-0.223358 	1.76933 	0
42.4313 	0.0267479 	-0.223358 	1.76933 	0
42.5014 	0.0267479 	-0.223358 	1.76933 	0
42.5716 	0.0267479 	-0.223358 	1.76933 	0
42.6417 	0.0267479 	-0.223358 	1.76933 	0
42.7118 	0.0267479 	-0.223358 	1.76933 	0
42.782 	0.0267479 	-0.223358 	1.76933 	0
42.8521 	0.0267479 	-0.223358 	1.76933 	0
42.9222 	0.0267479 	-0.223358 	1.76933 	0
42.9924 	0.0267479 	-0.223358 	1.76933 	0
43.0625 	0.0267479 	-0.223358 	1.76933 	0
43.1327 	0.0267479 	-0.223358 	1.76933 	0
43.2028 	0.0451942 	-0.175965 	1.79267 	0
43.2729 	0.0451942 	-0.175965 	1.79267 	0
43.3431 	0.0451942 	-0.175965 	1.79267 	0
43.4132 	0.0451942 	-0.175965 	1.79267 	0
43.4833 	0.0451942 	-0.175965 	1.79267 	0
43.5535 	0.0451942 	-0.175965 	1.79267 	0
43.6236 	0.0451942 	-0.175965 	1.79267 	0
43.6937 	0.0451942 	-0.175965 	1.79267 	0
43.7639 	0.0451942 	-0.175965 	1.79267 	0
43.834 	0.0451942 	-0.175965 	1.79267 	0