0.490941 	1.73879 	0.00550872 	3.00063 	-5.37094e-20
0.561075 	1.73879 	0.00550872 	3.00063 	-5.37094e-20
0.63121 	1.73879 	0.00550872 	3.00063 	-5.37094e-20
0.701344 	1.73879 	0.00550872 	3.00063 	-5.37094e-20
0.771478 	1.73879 	0.00550872 	3.00063 	-5.37094e-20
0.841613 	1.73879 	0.00550872 	3.00063 	-5.37094e-20
0.911747 	1.73879 	0.00550872 	3.00063 	-5.37094e-20
0.981881 	1.73879 	0.00550872 	3.00063 	-5.37094e-20
1.05202 	1.73879 	0.00550872 	3.00063 	-5.37094e-20
1.12215 	1.73879 	0.00550872 	3.00063 	-5.37094e-20
1.19228 	1.73879 	0.00550872 	3.00063 	-5.37094e-20
1.26242 	1.73879 	0.00550872 	3.00063 	-5.37094e-20
1.33255 	1.6994 	0.0143838 	3.01431 	-5.50076e-20
1.40269 	1.6994 	0.0143838 	3.01431 	-5.50076e-20
1.47282 	1.6994 	0.0143838 	3.01431 	-5.50076e-20
1.54296 	1.6994 	0.0143838 	3.01431 	-5.50076e-20
1.61309 	1.6994 	0.0143838 	3.01431 	-5.50076e-20
1.68323 	1.6994 	0.0143838 	3.01431 	-5.50076e-20
1.75336 	1.6994 	0.0143838 	3.01431 	-5.50076e-20
1.82349 	1.6994 	0.0143838 	3.01431 	-5.50076e-20
1.89363 	1.6994 	0.0143838 	3.01431 	-5.50076e-20
1.96376 	1.6994 	0.0143838 	3.01431 	-5.50076e-20
2.0339 	1.6994 	0.0143838 	3.01431 	-5.50076e-20
2.10403 	1.6994 	0.0143838 	3.01431 	-5.50076e-20
2.17417 	1.63865 	0.0138928 	3.03198 	1.14629e-19
2.2443 	1.63865 	0.0138928 	3.03198 	1.14629e-19
2.31443 	1.63865 	0.0138928 	3.03198 	1.14629e-19
2.38457 	1.63865 	0.0138928 	3.03198 	1.14629e-19
2.4547 	1.63865 	0.0138928 	3.03198 	1.14629e-19
2.52484 	1.63865 	0.0138928 	3.03198 	1.14629e-19
2.59497 	1.63865 	0.0138928 	3.03198 	1.14629e-19
2.66511 	1.63865 	0.0138928 	3.03198 	1.14629e-19
2.73524 	1.63865 	0.0138928 	3.03198 	1.14629e-19
2.80538 	1.63865 	0.0138928 	3.03198 	1.14629e-19
2.87551 	1.63865 	0.0138928 	3.03198 	1.14629e-19
2.94564 	1.63865 	0.0138928 	3.03198 	1.14629e-19
3.01578 	1.56468 	0.016729 	3.05877 	-1.3325e-20
3.08591 	1.56468 	0.016729 	3.05877 	-1.3325e-20
3.15605 	1.56468 	0.016729 	3.05877 	-1.3325e-20
3.22618 	1.56468 	0.016729 	3.05877 	-1.3325e-20
3.29632 	1.56468 	0.016729 	3.05877 	-1.3325e-20
3.36645 	1.56468 	0.016729 	3.05877 	-1.3325e-20
3.43659 	1.56468 	0.016729 	3.05877 	-1.3325e-20
3.50672 	1.56468 	0.016729 	3.05877 	-1.3325e-20
3.57685 	1.56468 	0.016729 	3.05877 	-1.3325e-20
3.64699 	1.56468 	0.016729 	3.05877 	-1.3325e-20
3.71712 	1.56468 	0.016729 	3.05877 	-1.3325e-20
3.78726 	1.55749 	0.00714171 	3.05553 	2.61033e-20
3.85739 	1.4785 	-0.000772556 	3.08417 	-1.92464e-19
3.92753 	1.4785 	-0.000772556 	3.08417 	-1.92464e-19
3.99766 	1.4785 	-0.000772556 	3.08417 	-1.92464e-19
4.06779 	1.4785 	-0.000772556 	3.08417 	-1.92464e-19
4.13793 	1.4785 	-0.000772556 	3.08417 	-1.92464e-19
4.20806 	1.4785 	-0.000772556 	3.08417 	-1.92464e-19
4.2782 	1.4785 	-0.000772556 	3.08417 	-1.92464e-19
4.34833 	1.4785 	-0.000772556 	3.08417 	-1.92464e-19
4.41847 	1.4785 	-0.000772556 	3.08417 	-1.92464e-19
4.4886 	1.4785 	-0.000772556 	3.08417 	-1.92464e-19
4.55874 	1.4785 	-0.000772556 	3.08417 	-1.92464e-19
4.62887 	1.4785 	-0.000772556 	3.08417 	-1.92464e-19
4.699 	1.4785 	-0.000772556 	3.08417 	-1.92464e-19
4.76914 	1.39983 	0.00557922 	3.10664 	3.74577e-19
4.83927 	1.39983 	0.00557922 	3.10664 	3.74577e-19
4.90941 	1.39983 	0.00557922 	3.10664 	3.74577e-19
4.97954 	1.39983 	0.00557922 	3.10664 	3.74577e-19
5.04968 	1.39983 	0.00557922 	3.10664 	3.74577e-19
5.11981 	1.39983 	0.00557922 	3.10664 	3.74577e-19
5.18994 	1.39983 	0.00557922 	3.10664 	3.74577e-19
5.26008 	1.39983 	0.00557922 	3.10664 	3.74577e-19
5.33021 	1.39983 	0.00557922 	3.10664 	3.74577e-19
5.40035 	1.39983 	0.00557922 	3.10664 	3.74577e-19
5.47048 	1.39983 	0.00557922 	3.10664 	3.74577e-19
5.54062 	1.39983 	0.00557922 	3.10664 	3.74577e-19
5.61075 	1.32528 	-0.00212434 	3.13355 	-1.81886e-19
5.68089 	1.32528 	-0.00212434 	3.13355 	-1.81886e-19
5.75102 	1.32528 	-0.00212434 	3.13355 	-1.81886e-19
5.82115 	1.32528 	-0.00212434 	3.13355 	-1.81886e-19
5.89129 	1.32528 	-0.00212434 	3.13355 	-1.81886e-19
5.96142 	1.32528 	-0.00212434 	3.13355 	-1.81886e-19
6.03156 	1.32528 	-0.00212434 	3.13355 	-1.81886e-19
6.10169 	1.32528 	-0.00212434 	3.13355 	-1.81886e-19
6.17183 	1.32528 	-0.00212434 	3.13355 	-1.81886e-19
6.24196 	1.32528 	-0.00212434 	3.13355 	-1.81886e-19
6.3121 	1.32528 	-0.00212434 	3.13355 	-1.81886e-19
6.38223 	1.32528 	-0.00212434 	3.13355 	-1.81886e-19
6.45236 	1.2541 	0.00527197 	3.15323 	0
6.5225 	1.2541 	0.00527197 	3.15323 	0
6.59263 	1.2541 	0.00527197 	3.15323 	0
6.66277 	1.2541 	0.00527197 	3.15323 	0
6.7329 	1.2541 	0.00527197 	3.15323 	0
6.80304 	1.2541 	0.00527197 	3.15323 	0
6.87317 	1.2541 	0.00527197 	3.15323 	0
6.9433 	1.2541 	0.00527197 	3.15323 	0
7.01344 	1.2541 	0.00527197 	3.15323 	0
7.08357 	1.2541 	0.00527197 	3.15323 	0
7.15371 	1.2541 	0.00527197 	3.15323 	0
7.22384 	1.2541 	0.00527197 	3.15323 	0
7.29398 	1.18609 	-0.00135521 	3.17782 	0
7.36411 	1.18609 	-0.00135521 	3.17782 	0
7.43425 	1.18609 	-0.00135521 	3.17782 	0
7.50438 	1.18609 	-0.00135521 	3.17782 	0
7.57451 	1.18609 	-0.00135521 	3.17782 	0
7.64465 	1.18609 	-0.00135521 	3.17782 	0
7.71478 	1.18609 	-0.00135521 	3.17782 	0
7.78492 	1.18609 	-0.00135521 	3.17782 	0
7.85505 	1.18609 	-0.00135521 	3.17782 	0
7.92519 	1.18609 	-0.00135521 	3.17782 	0
7.99532 	1.18609 	-0.00135521 	3.17782 	0
8.06545 	1.18609 	-0.00135521 	3.17782 	0
8.13559 	1.18609 	-0.00135521 	3.17782 	0
8.20572 	1.11887 	0.00757324 	3.19593 	3.67339e-22
8.27586 	1.11887 	0.00757324 	3.19593 	3.67339e-22
8.34599 	1.11887 	0.00757324 	3.19593 	3.67339e-22
8.41613 	1.11887 	0.00757324 	3.19593 	3.67339e-22
8.48626 	1.11887 	0.00757324 	3.19593 	3.67339e-22
8.5564 	1.11887 	0.00757324 	3.19593 	3.67339e-22
8.62653 	1.11887 	0.00757324 	3.19593 	3.67339e-22
8.69666 	1.11887 	0.00757324 	3.19593 	3.67339e-22
8.7668 	1.11887 	0.00757324 	3.19593 	3.67339e-22
8.83693 	1.11887 	0.00757324 	3.19593 	3.67339e-22
8.90707 	1.11887 	0.00757324 	3.19593 	3.67339e-22
8.9772 	1.11887 	0.00757324 	3.19593 	3.67339e-22
9.04734 	1.05235 	0.00330953 	3.21981 	2.71968e-19
9.11747 	1.05235 	0.00330953 	3.21981 	2.71968e-19
9.18761 	1.05235 	0.00330953 	3.21981 	2.71968e-19
9.25774 	1.05235 	0.00330953 	3.21981 	2.71968e-19
9.32787 	1.05235 	0.00330953 	3.21981 	2.71968e-19
9.39801 	1.05235 	0.00330953 	3.21981 	2.71968e-19
9.46814 	1.05235 	0.00330953 	3.21981 	2.71968e-19
9.53828 	1.05235 	0.00330953 	3.21981 	2.71968e-19
9.60841 	1.05235 	0.00330953 	3.21981 	2.71968e-19
9.67855 	1.05235 	0.00330953 	3.21981 	2.71968e-19
9.74868 	1.05235 	0.00330953 	3.21981 	2.71968e-19
9.81881 	1.05235 	0.00330953 	3.21981 	2.71968e-19
9.88895 	1.05235 	0.00330953 	3.21981 	2.71968e-19
9.95908 	0.985071 	0.0170155 	3.23769 	-1.95102e-21
10.0292 	0.985071 	0.0170155 	3.23769 	-1.95102e-21
10.0994 	0.985071 	0.0170155 	3.23769 	-1.95102e-21
10.1695 	0.985071 	0.0170155 	3.23769 	-1.95102e-21
10.2396 	0.985071 	0.0170155 	3.23769 	-1.95102e-21
10.3098 	0.985071 	0.0170155 	3.23769 	-1.95102e-21
10.3799 	0.985071 	0.0170155 	3.23769 	-1.95102e-21
10.45 	0.985071 	0.0170155 	3.23769 	-1.95102e-21
10.5202 	0.985071 	0.0170155 	3.23769 	-1.95102e-21
10.5903 	0.985071 	0.0170155 	3.23769 	-1.95102e-21
10.6604 	0.985071 	0.0170155 	3.23769 	-1.95102e-21
10.7306 	0.985071 	0.0170155 	3.23769 	-1.95102e-21
10.8007 	0.917204 	0.0224552 	3.26163 	-2.67793e-19
10.8708 	0.917204 	0.0224552 	3.26163 	-2.67793e-19
10.941 	0.917204 	0.0224552 	3.26163 	-2.67793e-19
11.0111 	0.917204 	0.0224552 	3.26163 	-2.67793e-19
11.0812 	0.917204 	0.0224552 	3.26163 	-2.67793e-19
11.1514 	0.917204 	0.0224552 	3.26163 	-2.67793e-19
11.2215 	0.917204 	0.0224552 	3.26163 	-2.67793e-19
11.2916 	0.917204 	0.0224552 	3.26163 	-2.67793e-19
11.3618 	0.917204 	0.0224552 	3.26163 	-2.67793e-19
11.4319 	0.917204 	0.0224552 	3.26163 	-2.67793e-19
11.502 	0.917204 	0.0224552 	3.26163 	-2.67793e-19
11.5722 	0.917204 	0.0224552 	3.26163 	-2.67793e-19
11.6423 	0.917204 	0.0224552 	3.26163 	-2.67793e-19
11.7124 	0.844048 	0.0529457 	3.28158 	-4.13711e-19
11.7826 	0.844048 	0.0529457 	3.28158 	-4.13711e-19
11.8527 	0.844048 	0.0529457 	3.28158 	-4.13711e-19
11.9228 	0.844048 	0.0529457 	3.28158 	-4.13711e-19
11.993 	0.844048 	0.0529457 	3.28158 	-4.13711e-19
12.0631 	0.844048 	0.0529457 	3.28158 	-4.13711e-19
12.1332 	0.844048 	0.0529457 	3.28158 	-4.13711e-19
12.2034 	0.844048 	0.0529457 	3.28158 	-4.13711e-19
12.2735 	0.844048 	0.0529457 	3.28158 	-4.13711e-19
12.3437 	0.844048 	0.0529457 	3.28158 	-4.13711e-19
12.4138 	0.844048 	0.0529457 	3.28158 	-4.13711e-19
12.4839 	0.844048 	0.0529457 	3.28158 	-4.13711e-19
12.5541 	0.844048 	0.0529457 	3.28158 	-4.13711e-19
12.6242 	0.761847 	0.0783162 	3.30787 	7.95453e-19
12.6943 	0.761847 	0.0783162 	3.30787 	7.95453e-19
12.7645 	0.761847 	0.0783162 	3.30787 	7.95453e-19
12.8346 	0.761847 	0.0783162 	3.30787 	7.95453e-19
12.9047 	0.761847 	0.0783162 	3.30787 	7.95453e-19
12.9749 	0.761847 	0.0783162 	3.30787 	7.95453e-19
13.045 	0.761847 	0.0783162 	3.30787 	7.95453e-19
13.1151 	0.761847 	0.0783162 	3.30787 	7.95453e-19
13.1853 	0.761847 	0.0783162 	3.30787 	7.95453e-19
13.2554 	0.761847 	0.0783162 	3.30787 	7.95453e-19
13.3255 	0.761847 	0.0783162 	3.30787 	7.95453e-19
13.3957 	0.761847 	0.0783162 	3.30787 	7.95453e-19
13.4658 	0.761847 	0.0783162 	3.30787 	7.95453e-19
13.5359 	0.656492 	0.152732 	3.34247 	-3.83388e-19
13.6061 	0.656492 	0.152732 	3.34247 	-3.83388e-19
13.6762 	0.656492 	0.152732 	3.34247 	-3.83388e-19
13.7463 	0.656492 	0.152732 	3.34247 	-3.83388e-19
13.8165 	0.656492 	0.152732 	3.34247 	-3.83388e-19
13.8866 	0.656492 	0.152732 	3.34247 	-3.83388e-19
13.9567 	0.656492 	0.152732 	3.34247 	-3.83388e-19
14.0269 	0.656492 	0.152732 	3.34247 	-3.83388e-19
14.097 	0.656492 	0.152732 	3.34247 	-3.83388e-19
14.1671 	0.656492 	0.152732 	3.34247 	-3.83388e-19
14.2373 	0.656492 	0.152732 	3.34247 	-3.83388e-19
14.3074 	0.656492 	0.152732 	3.34247 	-3.83388e-19
14.3776 	0.55726 	0.176944 	3.36245 	0
14.4477 	0.355012 	0.175374 	3.42084 	3.55614e-19
14.5178 	0.355012 	0.175374 	3.42084 	3.55614e-19
14.588 	0.355012 	0.175374 	3.42084 	3.55614e-19
14.6581 	0.355012 	0.175374 	3.42084 	3.55614e-19
14.7282 	0.355012 	0.175374 	3.42084 	3.55614e-19
14.7984 	0.355012 	0.175374 	3.42084 	3.55614e-19
14.8685 	0.381222 	0.20025 	3.41141 	-7.16269e-19
14.9386 	0.381222 	0.20025 	3.41141 	-7.16269e-19
15.0088 	0.381222 	0.20025 	3.41141 	-7.16269e-19
15.0789 	0.381222 	0.20025 	3.41141 	-7.16269e-19
15.149 	0.381222 	0.20025 	3.41141 	-7.16269e-19
15.2192 	0.142849 	0.2647 	3.47816 	3.44703e-19
15.2893 	0.142849 	0.2647 	3.47816 	3.44703e-19
15.3594 	0.142849 	0.2647 	3.47816 	3.44703e-19
15.4296 	0.27117 	0.334572 	3.43354 	4.91602e-20
15.4997 	0.27117 	0.334572 	3.43354 	4.91602e-20
15.5698 	0.27117 	0.334572 	3.43354 	4.91602e-20
15.64 	0.27117 	0.334572 	3.43354 	4.91602e-20
15.7101 	0.27117 	0.334572 	3.43354 	4.91602e-20
15.7802 	0.27117 	0.334572 	3.43354 	4.91602e-20
15.8504 	0.27117 	0.334572 	3.43354 	4.91602e-20
15.9205 	0.0158504 	0.337893 	3.53308 	9.22652e-20
15.9906 	0.0158504 	0.337893 	3.53308 	9.22652e-20
16.0608 	0.0158504 	0.337893 	3.53308 	9.22652e-20
16.1309 	0.227854 	0.423587 	3.44487 	2.04567e-19
16.201 	0.227854 	0.423587 	3.44487 	2.04567e-19
16.2712 	0.227854 	0.423587 	3.44487 	2.04567e-19
16.3413 	0.227854 	0.423587 	3.44487 	2.04567e-19
16.4114 	0.227854 	0.423587 	3.44487 	2.04567e-19
16.4816 	0.227854 	0.423587 	3.44487 	2.04567e-19
16.5517 	0.227854 	0.423587 	3.44487 	2.04567e-19
16.6219 	0.0430557 	0.52295 	3.52169 	0
16.692 	0.0430557 	0.52295 	3.52169 	0
16.7621 	0.0430557 	0.52295 	3.52169 	0
16.8323 	0.0430557 	0.52295 	3.52169 	0
16.9024 	0.0430557 	0.52295 	3.52169 	0
16.9725 	0.274319 	0.530561 	3.42493 	1.91388e-19
17.0427 	0.274319 	0.530561 	3.42493 	1.91388e-19
17.1128 	0.274319 	0.530561 	3.42493 	1.91388e-19
17.1829 	0.274319 	0.530561 	3.42493 	1.91388e-19
17.2531 	0.123155 	0.614511 	3.47704 	1.3615e-19
17.3232 	0.123155 	0.614511 	3.47704 	1.3615e-19
17.3933 	0.123155 	0.614511 	3.47704 	1.3615e-19
17.4635 	0.123155 	0.614511 	3.47704 	1.3615e-19
17.5336 	0.123155 	0.614511 	3.47704 	1.3615e-19
17.6037 	0.123155 	0.614511 	3.47704 	1.3615e-19
17.6739 	0.123155 	0.614511 	3.47704 	1.3615e-19
17.744 	0.123155 	0.614511 	3.47704 	1.3615e-19
17.8141 	0.123155 	0.614511 	3.47704 	1.3615e-19
17.8843 	0.123155 	0.614511 	3.47704 	1.3615e-19
17.9544 	0.20047 	0.630606 	3.39636 	0
18.0245 	0.20047 	0.630606 	3.39636 	0
18.0947 	0.20047 	0.630606 	3.39636 	0
18.1648 	0.20047 	0.630606 	3.39636 	0
18.2349 	0.20047 	0.630606 	3.39636 	0
18.3051 	0.20047 	0.630606 	3.39636 	0
18.3752 	0.20047 	0.630606 	3.39636 	0
18.4453 	0.20047 	0.630606 	3.39636 	0
18.5155 	0.20047 	0.630606 	3.39636 	0
18.5856 	0.10669 	0.721079 	3.43944 	0
18.6557 	0.10669 	0.721079 	3.43944 	0
18.7259 	0.10669 	0.721079 	3.43944 	0
18.796 	0.10669 	0.721079 	3.43944 	0
18.8662 	0.10669 	0.721079 	3.43944 	0
18.9363 	0.10669 	0.721079 	3.43944 	0
19.0064 	0.10669 	0.721079 	3.43944 	0
19.0766 	0.10669 	0.721079 	3.43944 	0
19.1467 	0.10669 	0.721079 	3.43944 	0
19.2168 	0.0568708 	0.768267 	3.42052 	3.1071e-20
19.287 	0.284502 	0.694991 	3.21677 	-5.43687e-20
19.3571 	0.284502 	0.694991 	3.21677 	-5.43687e-20
19.4272 	0.284502 	0.694991 	3.21677 	-5.43687e-20
19.4974 	0.284502 	0.694991 	3.21677 	-5.43687e-20
19.5675 	0.284502 	0.694991 	3.21677 	-5.43687e-20
19.6376 	0.284502 	0.694991 	3.21677 	-5.43687e-20
19.7078 	0.284502 	0.694991 	3.21677 	-5.43687e-20
19.7779 	0.284502 	0.694991 	3.21677 	-5.43687e-20
19.848 	0.284502 	0.694991 	3.21677 	-5.43687e-20
19.9182 	0.232123 	0.755127 	3.29021 	-2.1158e-19
19.9883 	0.232123 	0.755127 	3.29021 	-2.1158e-19
20.0584 	0.232123 	0.755127 	3.29021 	-2.1158e-19
20.1286 	0.232123 	0.755127 	3.29021 	-2.1158e-19
20.1987 	0.232123 	0.755127 	3.29021 	-2.1158e-19
20.2688 	0.232123 	0.755127 	3.29021 	-2.1158e-19
20.339 	0.232123 	0.755127 	3.29021 	-2.1158e-19
20.4091 	0.232123 	0.755127 	3.29021 	-2.1158e-19
20.4792 	0.232123 	0.755127 	3.29021 	-2.1158e-19
20.5494 	0.232123 	0.755127 	3.29021 	-2.1158e-19
20.6195 	0.172443 	0.808774 	3.32205 	1.46764e-20
20.6896 	0.172443 	0.808774 	3.32205 	1.46764e-20
20.7598 	0.172443 	0.808774 	3.32205 	1.46764e-20
20.8299 	0.172443 	0.808774 	3.32205 	1.46764e-20
20.9 	0.255923 	0.701262 	2.7606 	-2.94906e-19
20.9702 	0.255923 	0.701262 	2.7606 	-2.94906e-19
21.0403 	0.255923 	0.701262 	2.7606 	-2.94906e-19
21.1105 	0.255923 	0.701262 	2.7606 	-2.94906e-19
21.1806 	0.255923 	0.701262 	2.7606 	-2.94906e-19
21.2507 	0.255923 	0.701262 	2.7606 	-2.94906e-19
21.3209 	0.214799 	0.752941 	2.94677 	0
21.391 	0.214799 	0.752941 	2.94677 	0
21.4611 	0.214799 	0.752941 	2.94677 	0
21.5313 	0.214799 	0.752941 	2.94677 	0
21.6014 	0.214799 	0.752941 	2.94677 	0
21.6715 	0.214799 	0.752941 	2.94677 	0
21.7417 	0.214799 	0.752941 	2.94677 	0
21.8118 	0.214799 	0.752941 	2.94677 	0
21.8819 	0.214799 	0.752941 	2.94677 	0
21.9521 	0.214799 	0.752941 	2.94677 	0
22.0222 	0.214799 	0.752941 	2.94677 	0
22.0923 	0.172589 	0.803819 	3.07154 	-1.11929e-19
22.1625 	0.172589 	0.803819 	3.07154 	-1.11929e-19
22.2326 	0.172589 	0.803819 	3.07154 	-1.11929e-19
22.3027 	0.172589 	0.803819 	3.07154 	-1.11929e-19
22.3729 	0.172589 	0.803819 	3.07154 	-1.11929e-19
22.443 	0.172589 	0.803819 	3.07154 	-1.11929e-19
22.5131 	0.172589 	0.803819 	3.07154 	-1.11929e-19
22.5833 	0.172589 	0.803819 	3.07154 	-1.11929e-19
22.6534 	0.172589 	0.803819 	3.07154 	-1.11929e-19
22.7235 	0.172589 	0.803819 	3.07154 	-1.11929e-19
22.7937 	0.172589 	0.803819 	3.07154 	-1.11929e-19
22.8638 	0.121828 	0.844275 	3.14039 	1.75831e-19
22.9339 	0.121828 	0.844275 	3.14039 	1.75831e-19
23.0041 	0.121828 	0.844275 	3.14039 	1.75831e-19
23.0742 	0.134089 	0.685427 	2.25571 	7.26631e-20
23.1443 	0.134089 	0.685427 	2.25571 	7.26631e-20
23.2145 	0.134089 	0.685427 	2.25571 	7.26631e-20
23.2846 	0.134089 	0.685427 	2.25571 	7.26631e-20
23.3548 	0.134089 	0.685427 	2.25571 	7.26631e-20
23.4249 	0.134089 	0.685427 	2.25571 	7.26631e-20
23.495 	0.134089 	0.685427 	2.25571 	7.26631e-20
23.5652 	0.134089 	0.685427 	2.25571 	7.26631e-20
23.6353 	0.134089 	0.685427 	2.25571 	7.26631e-20
23.7054 	0.0858906 	0.730861 	2.43147 	-3.52929e-21
23.7756 	0.0858906 	0.730861 	2.43147 	-3.52929e-21
23.8457 	0.0858906 	0.730861 	2.43147 	-3.52929e-21
23.9158 	0.0858906 	0.730861 	2.43147 	-3.52929e-21
23.986 	0.0858906 	0.730861 	2.43147 	-3.52929e-21
24.0561 	0.0858906 	0.730861 	2.43147 	-3.52929e-21
24.1262 	0.0858906 	0.730861 	2.43147 	-3.52929e-21
24.1964 	0.0858906 	0.730861 	2.43147 	-3.52929e-21
24.2665 	0.0858906 	0.730861 	2.43147 	-3.52929e-21
24.3366 	0.0858906 	0.730861 	2.43147 	-3.52929e-21
24.4068 	0.0858906 	0.730861 	2.43147 	-3.52929e-21
24.4769 	0.0858906 	0.730861 	2.43147 	-3.52929e-21
24.547 	0.0858906 	0.730861 	2.43147 	-3.52929e-21
24.6172 	0.0409526 	0.769734 	2.58783 	4.98556e-20
24.6873 	0.0409526 	0.769734 	2.58783 	4.98556e-20
24.7574 	0.0409526 	0.769734 	2.58783 	4.98556e-20
24.8276 	0.0409526 	0.769734 	2.58783 	4.98556e-20
24.8977 	0.0409526 	0.769734 	2.58783 	4.98556e-20
24.9678 	0.0409526 	0.769734 	2.58783 	4.98556e-20
25.038 	0.0409526 	0.769734 	2.58783 	4.98556e-20
25.1081 	0.0409526 	0.769734 	2.58783 	4.98556e-20
25.1782 	0.0409526 	0.769734 	2.58783 	4.98556e-20
25.2484 	0.0409526 	0.769734 	2.58783 	4.98556e-20
25.3185 	0.0409526 	0.769734 	2.58783 	4.98556e-20
25.3886 	0.0409526 	0.769734 	2.58783 	4.98556e-20
25.4588 	-0.00234 	0.810393 	2.70746 	-5.22872e-21
25.5289 	-0.00234 	0.810393 	2.70746 	-5.22872e-21
25.5991 	-0.00234 	0.810393 	2.70746 	-5.22872e-21
25.6692 	-0.00234 	0.810393 	2.70746 	-5.22872e-21
25.7393 	-0.00234 	0.810393 	2.70746 	-5.22872e-21
25.8095 	-0.00234 	0.810393 	2.70746 	-5.22872e-21
25.8796 	-0.00234 	0.810393 	2.70746 	-5.22872e-21
25.9497 	-0.00234 	0.810393 	2.70746 	-5.22872e-21
26.0199 	-0.00234 	0.810393 	2.70746 	-5.22872e-21
26.09 	0.00026436 	0.611847 	1.7571 	-1.32501e-20
26.1601 	0.00026436 	0.611847 	1.7571 	-1.32501e-20
26.2303 	0.00026436 	0.611847 	1.7571 	-1.32501e-20
26.3004 	0.00026436 	0.611847 	1.7571 	-1.32501e-20
26.3705 	0.00026436 	0.611847 	1.7571 	-1.32501e-20
26.4407 	-0.0439645 	0.626114 	1.83478 	-1.9007e-20
26.5108 	-0.0439645 	0.626114 	1.83478 	-1.9007e-20
26.5809 	-0.0439645 	0.626114 	1.83478 	-1.9007e-20
26.6511 	-0.0439645 	0.626114 	1.83478 	-1.9007e-20
26.7212 	-0.0439645 	0.626114 	1.83478 	-1.9007e-20
26.7913 	-0.0439645 	0.626114 	1.83478 	-1.9007e-20
26.8615 	-0.0439645 	0.626114 	1.83478 	-1.9007e-20
26.9316 	-0.0439645 	0.626114 	1.83478 	-1.9007e-20
27.0017 	-0.0439645 	0.626114 	1.83478 	-1.9007e-20
27.0719 	-0.0439645 	0.626114 	1.83478 	-1.9007e-20
27.142 	-0.0439645 	0.626114 	1.83478 	-1.9007e-20
27.2121 	-0.0439645 	0.626114 	1.83478 	-1.9007e-20
27.2823 	-0.0439645 	0.626114 	1.83478 	-1.9007e-20
27.3524 	-0.0871438 	0.63699 	1.89977 	0
27.4225 	-0.0871438 	0.63699 	1.89977 	0
27.4927 	-0.0871438 	0.63699 	1.89977 	0
27.5628 	-0.0871438 	0.63699 	1.89977 	0
27.6329 	-0.0871438 	0.63699 	1.89977 	0
27.7031 	-0.0871438 	0.63699 	1.89977 	0
27.7732 	-0.0871438 	0.63699 	1.89977 	0
27.8434 	-0.0871438 	0.63699 	1.89977 	0
27.9135 	-0.0871438 	0.63699 	1.89977 	0
27.9836 	-0.0871438 	0.63699 	1.89977 	0
28.0538 	-0.0871438 	0.63699 	1.89977 	0
28.1239 	-0.0871438 	0.63699 	1.89977 	0
28.194 	-0.0871438 	0.63699 	1.89977 	0
28.2642 	-0.0871438 	0.63699 	1.89977 	0
28.3343 	-0.0871438 	0.63699 	1.89977 	0
28.4044 	-0.126178 	0.64547 	1.9522 	0
28.4746 	-0.126178 	0.64547 	1.9522 	0
28.5447 	-0.126178 	0.64547 	1.9522 	0
28.6148 	-0.126178 	0.64547 	1.9522 	0
28.685 	-0.126178 	0.64547 	1.9522 	0
28.7551 	-0.126178 	0.64547 	1.9522 	0
28.8252 	-0.126178 	0.64547 	1.9522 	0
28.8954 	-0.126178 	0.64547 	1.9522 	0
28.9655 	-0.126178 	0.64547 	1.9522 	0
29.0356 	-0.126178 	0.64547 	1.9522 	0
29.1058 	-0.126178 	0.64547 	1.9522 	0
29.1759 	-0.126178 	0.64547 	1.9522 	0
29.246 	-0.126178 	0.64547 	1.9522 	0
29.3162 	-0.126178 	0.64547 	1.9522 	0
29.3863 	-0.126178 	0.64547 	1.9522 	0
29.4564 	-0.159931 	0.643912 	1.97056 	-7.31825e-20
29.5266 	-0.159931 	0.643912 	1.97056 	-7.31825e-20
29.5967 	-0.159931 	0.643912 	1.97056 	-7.31825e-20
29.6668 	-0.159931 	0.643912 	1.97056 	-7.31825e-20
29.737 	-0.159931 	0.643912 	1.97056 	-7.31825e-20
29.8071 	-0.159931 	0.643912 	1.97056 	-7.31825e-20
29.8773 	-0.159931 	0.643912 	1.97056 	-7.31825e-20
29.9474 	-0.159931 	0.643912 	1.97056 	-7.31825e-20
30.0175 	-0.159931 	0.643912 	1.97056 	-7.31825e-20
30.0877 	-0.159931 	0.643912 	1.97056 	-7.31825e-20
30.1578 	-0.159931 	0.643912 	1.97056 	-7.31825e-20
30.2279 	-0.159931 	0.643912 	1.97056 	-7.31825e-20
30.2981 	-0.159931 	0.643912 	1.97056 	-7.31825e-20
30.3682 	-0.159931 	0.643912 	1.97056 	-7.31825e-20
30.4383 	-0.159931 	0.643912 	1.97056 	-7.31825e-20
30.5085 	-0.159931 	0.643912 	1.97056 	-7.31825e-20
30.5786 	-0.186905 	0.636868 	1.96304 	-4.38291e-21
30.6487 	-0.186905 	0.636868 	1.96304 	-4.38291e-21
30.7189 	-0.186905 	0.636868 	1.96304 	-4.38291e-21
30.789 	-0.186905 	0.636868 	1.96304 	-4.38291e-21
30.8591 	-0.186905 	0.636868 	1.96304 	-4.38291e-21
30.9293 	-0.186905 	0.636868 	1.96304 	-4.38291e-21
30.9994 	-0.186905 	0.636868 	1.96304 	-4.38291e-21
31.0695 	-0.186905 	0.636868 	1.96304 	-4.38291e-21
31.1397 	-0.186905 	0.636868 	1.96304 	-4.38291e-21
31.2098 	-0.186905 	0.636868 	1.96304 	-4.38291e-21
31.2799 	-0.186905 	0.636868 	1.96304 	-4.38291e-21
31.3501 	-0.186905 	0.636868 	1.96304 	-4.38291e-21
31.4202 	-0.186905 	0.636868 	1.96304 	-4.38291e-21
31.4903 	-0.186905 	0.636868 	1.96304 	-4.38291e-21
31.5605 	-0.232154 	0.518873 	1.63415 	-1.43438e-19
31.6306 	-0.232154 	0.518873 	1.63415 	-1.43438e-19
31.7007 	-0.240097 	0.504765 	1.63734 	8.96735e-20
31.7709 	-0.240097 	0.504765 	1.63734 	8.96735e-20
31.841 	-0.240097 	0.504765 	1.63734 	8.96735e-20
31.9111 	-0.240097 	0.504765 	1.63734 	8.96735e-20
31.9813 	-0.240097 	0.504765 	1.63734 	8.96735e-20
32.0514 	-0.240097 	0.504765 	1.63734 	8.96735e-20
32.1216 	-0.240097 	0.504765 	1.63734 	8.96735e-20
32.1917 	-0.240097 	0.504765 	1.63734 	8.96735e-20
32.2618 	-0.240097 	0.504765 	1.63734 	8.96735e-20
32.332 	-0.240097 	0.504765 	1.63734 	8.96735e-20
32.4021 	-0.240097 	0.504765 	1.63734 	8.96735e-20
32.4722 	-0.240097 	0.504765 	1.63734 	8.96735e-20
32.5424 	-0.240097 	0.504765 	1.63734 	8.96735e-20
32.6125 	-0.240097 	0.504765 	1.63734 	8.96735e-20
32.6826 	-0.240097 	0.504765 	1.63734 	8.96735e-20
32.7528 	-0.240097 	0.504765 	1.63734 	8.96735e-20
32.8229 	-0.240097 	0.504765 	1.63734 	8.96735e-20
32.893 	-0.240097 	0.504765 	1.63734 	8.96735e-20
32.9632 	-0.229933 	0.480479 	1.62621 	2.39605e-20
33.0333 	-0.229933 	0.480479 	1.62621 	2.39605e-20
33.1034 	-0.229933 	0.480479 	1.62621 	2.39605e-20
33.1736 	-0.229933 	0.480479 	1.62621 	2.39605e-20
33.2437 	-0.229933 	0.480479 	1.62621 	2.39605e-20
33.3138 	-0.229933 	0.480479 	1.62621 	2.39605e-20
33.384 	-0.229933 	0.480479 	1.62621 	2.39605e-20
33.4541 	-0.229933 	0.480479 	1.62621 	2.39605e-20
33.5242 	-0.229933 	0.480479 	1.62621 	2.39605e-20
33.5944 	-0.229933 	0.480479 	1.62621 	2.39605e-20
33.6645 	-0.229933 	0.480479 	1.62621 	2.39605e-20
33.7346 	-0.229933 	0.480479 	1.62621 	2.39605e-20
33.8048 	-0.229933 	0.480479 	1.62621 	2.39605e-20
33.8749 	-0.229933 	0.480479 	1.62621 	2.39605e-20
33.945 	-0.229933 	0.480479 	1.62621 	2.39605e-20
34.0152 	-0.229933 	0.480479 	1.62621 	2.39605e-20
34.0853 	-0.229933 	0.480479 	1.62621 	2.39605e-20
34.1554 	-0.229933 	0.480479 	1.62621 	2.39605e-20
34.2256 	-0.197468 	0.453701 	1.6045 	-1.43955e-20
34.2957 	-0.197468 	0.453701 	1.6045 	-1.43955e-20
34.3659 	-0.197468 	0.453701 	1.6045 	-1.43955e-20
34.436 	-0.197468 	0.453701 	1.6045 	-1.43955e-20
34.5061 	-0.197468 	0.453701 	1.6045 	-1.43955e-20
34.5763 	-0.197468 	0.453701 	1.6045 	-1.43955e-20
34.6464 	-0.197468 	0.453701 	1.6045 	-1.43955e-20
34.7165 	-0.197468 	0.453701 	1.6045 	-1.43955e-20
34.7867 	-0.197468 	0.453701 	1.6045 	-1.43955e-20
34.8568 	-0.197468 	0.453701 	1.6045 	-1.43955e-20
34.9269 	-0.197468 	0.453701 	1.6045 	-1.43955e-20
34.9971 	-0.197468 	0.453701 	1.6045 	-1.43955e-20
35.0672 	-0.197468 	0.453701 	1.6045 	-1.43955e-20
35.1373 	-0.197468 	0.453701 	1.6045 	-1.43955e-20
35.2075 	-0.197468 	0.453701 	1.6045 	-1.43955e-20
35.2776 	-0.197468 	0.453701 	1.6045 	-1.43955e-20
35.3477 	-0.197468 	0.453701 	1.6045 	-1.43955e-20
35.4179 	-0.197468 	0.453701 	1.6045 	-1.43955e-20
35.488 	-0.197468 	0.453701 	1.6045 	-1.43955e-20
35.5581 	-0.197468 	0.453701 	1.6045 	-1.43955e-20
35.6283 	-0.147805 	0.402757 	1.5727 	-3.96434e-21
35.6984 	-0.147805 	0.402757 	1.5727 	-3.96434e-21
35.7685 	-0.147805 	0.402757 	1.5727 	-3.96434e-21
35.8387 	-0.147805 	0.402757 	1.5727 	-3.96434e-21
35.9088 	-0.147805 	0.402757 	1.5727 	-3.96434e-21
35.9789 	-0.147805 	0.402757 	1.5727 	-3.96434e-21
36.0491 	-0.147805 	0.402757 	1.5727 	-3.96434e-21
36.1192 	-0.147805 	0.402757 	1.5727 	-3.96434e-21
36.1893 	-0.147805 	0.402757 	1.5727 	-3.96434e-21
36.2595 	-0.147805 	0.402757 	1.5727 	-3.96434e-21
36.3296 	-0.147805 	0.402757 	1.5727 	-3.96434e-21
36.3997 	-0.147805 	0.402757 	1.5727 	-3.96434e-21
36.4699 	-0.147805 	0.402757 	1.5727 	-3.96434e-21
36.54 	-0.147805 	0.402757 	1.5727 	-3.96434e-21
36.6102 	-0.147805 	0.402757 	1.5727 	-3.96434e-21
36.6803 	-0.147805 	0.402757 	1.5727 	-3.96434e-21
36.7504 	-0.147805 	0.402757 	1.5727 	-3.96434e-21
36.8206 	-0.147805 	0.402757 	1.5727 	-3.96434e-21
36.8907 	-0.147805 	0.402757 	1.5727 	-3.96434e-21
36.9608 	-0.147805 	0.402757 	1.5727 	-3.96434e-21
37.031 	-0.147805 	0.402757 	1.5727 	-3.96434e-21
37.1011 	-0.107789 	0.339668 	1.54586 	0
37.1712 	-0.107789 	0.339668 	1.54586 	0
37.2414 	-0.107789 	0.339668 	1.54586 	0
37.3115 	-0.107789 	0.339668 	1.54586 	0
37.3816 	-0.107789 	0.339668 	1.54586 	0
37.4518 	-0.107789 	0.339668 	1.54586 	0
37.5219 	-0.107789 	0.339668 	1.54586 	0
37.592 	-0.107789 	0.339668 	1.54586 	0
37.6622 	-0.107789 	0.339668 	1.54586 	0
37.7323 	-0.107789 	0.339668 	1.54586 	0
37.8024 	-0.107789 	0.339668 	1.54586 	0
37.8726 	-0.107789 	0.339668 	1.54586 	0
37.9427 	-0.107789 	0.339668 	1.54586 	0
38.0128 	-0.107789 	0.339668 	1.54586 	0
38.083 	-0.107789 	0.339668 	1.54586 	0
38.1531 	-0.107789 	0.339668 	1.54586 	0
38.2232 	-0.107789 	0.339668 	1.54586 	0
38.2934 	-0.085534 	0.276148 	1.53106 	0
38.3635 	-0.085534 	0.276148 	1.53106 	0
38.4336 	-0.085534 	0.276148 	1.53106 	0
38.5038 	-0.085534 	0.276148 	1.53106 	0
38.5739 	-0.085534 	0.276148 	1.53106 	0
38.644 	-0.085534 	0.276148 	1.53106 	0
38.7142 	-0.085534 	0.276148 	1.53106 	0
38.7843 	-0.085534 	0.276148 	1.53106 	0
38.8545 	-0.085534 	0.276148 	1.53106 	0
38.9246 	-0.085534 	0.276148 	1.53106 	0
38.9947 	-0.085534 	0.276148 	1.53106 	0
39.0649 	-0.085534 	0.276148 	1.53106 	0
39.135 	-0.085534 	0.276148 	1.53106 	0
39.2051 	-0.085534 	0.276148 	1.53106 	0
39.2753 	-0.085534 	0.276148 	1.53106 	0
39.3454 	-0.085534 	0.276148 	1.53106 	0
39.4155 	-0.085534 	0.276148 	1.53106 	0
39.4857 	-0.085534 	0.276148 	1.53106 	0
39.5558 	-0.0818722 	0.213592 	1.52881 	0
39.6259 	-0.0818722 	0.213592 	1.52881 	0
39.6961 	-0.0818722 	0.213592 	1.52881 	0
39.7662 	-0.0818722 	0.213592 	1.52881 	0
39.8363 	-0.0818722 	0.213592 	1.52881 	0
39.9065 	-0.0818722 	0.213592 	1.52881 	0
39.9766 	-0.0818722 	0.213592 	1.52881 	0
40.0467 	-0.0818722 	0.213592 	1.52881 	0
40.1169 	-0.0818722 	0.213592 	1.52881 	0
40.187 	-0.0818722 	0.213592 	1.52881 	0
40.2571 	-0.0818722 	0.213592 	1.52881 	0
40.3273 	-0.0818722 	0.213592 	1.52881 	0
40.3974 	-0.0818722 	0.213592 	1.52881 	0
40.4675 	-0.0818722 	0.213592 	1.52881 	0
40.5377 	-0.0818722 	0.213592 	1.52881 	0
40.6078 	-0.0818722 	0.213592 	1.52881 	0
40.6779 	-0.0818722 	0.213592 	1.52881 	0
40.7481 	-0.0904826 	0.157283 	1.53367 	0
40.8182 	-0.0904826 	0.157283 	1.53367 	0
40.8883 	-0.0904826 	0.157283 	1.53367 	0
40.9585 	-0.0904826 	0.157283 	1.53367 	0
41.0286 	-0.0904826 	0.157283 	1.53367 	0
41.0988 	-0.0904826 	0.157283 	1.53367 	0
41.1689 	-0.0904826 	0.157283 	1.53367 	0
41.239 	-0.0904826 	0.157283 	1.53367 	0
41.3092 	-0.0904826 	0.157283 	1.53367 	0
41.3793 	-0.0904826 	0.157283 	1.53367 	0
41.4494 	-0.0904826 	0.157283 	1.53367 	0
41.5196 	-0.0904826 	0.157283 	1.53367 	0
41.5897 	-0.0904826 	0.157283 	1.53367 	0
41.6598 	-0.0904826 	0.157283 	1.53367 	0
41.73 	-0.0904826 	0.157283 	1.53367 	0
41.8001 	-0.0904826 	0.157283 	1.53367 	0
41.8702 	-0.0904826 	0.157283 	1.53367 	0
41.9404 	-0.0904826 	0.157283 	1.53367 	0
42.0105 	-0.10108 	0.108158 	1.53849 	0
42.0806 	-0.10108 	0.108158 	1.53849 	0
42.1508 	-0.10108 	0.108158 	1.53849 	0
42.2209 	-0.10108 	0.108158 	1.53849 	0
42.291 	-0.10108 	0.108158 	1.53849 	0
42.3612 	-0.10108 	0.108158 	1.53849 	0
42.4313 	-0.10108 	0.108158 	1.53849 	0
42.5014 	-0.10108 	0.108158 	1.53849 	0
42.5716 	-0.10108 	0.108158 	1.53849 	0
42.6417 	-0.10108 	0.108158 	1.53849 	0
42.7118 	-0.10108 	0.108158 	1.53849 	0
42.782 	-0.10108 	0.108158 	1.53849 	0
42.8521 	-0.10108 	0.108158 	1.53849 	0
42.9222 	-0.10108 	0.108158 	1.53849 	0
42.9924 	-0.10108 	0.108158 	1.53849 	0
43.0625 	-0.10108 	0.108158 	1.53849 	0
43.1327 	-0.10108 	0.108158 	1.53849 	0
43.2028 	-0.106211 	0.0643843 	1.53914 	0
43.2729 	-0.106211 	0.0643843 	1.53914 	0
43.3431 	-0.106211 	0.0643843 	1.53914 	0
43.4132 	-0.106211 	0.0643843 	1.53914 	0
43.4833 	-0.106211 	0.0643843 	1.53914 	0
43.5535 	-0.106211 	0.0643843 	1.53914 	0
43.6236 	-0.106211 	0.0643843 	1.53914 	0
43.6937 	-0.106211 	0.0643843 	1.53914 	0
43.7639 	-0.106211 	0.0643843 	1.53914 	0
43.834 	-0.106211 	0.0643843 	1.53914 	0
43.9041 	-0.106211 	0.0643843 	1.53914 	0
43.9743 	-0.106211 	0.0643843 	1.53914 	0
44.0444 	-0.106211 	0.0643843 	1.53914 	0
44.1145 	-0.106211 	0.0643843 	1.53914 	0
44.1847 	-0.106211 	0.0643843 	1.53914 	0
44.2548 	-0.106211 	0.0643843 	1.53914 	0
44.3249 	-0.106211 	0.0643843 	1.53914 	0
44.3951 	-0.106211 	0.0643843 	1.53914 	0
44.4652 	-0.102271 	0.0265139 	1.53157 	0