/*--------------------------------*- C++ -*----------------------------------*\
| =========                 |                                                 |
| \\      /  F ield         | OpenFOAM: The Open Source CFD Toolbox           |
|  \\    /   O peration     | Version:  2306                                  |
|   \\  /    A nd           | Website:  www.openfoam.com                      |
|    \\/     M anipulation  |                                                 |
\*---------------------------------------------------------------------------*/
FoamFile
{
    version     2.0;
    format      ascii;
    arch        "LSB;label=32;scalar=64";
    class       surfaceScalarField;
    location    "67";
    object      phi;
}
// * * * * * * * * * * * * * * * * * * * * * * * * * * * * * * * * * * * * * //

dimensions      [0 3 -1 0 0 0 0];

oriented        oriented;

internalField   nonuniform List<scalar> 
17370
(
-0.0910982
0.0935442
0.286565
-0.0749529
0.0569524
0.364776
-0.0409352
0.029951
0.427152
-0.0211961
0.0155961
0.504852
-0.0113468
0.00864809
0.602101
-0.0065164
0.00506394
0.72051
-0.00384492
0.00297328
0.863778
-0.00220528
0.00162951
1.03603
-0.00109929
0.000678851
1.24292
-0.000267857
-0.00012652
1.49159
0.000513092
-0.00092761
1.49161
0.0013325
-0.001836
1.24319
0.00238275
-0.00311808
1.03637
0.00396416
-0.0051635
0.864106
0.00660518
-0.00872923
0.721182
0.011421
-0.0156607
0.603454
0.0212504
-0.0299934
0.508182
0.0409662
-0.0569737
0.432176
0.0749695
-0.0935539
0.36536
0.0911121
0.197899
-0.127349
0.0881479
0.0392009
-0.364739
0.353794
-0.0726246
0.0835696
-0.446567
0.454372
-0.0817017
0.0738968
-0.520973
0.529528
-0.0657863
0.0572311
-0.612852
0.62102
-0.0494783
0.0413105
-0.727003
0.733793
-0.0343818
0.0275915
-0.867516
0.872455
-0.0222471
0.0173078
-1.03855
1.04191
-0.0135856
0.0102303
-1.24472
1.24713
-0.00767242
0.0052576
-1.49284
1.49486
-0.00328761
0.00126831
-1.49269
1.49451
0.000553979
-0.00237698
-1.2441
1.24602
0.00435504
-0.00627166
-1.0376
1.04008
0.00861401
-0.0110966
-0.866158
0.869803
0.0143645
-0.0180101
-0.724478
0.729768
0.0228768
-0.0281667
-0.608885
0.61577
0.0349055
-0.0417898
-0.514988
0.522693
0.0499079
-0.0576131
-0.439772
0.447826
0.0661094
-0.074163
-0.375153
0.376999
0.0818982
-0.083745
-0.256913
0.223414
0.0727468
-0.0392478
-0.0686586
0.0589308
0.0097278
-0.0520634
0.0587556
-0.374549
0.367856
-0.0578657
0.0540359
-0.453834
0.457664
-0.0486748
0.0443326
-0.52775
0.532092
-0.0401061
0.0363205
-0.621111
0.624896
-0.0320927
0.0280162
-0.734885
0.738962
-0.023537
0.019538
-0.874057
0.878056
-0.0153942
0.0118717
-1.04341
1.04693
-0.00829761
0.00522769
-1.24867
1.25174
-0.00198723
-0.00101786
-1.49695
1.49996
0.00400065
-0.00717899
-1.49743
1.50061
0.010158
-0.0136073
-1.25009
1.25354
0.0170013
-0.0209956
-1.04572
1.04971
0.0248623
-0.0292109
-0.87731
0.881658
0.0331828
-0.0373083
-0.739303
0.743429
0.0410081
-0.045148
-0.626334
0.630474
0.0494165
-0.054706
-0.534929
0.540219
0.0584569
-0.0592476
-0.457913
0.458703
0.0524297
-0.032047
-0.336384
0.316001
0.0097892
-0.0684944
0.0587052
-0.0531743
0.0491276
0.00404671
-0.0331489
0.0436334
-0.358392
0.347907
-0.0473433
0.0467509
-0.459525
0.460117
-0.0437688
0.0404941
-0.536039
0.539314
-0.0367776
0.0334361
-0.628462
0.631804
-0.0298631
0.0267041
-0.742278
0.745437
-0.0233442
0.0201668
-0.8816
0.884777
-0.0165582
0.0131691
-1.05042
1.05381
-0.00942273
0.00597479
-1.25504
1.25849
-0.00213987
-0.00151563
-1.50334
1.507
0.00513892
-0.00888029
-1.50413
1.50788
0.0122004
-0.0157702
-1.25715
1.26072
0.0189759
-0.0223711
-1.05348
1.05687
0.0253594
-0.0285324
-0.885264
0.888437
0.0315409
-0.0349656
-0.746915
0.750339
0.0381822
-0.0417695
-0.634483
0.638071
0.0449322
-0.0477882
-0.544442
0.547298
0.0482485
-0.0443535
-0.456864
0.452969
0.0336472
-0.0162737
-0.29662
0.279247
0.00412141
-0.0528819
0.0487605
-0.0460089
0.0434872
0.00252173
-0.0229027
0.0332571
-0.337278
0.326923
-0.0390268
0.0400036
-0.459835
0.458858
-0.0387783
0.0364716
-0.541992
0.544299
-0.0338221
0.0312509
-0.634807
0.637379
-0.0282337
0.025365
-0.748511
0.751379
-0.0221195
0.019113
-0.887788
0.890794
-0.0157836
0.0126627
-1.05699
1.06011
-0.00910369
0.00568594
-1.26192
1.26534
-0.00174747
-0.00207957
-1.51076
1.51459
0.00586493
-0.00967637
-1.51168
1.5155
0.0129237
-0.0162504
-1.26418
1.26751
0.0191316
-0.0221825
-1.06004
1.06309
0.0249398
-0.0279345
-0.891574
0.894569
0.0305973
-0.03341
-0.753519
0.756331
0.0358096
-0.0382853
-0.641066
0.643542
0.040443
-0.0414727
-0.549107
0.550137
0.0402914
-0.0342229
-0.44776
0.441692
0.0235421
-0.0103052
-0.264048
0.250811
0.00261365
-0.0455585
0.0429449
-0.0413928
0.0396105
0.00178224
-0.0168316
0.0260919
-0.31707
0.30781
-0.0326859
0.0348095
-0.457285
0.455161
-0.0343754
0.0326834
-0.54631
0.548002
-0.0304705
0.0283539
-0.639687
0.641804
-0.0259166
0.0235242
-0.754005
0.756398
-0.0206815
0.0179118
-0.893665
0.896435
-0.0147062
0.0116593
-1.06315
1.0662
-0.00818631
0.00486528
-1.26866
1.27199
-0.00101888
-0.00273736
-1.51837
1.52213
0.00643915
-0.0101258
-1.51924
1.52293
0.0132314
-0.0164106
-1.27076
1.27393
0.0191532
-0.0220027
-1.0661
1.06895
0.0244504
-0.0269669
-0.897358
0.899875
0.0290925
-0.0312667
-0.75877
0.760945
0.0331646
-0.0351536
-0.645726
0.647715
0.036629
-0.0367964
-0.550684
0.550851
0.0343591
-0.0273286
-0.435054
0.428023
0.0176294
-0.00745142
-0.23925
0.229072
0.00189451
-0.0407486
0.0388541
-0.0380758
0.036737
0.00133884
-0.0128527
0.0208157
-0.299202
0.291239
-0.0275647
0.0304786
-0.452611
0.449697
-0.0306766
0.0295467
-0.549442
0.550572
-0.0275423
0.0256121
-0.643857
0.645787
-0.0233966
0.0212504
-0.758642
0.760788
-0.0187333
0.0162504
-0.899004
0.901487
-0.0133087
0.0104331
-1.06912
1.07199
-0.00708303
0.00385235
-1.27523
1.27846
-0.000109854
-0.00352222
-1.5258
1.52943
0.00708724
-0.0106286
-1.52653
1.53007
0.01359
-0.0165733
-1.27704
1.28002
0.0190673
-0.0215614
-1.07168
1.07417
0.023641
-0.0257492
-0.902171
0.90428
0.0275587
-0.0294399
-0.762951
0.764833
0.0310933
-0.0328279
-0.649556
0.651291
0.0336415
-0.0330709
-0.550653
0.550082
0.0297085
-0.022362
-0.420778
0.413431
0.0138351
-0.00577339
-0.220053
0.211991
0.00147552
-0.0371953
0.0357198
-0.0355678
0.0345374
0.00103044
-0.0100383
0.016771
-0.283915
0.277183
-0.0232582
0.0266263
-0.446535
0.443167
-0.0273985
0.0266944
-0.55148
0.552185
-0.024922
0.0231293
-0.647688
0.64948
-0.0210535
0.0190337
-0.762869
0.764888
-0.0166582
0.0143278
-0.903827
0.906158
-0.0115861
0.00889577
-1.07471
1.0774
-0.005729
0.00263928
-1.28158
1.28467
0.000965284
-0.00446618
-1.53297
1.53647
0.00788356
-0.0112401
-1.53351
1.53686
0.0139957
-0.0167084
-1.28288
1.2856
0.0189292
-0.0211199
-1.07656
1.07875
0.022952
-0.0248203
-0.906277
0.908146
0.0264223
-0.0280832
-0.766595
0.768255
0.0295325
-0.0309331
-0.652879
0.654279
0.0312437
-0.0299423
-0.549161
0.547859
0.0259566
-0.0186831
-0.406096
0.398822
0.0112421
-0.00466097
-0.204739
0.198158
0.00119668
-0.0343999
0.0332032
-0.0336327
0.032831
0.000801697
-0.00795037
0.013607
-0.271017
0.26536
-0.0196097
0.0231755
-0.439689
0.436123
-0.0244248
0.0239668
-0.552796
0.553254
-0.022463
0.0207789
-0.651266
0.65295
-0.018798
0.0168654
-0.76686
0.768793
-0.0145865
0.012347
-0.908379
0.910619
-0.00971022
0.00713353
-1.07996
1.08254
-0.0041152
0.00116856
-1.28764
1.29059
0.00227122
-0.00560827
-1.53987
1.5432
0.00884403
-0.0119799
-1.54009
1.54323
0.014516
-0.016981
-1.28819
1.29065
0.0189833
-0.0209435
-1.08089
1.08285
0.0225705
-0.0242262
-0.909925
0.911581
0.0256453
-0.0271153
-0.769812
0.771282
0.0283711
-0.0293932
-0.655472
0.656495
0.0293312
-0.0273603
-0.546227
0.544256
0.0229694
-0.0159582
-0.391675
0.384664
0.00942169
-0.00389206
-0.192153
0.186624
0.00100374
-0.0321154
0.0311117
-0.032127
0.0315024
0.000624616
-0.00633971
0.0110766
-0.260191
0.255454
-0.0164882
0.0200545
-0.432555
0.428989
-0.0216273
0.0213943
-0.553634
0.553867
-0.0201224
0.0184984
-0.65465
0.656274
-0.016573
0.0146897
-0.770694
0.772577
-0.0124698
0.01029
-0.912755
0.914935
-0.00772428
0.00522007
-1.085
1.08751
-0.00229501
-0.000537527
-1.29342
1.29625
0.00383002
-0.00699847
-1.54642
1.54959
0.0100415
-0.0129602
-1.54623
1.54915
0.0152994
-0.0175513
-1.29301
1.29527
0.0193564
-0.0210969
-1.08478
1.08652
0.0225284
-0.0239863
-0.913155
0.914613
0.0252404
-0.0265367
-0.772656
0.773952
0.0276469
-0.02825
-0.657301
0.657904
0.0278167
-0.0252808
-0.542018
0.539482
0.0206402
-0.0139569
-0.377827
0.371144
0.00813467
-0.00335598
-0.181508
0.176729
0.000869962
-0.0301851
0.0293151
-0.0309574
0.0304762
0.000481171
-0.00504319
0.00898664
-0.251139
0.247196
-0.0137623
0.01718
-0.425503
0.422086
-0.0189359
0.018893
-0.554044
0.554087
-0.017816
0.0162265
-0.657943
0.659533
-0.0143236
0.0124552
-0.774442
0.77631
-0.0102537
0.00809765
-0.917018
0.919174
-0.0055694
0.00311254
-1.0899
1.09236
-0.000257271
-0.00250159
-1.29899
1.30174
0.00567257
-0.00869104
-1.55264
1.55566
0.0115575
-0.0142755
-1.55194
1.55465
0.0164279
-0.0184721
-1.29742
1.29946
0.0200833
-0.0216089
-1.08825
1.08978
0.0228549
-0.0241317
-0.915997
0.917274
0.0252381
-0.0263764
-0.775159
0.776297
0.0272931
-0.0275189
-0.658313
0.658539
0.0266858
-0.0236702
-0.536722
0.533706
0.0188773
-0.0125133
-0.364639
0.358275
0.00723423
-0.00298768
-0.172249
0.168003
0.000779607
-0.0284999
0.0277203
-0.0300627
0.0297029
0.000359817
-0.00395685
0.00720308
-0.243624
0.240378
-0.0113308
0.0144901
-0.418811
0.415651
-0.0163029
0.0164129
-0.554101
0.553991
-0.0154175
0.0139001
-0.661158
0.662676
-0.0119919
0.0101061
-0.778172
0.780057
-0.00788523
0.00571813
-0.921239
0.923406
-0.00319044
0.000747482
-1.09472
1.09716
0.00207675
-0.00477878
-1.30441
1.30711
0.00785795
-0.010753
-1.55858
1.56147
0.0134639
-0.0159936
-1.55724
1.55977
0.0179643
-0.019805
-1.3014
1.30324
0.0212264
-0.0225411
-1.09132
1.09264
0.0236063
-0.0247084
-0.918479
0.919581
0.0256705
-0.0266402
-0.77734
0.778309
0.027299
-0.0272374
-0.658639
0.658577
0.0259605
-0.0225185
-0.530489
0.527047
0.0176169
-0.0115164
-0.352068
0.345968
0.00662978
-0.00274713
-0.163967
0.160085
0.000722676
-0.0269785
0.0262559
-0.0294035
0.029152
0.000251525
-0.0030044
0.00562122
-0.237468
0.234851
-0.00910141
0.0119192
-0.412681
0.409864
-0.0136747
0.0138653
-0.553893
0.553702
-0.0129117
0.0114369
-0.664252
0.665727
-0.00950105
0.00756892
-0.781943
0.783875
-0.0052933
0.00308117
-0.925485
0.927697
-0.000516477
-0.00195059
-1.09951
1.10197
0.00477766
-0.00745737
-1.30973
1.31241
0.0104751
-0.0132712
-1.56427
1.56707
0.0158445
-0.0181973
-1.56218
1.56453
0.0199925
-0.0216339
-1.30497
1.30661
0.0228659
-0.0239654
-1.094
1.0951
0.0248451
-0.0257709
-0.92061
0.921536
0.0265893
-0.0273891
-0.779171
0.779971
0.027757
-0.0274075
-0.65837
0.65802
0.0256807
-0.0218221
-0.523418
0.519559
0.0168108
-0.01089
-0.339992
0.334071
0.00626184
-0.00260776
-0.156346
0.152692
0.000692247
-0.0255583
0.0248661
-0.0289577
0.028809
0.000148644
-0.00212227
0.00414818
-0.23255
0.230524
-0.0069761
0.00938247
-0.407275
0.404868
-0.0109728
0.0111651
-0.553573
0.553381
-0.0102195
0.00874899
-0.667296
0.668767
-0.00675821
0.00474989
-0.785812
0.78782
-0.00238411
9.53449e-05
-0.929824
0.932113
0.00255251
-0.00507627
-1.10435
1.10688
0.00794442
-0.0106329
-1.31501
1.3177
0.0136193
-0.0163379
-1.56977
1.57249
0.0187878
-0.0209719
-1.56676
1.56894
0.0225952
-0.0240373
-1.30814
1.30958
0.0250738
-0.0259436
-1.09627
1.09714
0.0266229
-0.0273558
-0.922376
0.923109
0.0280221
-0.028678
-0.780646
0.781302
0.0287307
-0.0280015
-0.657459
0.65673
0.0258217
-0.0215523
-0.515541
0.511271
0.0164069
-0.0105722
-0.328236
0.322401
0.0060857
-0.00254979
-0.149126
0.14559
0.000683143
-0.0241888
0.0235056
-0.0287172
0.0286727
4.45163e-05
-0.00126199
0.00271159
-0.228803
0.227354
-0.00487345
0.00680517
-0.402725
0.400793
-0.00812705
0.00823903
-0.553305
0.553193
-0.00725473
0.00575192
-0.67037
0.671872
-0.00366751
0.00155005
-0.789836
0.791954
0.000946381
-0.00335617
-0.93432
0.93673
0.00612136
-0.00873997
-1.10932
1.11194
0.0116891
-0.0144208
-1.32032
1.32305
0.0174077
-0.0200705
-1.57512
1.57779
0.0224097
-0.0244301
-1.571
1.57302
0.0258805
-0.027118
-1.31089
1.31213
0.0279508
-0.0285858
-1.09812
1.09876
0.0290578
-0.0295846
-0.923753
0.92428
0.030084
-0.0305285
-0.781754
0.782199
0.0302944
-0.0291031
-0.655781
0.654589
0.0264362
-0.0217245
-0.50685
0.502139
0.0163883
-0.0105318
-0.316607
0.31075
0.00607707
-0.00256235
-0.142097
0.138582
0.000692558
-0.0228291
0.0221365
-0.0286849
0.0287505
-6.55651e-05
-0.000377899
0.001246
-0.22621
0.225341
-0.00271489
0.00410746
-0.399157
0.397765
-0.00505832
0.00500452
-0.553257
0.553311
-0.0039237
0.00233438
-0.673559
0.675148
-0.000123349
-0.00214367
-0.794083
0.79635
0.00481846
-0.00738896
-0.939056
0.941626
0.0103216
-0.0130777
-1.11449
1.11724
0.0161514
-0.0189616
-1.32572
1.32853
0.0219805
-0.0246078
-1.58037
1.583
0.0268463
-0.028703
-1.5749
1.57676
0.0299746
-0.0309985
-1.31321
1.31424
0.0316203
-0.0320116
-1.09953
1.09992
0.0322669
-0.0325732
-0.924712
0.925018
0.032882
-0.033041
-0.782333
0.782492
0.0325094
-0.0307694
-0.653194
0.651454
0.027566
-0.022357
-0.497275
0.492066
0.0167509
-0.0107538
-0.304883
0.298886
0.00622347
-0.00263951
-0.135067
0.131483
0.000718814
-0.0214429
0.0207241
-0.0288756
0.0290559
-0.000180298
0.000542142
-0.000290199
-0.224791
0.224539
-0.00043543
0.00121034
-0.396699
0.395924
-0.00167957
0.00137849
-0.55361
0.553911
-0.00014633
-0.00160709
-0.676976
0.678729
0.00401031
-0.0064774
-0.798639
0.801106
0.00938122
-0.0121599
-0.944115
0.946893
0.0153127
-0.0182532
-1.11994
1.12288
0.0214988
-0.0244251
-1.33129
1.33421
0.0275082
-0.0301183
-1.58555
1.58816
0.0322611
-0.0339478
-1.57847
1.58016
0.0350323
-0.0358247
-1.31508
1.31587
0.0362227
-0.0363571
-1.10045
1.10058
0.0363794
-0.0364485
-0.925212
0.925281
0.0365603
-0.0363478
-0.782276
0.782064
0.0354317
-0.033076
-0.649547
0.647191
0.0292634
-0.0234699
-0.486687
0.480893
0.0174908
-0.0112243
-0.292822
0.286555
0.00651249
-0.00277473
-0.127858
0.12412
0.00075987
-0.0199975
0.0192376
-0.0293195
0.0296469
-0.000327399
0.00156783
-0.00195839
-0.224634
0.225024
0.0020821
-0.00203365
-0.395479
0.395431
0.00217804
-0.00284208
-0.554582
0.555246
0.00431129
-0.0062606
-0.680772
0.682721
0.00890344
-0.0116206
-0.803589
0.806306
0.0148139
-0.0178575
-0.949595
0.952638
0.0212908
-0.0244671
-1.12576
1.12894
0.0279348
-0.0310146
-1.33709
1.34017
0.0341922
-0.0367996
-1.59069
1.5933
0.0388451
-0.0403426
-1.58169
1.58318
0.04122
-0.0417682
-1.31643
1.31698
0.0419265
-0.0417793
-1.10082
1.10068
0.0415431
-0.0413555
-0.925201
0.925014
0.0412583
-0.040568
-0.781429
0.780739
0.0391833
-0.0361116
-0.64469
0.641619
0.0315871
-0.0250877
-0.474897
0.468398
0.0186103
-0.0119346
-0.280161
0.273485
0.00693485
-0.00296241
-0.120304
0.116331
0.000813691
-0.0184643
0.0176506
-0.0300452
0.0305505
-0.00050537
0.00285746
-0.00400991
-0.225815
0.226967
0.00500198
-0.00575603
-0.39572
0.396474
0.00662278
-0.00775398
-0.5564
0.557531
0.00954925
-0.0117766
-0.68504
0.687267
0.0147456
-0.0177869
-0.809044
0.812086
0.0213465
-0.0247213
-0.955611
0.958985
0.0285029
-0.0319708
-1.13207
1.13554
0.0357118
-0.0389799
-1.34321
1.34648
0.0422729
-0.0448791
-1.59582
1.59843
0.0468141
-0.0481036
-1.58451
1.5858
0.048733
-0.0490217
-1.31725
1.31754
0.0489178
-0.0484612
-1.1006
1.10015
0.0479465
-0.0474857
-0.924616
0.924155
0.0470583
-0.0459109
-0.779648
0.778501
0.0439066
-0.03998
-0.638411
0.634484
0.0346056
-0.0272404
-0.461649
0.454284
0.0201141
-0.0128764
-0.266615
0.259378
0.00748066
-0.00319636
-0.112244
0.10796
0.000878125
-0.0168188
0.0159406
-0.031126
0.0318534
-0.00072735
0.00436273
-0.00640285
-0.228532
0.230572
0.00846314
-0.0101275
-0.397631
0.399296
0.011823
-0.0135396
-0.559324
0.561041
0.0157971
-0.0184038
-0.68995
0.692557
0.021808
-0.0252583
-0.815155
0.818606
0.0292734
-0.0330565
-0.962299
0.966082
0.0372633
-0.0410824
-1.13897
1.14279
0.045146
-0.0486293
-1.3497
1.35319
0.0520446
-0.0546339
-1.60094
1.60352
0.0564256
-0.057462
-1.58689
1.58792
0.0578075
-0.057789
-1.31746
1.31744
0.0573945
-0.0566026
-1.09973
1.09893
0.0557814
-0.0550107
-0.923408
0.922637
0.0541763
-0.0525037
-0.776983
0.77531
0.0497423
-0.0447786
-0.630418
0.625454
0.0383703
-0.0299369
-0.446608
0.438175
0.0219868
-0.0140254
-0.251877
0.243915
0.00812842
-0.00346408
-0.103529
0.0988642
0.000948723
-0.0150418
0.0140931
-0.0326447
0.0336617
-0.00101707
0.00625324
-0.00935313
-0.233033
0.236132
0.0126833
-0.015409
-0.401481
0.404207
0.0180749
-0.0205052
-0.563631
0.566061
0.02337
-0.0264779
-0.695715
0.698823
0.0304478
-0.0344154
-0.822093
0.826061
0.0389926
-0.0432704
-0.969817
0.974095
0.0479819
-0.0522065
-1.14658
1.1508
0.0566276
-0.0603326
-1.35662
1.36032
0.0638479
-0.0663751
-1.60599
1.60851
0.0679634
-0.0686777
-1.58872
1.58944
0.068673
-0.0682808
-1.31692
1.31653
0.0675697
-0.0664031
-1.09811
1.09694
0.0652386
-0.0641651
-0.921515
0.920442
0.0628014
-0.0605081
-0.77327
0.770977
0.0568159
-0.0505728
-0.620341
0.614098
0.0428957
-0.0331492
-0.429361
0.419614
0.0241813
-0.0153333
-0.235622
0.226774
0.0088413
-0.00374627
-0.0940293
0.0889343
0.00101925
-0.0131237
0.0121045
-0.0347279
0.0361463
-0.00141845
0.00872866
-0.0131803
-0.239644
0.244095
0.0180052
-0.0219685
-0.407636
0.4116
0.0257695
-0.0290646
-0.569651
0.572946
0.032715
-0.0364854
-0.702601
0.706372
0.0411856
-0.0458018
-0.83007
0.834686
0.0510599
-0.0559191
-0.978338
0.983197
0.0612037
-0.0658653
-1.15499
1.15965
0.0706417
-0.0745321
-1.36394
1.36783
0.0780731
-0.0804431
-1.61086
1.61323
0.081726
-0.0820171
-1.58986
1.59015
0.0815972
-0.0807286
-1.31552
1.31465
0.0796434
-0.0780807
-1.09565
1.09408
0.0765791
-0.0750881
-0.918906
0.917415
0.0732057
-0.0700794
-0.768279
0.765152
0.0652137
-0.05738
-0.607675
0.599842
0.0481418
-0.0367937
-0.40941
0.398062
0.0266015
-0.0167162
-0.217536
0.20765
0.00956026
-0.00401375
-0.0836593
0.0781128
0.0010807
-0.0110689
0.00998824
-0.0375765
0.039564
-0.00198746
0.0121625
-0.0183443
-0.248878
0.25506
0.0249677
-0.0303754
-0.416595
0.422002
0.0355205
-0.0398742
-0.577778
0.582132
0.044521
-0.0491573
-0.710949
0.715585
0.0547945
-0.0602057
-0.83934
0.844751
0.0662622
-0.0717697
-0.98803
0.993538
0.0776522
-0.082727
-1.16425
1.16932
0.0877824
-0.0917487
-1.37156
1.37553
0.0951594
-0.0972063
-1.61532
1.61737
0.0980193
-0.0977345
-1.59006
1.58978
0.0968016
-0.0953573
-1.31311
1.31167
0.0938214
-0.0918346
-1.09226
1.09028
0.0899555
-0.0879154
-0.915302
0.913262
0.0855008
-0.0812862
-0.761531
0.757316
0.0749502
-0.0651297
-0.591778
0.581958
0.0539708
-0.0406967
-0.386187
0.372913
0.0290785
-0.0180418
-0.19734
0.186304
0.0101984
-0.00422627
-0.0724002
0.0664281
0.00112125
-0.00890101
0.00777976
-0.041511
0.0443773
-0.00286628
0.017166
-0.0256061
-0.261484
0.269924
0.0344562
-0.0416037
-0.429027
0.436174
0.048378
-0.0540096
-0.588501
0.594133
0.0599568
-0.0657307
-0.721181
0.726955
0.0725133
-0.0788349
-0.850176
0.856497
0.0857442
-0.0918815
-0.998998
1.00514
0.0982703
-0.103616
-1.17425
1.1796
0.108741
-0.112556
-1.37921
1.38303
0.115558
-0.117018
-1.619
1.62046
0.117119
-0.116048
-1.589
1.58793
0.114439
-0.112329
-1.30948
1.30737
0.110275
-0.10783
-1.08786
1.08542
0.105564
-0.102845
-0.910422
0.907703
0.099729
-0.0940915
-0.752457
0.74682
0.0858867
-0.0735885
-0.571812
0.559514
0.060094
-0.0445582
-0.359079
0.343543
0.0313491
-0.0191217
-0.174861
0.162633
0.0106402
-0.00433378
-0.0603386
0.0540322
0.00112707
-0.00666756
0.00554049
-0.0471092
0.051464
-0.00435485
0.0248996
-0.0364143
-0.278619
0.290134
0.0481644
-0.0576336
-0.445962
0.455431
0.0664367
-0.073564
-0.602422
0.609549
0.0810661
-0.0883583
-0.733673
0.740965
0.0963406
-0.103492
-0.862779
0.869931
0.111083
-0.117624
-1.01112
1.01766
0.124198
-0.129472
-1.18462
1.18989
0.134251
-0.137518
-1.38635
1.38962
0.139673
-0.14016
-1.6213
1.62178
0.139222
-0.137104
-1.58623
1.58411
0.134642
-0.131732
-1.30443
1.30152
0.129071
-0.126124
-1.08232
1.07938
0.123357
-0.11996
-0.904086
0.900689
0.11583
-0.10828
-0.74032
0.73277
0.0976408
-0.0822729
-0.546729
0.531361
0.0660109
-0.0479341
-0.327496
0.30942
0.0330627
-0.0197287
-0.15012
0.136786
0.0107556
-0.00428342
-0.0477072
0.041235
0.00108366
-0.00444222
0.00335857
-0.05545
0.0629095
-0.00745952
0.0384477
-0.0544486
-0.302444
0.318445
0.0702726
-0.0829695
-0.469057
0.481754
0.0939682
-0.102473
-0.619985
0.628489
0.111491
-0.120061
-0.748815
0.757384
0.128969
-0.136527
-0.876842
0.8844
0.144205
-0.150539
-1.02378
1.03011
0.156611
-0.161169
-1.19453
1.19909
0.164926
-0.167028
-1.39208
1.39418
0.167757
-0.166807
-1.62138
1.62042
0.164463
-0.161002
-1.58122
1.57776
0.157464
-0.153569
-1.29767
1.29378
0.150227
-0.146772
-1.07549
1.07203
0.143405
-0.13914
-0.896067
0.891802
0.133479
-0.123276
-0.723976
0.713773
0.109442
-0.0903171
-0.515215
0.49609
0.0709951
-0.0503137
-0.291031
0.270349
0.0339038
-0.0197215
-0.123477
0.109294
0.0104879
-0.00406184
-0.034917
0.0284909
0.000985076
-0.0023241
0.00133902
-0.069848
0.0739796
-0.00413158
0.0293796
-0.0432868
-0.336959
0.350866
0.0573526
-0.0690266
-0.499755
0.511429
0.0794704
-0.0892079
-0.64079
0.650527
0.100076
-0.11007
-0.76546
0.775454
0.121178
-0.131066
-0.891043
0.900931
0.141609
-0.150994
-1.0355
1.04489
0.160804
-0.169212
-1.20256
1.21097
0.177568
-0.184231
-1.39513
1.40179
0.190162
-0.194027
-1.61829
1.62215
0.195806
-0.196091
-1.5733
1.57358
0.195252
-0.193756
-1.28885
1.28735
0.192535
-0.190894
-1.06713
1.06549
0.189027
-0.184759
-0.885633
0.881365
0.176819
-0.161382
-0.701771
0.686334
0.140263
-0.112285
-0.475943
0.447966
0.0855757
-0.0584165
-0.249691
0.222532
0.0381007
-0.0214535
-0.0957783
0.0791311
0.0110668
-0.00414738
-0.0225512
0.0156318
0.000971298
-0.000414903
-0.000556395
-0.0813463
0.0793467
0.00199958
0.00750393
-0.0166995
-0.367524
0.376719
0.0274211
-0.0357217
-0.527769
0.53607
0.0441047
-0.052292
-0.662865
0.671053
0.0622872
-0.0716178
-0.785052
0.794383
0.0815748
-0.0906627
-0.910245
0.919333
0.100317
-0.108566
-1.05398
1.06223
0.117366
-0.124536
-1.21917
1.22634
0.131596
-0.136929
-1.40813
1.41346
0.141108
-0.14341
-1.6252
1.6275
0.143657
-0.142417
-1.57319
1.57195
0.140051
-0.136912
-1.28508
1.28194
0.134096
-0.13103
-1.06143
1.05836
0.127799
-0.122496
-0.87263
0.867326
0.113895
-0.099898
-0.666832
0.652835
0.0832828
-0.0633792
-0.418379
0.398476
0.0461837
-0.0304725
-0.195913
0.180202
0.0195145
-0.0109572
-0.0635894
0.0550322
0.0057132
-0.00217885
-0.00902187
0.00548752
0.000458104
0.00162583
-0.00208394
-0.0827628
0.0797918
0.00297103
-0.00175914
-0.00355026
-0.388203
0.393512
0.0108524
-0.0168594
-0.548513
0.55452
0.0230433
-0.0302302
-0.681486
0.688673
0.0388894
-0.0469903
-0.8028
0.810901
0.0558484
-0.0637665
-0.927651
0.935569
0.0719227
-0.0792466
-1.07028
1.07761
0.0868325
-0.0930778
-1.23304
1.23929
0.0987379
-0.102757
-1.41808
1.4221
0.105784
-0.106792
-1.62904
1.63005
0.105762
-0.103253
-1.57005
1.56755
0.0998722
-0.0958311
-1.2784
1.27436
0.091744
-0.0874371
-1.05311
1.0488
0.0830952
-0.0771574
-0.857647
0.85171
0.0693042
-0.0577558
-0.635812
0.624264
0.0457266
-0.0328477
-0.377066
0.364187
0.0231538
-0.0151786
-0.164235
0.15626
0.00995276
-0.00593855
-0.0465923
0.0425781
0.00332744
-0.00124604
-0.00202451
-5.68978e-05
0.000293049
0.00276276
-0.00305581
-0.0814435
0.0786218
0.00282166
-0.00548553
0.0029606
-0.401982
0.404507
0.00173864
-0.00628764
-0.563813
0.568362
0.0115123
-0.0175376
-0.69684
0.702865
0.0249177
-0.0318344
-0.81834
0.825257
0.039382
-0.0461509
-0.942933
0.949702
0.0534953
-0.0596667
-1.08447
1.09064
0.0662251
-0.0711337
-1.24508
1.24998
0.0758309
-0.0789848
-1.42583
1.42898
0.0808904
-0.0806694
-1.63052
1.6303
0.0788417
-0.0755551
-1.56439
1.5611
0.0714728
-0.0662844
-1.26984
1.26465
0.0614139
-0.0560993
-1.04277
1.03745
0.0507585
-0.0447712
-0.841596
0.835609
0.0377089
-0.0289173
-0.609965
0.601173
0.0209397
-0.0138208
-0.350199
0.34308
0.00936719
-0.006251
-0.147481
0.144365
0.00436073
-0.00292291
-0.0380001
0.0365622
0.00178722
-0.000751614
0.00207235
-0.00310796
0.00020167
0.00360507
-0.00380674
-0.079846
0.0773334
0.00251262
-0.00669299
0.00582398
-0.411101
0.41197
-0.00240304
-0.000808618
-0.57609
0.579302
0.00506342
-0.0105384
-0.709685
0.71516
0.0167206
-0.0227642
-0.831453
0.837497
0.0292679
-0.0351089
-0.955988
0.961829
0.0413569
-0.0467816
-1.09664
1.10207
0.0522502
-0.0566295
-1.2547
1.25908
0.0604819
-0.0628915
-1.43169
1.4341
0.0640049
-0.0630676
-1.62979
1.62885
0.0605748
-0.0564359
-1.557
1.55286
0.051795
-0.0461422
-1.25921
1.25355
0.0406793
-0.0345038
-1.03084
1.02466
0.0287489
-0.0226243
-0.825869
0.819744
0.0167026
-0.010139
-0.590171
0.583608
0.00526632
-0.00203421
-0.334324
0.331092
0.000761473
-0.000465212
-0.139763
0.139467
0.000555531
-0.000656487
-0.0344028
0.0345038
0.00054778
-0.000291535
0.00426633
-0.00452257
0.000100221
0.0042182
-0.00431842
-0.0783317
0.0761627
0.00216892
-0.0066512
0.0063324
-0.417259
0.417578
-0.00432193
0.00174401
-0.585439
0.588016
0.00229224
-0.00695569
-0.720532
0.725195
0.0122428
-0.0174649
-0.84273
0.847952
0.0232127
-0.0283897
-0.96729
0.972467
0.0340393
-0.0387202
-1.10718
1.11186
0.043534
-0.0473485
-1.26312
1.26693
0.0505593
-0.0524139
-1.43617
1.43802
0.0529279
-0.0518425
-1.62771
1.62663
0.0488507
-0.0444263
-1.54816
1.54373
0.0394097
-0.0333508
-1.24756
1.2415
0.0277415
-0.0210331
-1.0177
1.01099
0.0149469
-0.0087855
-0.810737
0.804575
0.00355823
0.00134312
-0.574837
0.569936
-0.0043428
0.00548475
-0.325432
0.32429
-0.00484598
0.00362265
-0.13759
0.138813
-0.0024927
0.00131237
-0.034128
0.0353084
-0.000590466
0.000168609
0.00482452
-0.00440266
-1.42513e-05
0.00454666
-0.00453241
-0.0771292
0.0754176
0.00171154
-0.0058392
0.00589415
-0.421723
0.421668
-0.00431736
0.00241852
-0.593522
0.59542
0.00129787
-0.00550158
-0.729846
0.73405
0.0104845
-0.0149478
-0.85275
0.857214
0.0199546
-0.0244972
-0.977581
0.982124
0.0297882
-0.0339682
-1.11654
1.12072
0.0381481
-0.0416395
-1.27051
1.274
0.0448312
-0.0463392
-1.43983
1.44133
0.0466473
-0.0452139
-1.62505
1.62362
0.0423043
-0.0374413
-1.53899
1.53413
0.0324463
-0.0263988
-1.23516
1.22911
0.0205229
-0.0138824
-1.00389
0.997245
0.00764861
-0.00122577
-0.796199
0.789776
-0.00304993
0.00706314
-0.562384
0.558371
-0.00934389
0.00947629
-0.320458
0.320326
-0.00818553
0.00636442
-0.138537
0.140358
-0.00460523
0.00277661
-0.0360271
0.0378557
-0.00148209
0.000570808
0.00399429
-0.00308301
-0.000123575
0.00456433
-0.00444076
-0.0764159
0.0750563
0.00135954
-0.00481057
0.00502221
-0.425152
0.424941
-0.00367611
0.00188901
-0.600479
0.602266
0.0016509
-0.00536929
-0.738154
0.741873
0.00960139
-0.0138671
-0.861596
0.865861
0.0184443
-0.0230703
-0.986439
0.991065
0.0275583
-0.0314799
-1.12496
1.12888
0.035693
-0.0388348
-1.27732
1.28046
0.0414083
-0.0431808
-1.44269
1.44446
0.0434677
-0.0420953
-1.62217
1.6208
0.039102
-0.0345481
-1.52939
1.52484
0.0296298
-0.0236461
-1.22269
1.2167
0.0179227
-0.0113558
-0.990234
0.983667
0.00526872
0.000792289
-0.782095
0.776034
-0.00527048
0.00876799
-0.551574
0.548076
-0.0106779
0.0108215
-0.317435
0.317291
-0.00951265
0.00746793
-0.140685
0.14273
-0.00559068
0.00354332
-0.0391329
0.0411803
-0.0019898
0.000837756
0.00219701
-0.00104497
-0.000206318
0.00432317
-0.00411686
-0.0762229
0.0750827
0.00114018
-0.00356347
0.00356572
-0.42815
0.428148
-0.0025297
0.000802131
-0.606795
0.608523
0.0025946
-0.00615513
-0.745801
0.749361
0.0101763
-0.0139977
-0.869882
0.873703
0.0186443
-0.022427
-0.995077
0.99886
0.0268232
-0.0305005
-1.13293
1.1366
0.0345183
-0.0377713
-1.28355
1.2868
0.040525
-0.041962
-1.44594
1.44738
0.0424415
-0.0413079
-1.6193
1.61816
0.0387798
-0.0343478
-1.52011
1.51568
0.0297084
-0.0239716
-1.2108
1.20507
0.0185117
-0.0121361
-0.976755
0.97038
0.00637515
-0.000306047
-0.768701
0.762632
-0.00414624
0.00753356
-0.541733
0.538346
-0.0094952
0.00993304
-0.314726
0.314288
-0.00915828
0.00749874
-0.143038
0.144697
-0.00581518
0.00383225
-0.042578
0.0445609
-0.00224905
0.000996087
-6.5312e-05
0.00131827
-0.000272554
0.00391899
-0.00364644
-0.076309
0.075506
0.000802984
-0.00242288
0.00197618
-0.431185
0.431632
-0.00110511
-0.000744334
-0.612291
0.614141
0.00378707
-0.00717777
-0.752887
0.756277
0.0109964
-0.0149158
-0.877357
0.881276
0.0189016
-0.0228072
-1.00282
1.00673
0.0271188
-0.0305389
-1.14068
1.1441
0.0345876
-0.0377318
-1.28981
1.29296
0.0404646
-0.0423504
-1.44918
1.45107
0.043214
-0.0422525
-1.61703
1.61607
0.0398534
-0.0360317
-1.5114
1.50758
0.0318596
-0.0264319
-1.19923
1.1938
0.0211948
-0.0153744
-0.963898
0.958078
0.00955508
-0.00388654
-0.755615
0.749947
-0.000851328
0.00443101
-0.532289
0.528709
-0.00633759
0.00731665
-0.311532
0.310553
-0.00715712
0.00622051
-0.144718
0.145655
-0.00497576
0.00341722
-0.0457188
0.0472774
-0.0020966
0.000945834
-0.0023456
0.00349637
-0.000272172
0.00339894
-0.00312677
-0.0768135
0.0761845
0.000628973
-0.00145581
0.00108913
-0.434416
0.434783
0.000269302
-0.0021387
-0.617805
0.619674
0.00530548
-0.00853275
-0.759415
0.762643
0.0121714
-0.0156611
-0.884833
0.888323
0.0197427
-0.0233037
-1.01061
1.01417
0.0275307
-0.0313552
-1.14795
1.15177
0.0349982
-0.0384291
-1.29611
1.29954
0.0415299
-0.043449
-1.45282
1.45474
0.0446149
-0.0443652
-1.6153
1.61505
0.0423435
-0.0390947
-1.50362
1.50037
0.0351195
-0.030176
-1.18845
1.18351
0.0254087
-0.0198291
-0.95186
0.946281
0.0144692
-0.00893623
-0.743209
0.737676
0.00422561
-9.51026e-06
-0.522688
0.518472
-0.00238595
0.00381789
-0.307476
0.306044
-0.0043852
0.00413751
-0.145136
0.145383
-0.00350467
0.00254351
-0.0479592
0.0489203
-0.00163129
0.000770459
-0.00428848
0.00514931
-0.000239346
0.00289687
-0.00265752
-0.0776061
0.0771647
0.000441331
-0.000419281
-4.93652e-05
-0.437827
0.438296
0.00153178
-0.00366394
-0.623049
0.625181
0.00671117
-0.00975968
-0.765663
0.768711
0.0134698
-0.0167909
-0.891768
0.895089
0.0206926
-0.0243568
-1.01819
1.02185
0.0284638
-0.0322295
-1.15542
1.15919
0.036067
-0.0394954
-1.30286
1.30629
0.0427467
-0.0453795
-1.45691
1.45955
0.0469409
-0.0469379
-1.61471
1.6147
0.045565
-0.0426132
-1.49701
1.49406
0.0392008
-0.0348466
-1.17855
1.1742
0.0302145
-0.0249697
-0.940464
0.93522
0.0198772
-0.0143337
-0.73128
0.725737
0.00965817
-0.00504747