/*--------------------------------*- C++ -*----------------------------------*\
| =========                 |                                                 |
| \\      /  F ield         | OpenFOAM: The Open Source CFD Toolbox           |
|  \\    /   O peration     | Version:  2306                                  |
|   \\  /    A nd           | Website:  www.openfoam.com                      |
|    \\/     M anipulation  |                                                 |
\*---------------------------------------------------------------------------*/
FoamFile
{
    version     2.0;
    format      ascii;
    arch        "LSB;label=32;scalar=64";
    class       volVectorField;
    location    "67";
    object      U;
}
// * * * * * * * * * * * * * * * * * * * * * * * * * * * * * * * * * * * * * //

dimensions      [0 1 -1 0 0 0 0];

internalField   nonuniform List<vector> 
8800
(
(0.984956 -0.0884517 0)
(1.00212 -0.0568245 0)
(0.999652 -0.0305572 0)
(1 -0.015864 0)
(1.00009 -0.00872396 0)
(1.00011 -0.00508923 0)
(1.00007 -0.00300007 0)
(1.00002 -0.00168847 0)
(0.999999 -0.000782972 0)
(1.00007 -7.95431e-05 0)
(0.99998 0.00063434 0)
(0.99999 0.00139576 0)
(1.00003 0.00242051 0)
(1.00005 0.00401188 0)
(1.00004 0.00671774 0)
(1.00001 0.0117412 0)
(0.999841 0.0220507 0)
(0.99917 0.0411651 0)
(1.00748 0.0768941 0)
(0.773655 0.0450714 0)
(0.361013 -0.0151707 0)
(1.04557 -0.0741968 0)
(1.0871 -0.0678831 0)
(1.04775 -0.052293 0)
(1.0246 -0.0383891 0)
(1.01243 -0.0261103 0)
(1.00653 -0.0167589 0)
(1.00364 -0.0102347 0)
(1.00219 -0.00557935 0)
(1.00152 -0.00196326 0)
(1.00138 0.00127157 0)
(1.00172 0.00460034 0)
(1.0027 0.00850851 0)
(1.00472 0.013837 0)
(1.00881 0.0215544 0)
(1.01734 0.0323673 0)
(1.03444 0.0457022 0)
(1.06548 0.0598054 0)
(1.09407 0.0729166 0)
(0.842193 0.0557168 0)
(0.2171 -0.00164603 0)
(1.07588 -0.0503474 0)
(1.09984 -0.0487051 0)
(1.06466 -0.0401541 0)
(1.04001 -0.03299 0)
(1.02383 -0.0256869 0)
(1.01404 -0.0182888 0)
(1.00853 -0.0115433 0)
(1.00567 -0.00572281 0)
(1.00448 -0.000390652 0)
(1.00478 0.00475596 0)
(1.00662 0.0100874 0)
(1.01056 0.0161234 0)
(1.01786 0.023015 0)
(1.03049 0.0302634 0)
(1.05063 0.0372557 0)
(1.08034 0.0445881 0)
(1.10617 0.0517951 0)
(0.942776 0.0413444 0)
(0.216429 0.00166886 0)
(0.175938 -0.000644849 0)
(1.01872 -0.0353994 0)
(1.10561 -0.0414022 0)
(1.07815 -0.0362353 0)
(1.05291 -0.0302064 0)
(1.03565 -0.0244728 0)
(1.02361 -0.0187271 0)
(1.01567 -0.0126831 0)
(1.011 -0.00652381 0)
(1.00892 -0.000234245 0)
(1.00944 0.00596619 0)
(1.01253 0.0119278 0)
(1.01858 0.017726 0)
(1.02832 0.0232721 0)
(1.04263 0.0286812 0)
(1.06334 0.0343296 0)
(1.09375 0.0402869 0)
(1.09408 0.0419048 0)
(0.828699 0.0228003 0)
(0.1748 0.000669099 0)
(0.154405 -0.000486668 0)
(0.957399 -0.0255407 0)
(1.10414 -0.0350674 0)
(1.088 -0.0326202 0)
(1.0615 -0.0280645 0)
(1.04361 -0.0230589 0)
(1.03118 -0.017777 0)
(1.02246 -0.0122478 0)
(1.0168 -0.00631803 0)
(1.01408 0.000170483 0)
(1.0147 0.00665812 0)
(1.01853 0.0125432 0)
(1.02542 0.0178227 0)
(1.03563 0.0227557 0)
(1.05028 0.0275511 0)
(1.07196 0.0320182 0)
(1.10065 0.0358862 0)
(1.06902 0.0340143 0)
(0.74103 0.0143837 0)
(0.152691 0.000513646 0)
(0.139895 -0.000357813 0)
(0.900491 -0.0191926 0)
(1.09653 -0.0301144 0)
(1.09613 -0.029226 0)
(1.06916 -0.0254672 0)
(1.05046 -0.0213559 0)
(1.03749 -0.0166135 0)
(1.02844 -0.0113437 0)
(1.02242 -0.00560906 0)
(1.01936 0.000760868 0)
(1.01994 0.00713777 0)
(1.02395 0.0127793 0)
(1.03103 0.0177241 0)
(1.04154 0.0221635 0)
(1.05679 0.0261066 0)
(1.07938 0.0295796 0)
(1.10288 0.0322375 0)
(1.03702 0.0281746 0)
(0.674282 0.0102735 0)
(0.137476 0.000389432 0)
(0.129265 -0.000273198 0)
(0.850807 -0.0148156 0)
(1.08419 -0.0260021 0)
(1.10183 -0.0263174 0)
(1.07602 -0.0230006 0)
(1.0568 -0.0193418 0)
(1.04339 -0.0151162 0)
(1.03397 -0.0102155 0)
(1.02769 -0.00468996 0)
(1.02441 0.00149116 0)
(1.02486 0.0076419 0)
(1.02884 0.013002 0)
(1.03606 0.0175363 0)
(1.04684 0.0213657 0)
(1.06248 0.0246779 0)
(1.08551 0.0276625 0)
(1.10201 0.0294342 0)
(1.00214 0.0236671 0)
(0.622239 0.00789891 0)
(0.125987 0.000311311 0)
(0.121164 -0.000210414 0)
(0.80854 -0.0116416 0)
(1.06894 -0.022396 0)
(1.10539 -0.0236775 0)
(1.08229 -0.0207939 0)
(1.06263 -0.0173516 0)
(1.04894 -0.0134149 0)
(1.03926 -0.0088419 0)
(1.03269 -0.00358591 0)
(1.02918 0.00236797 0)
(1.02945 0.00825307 0)
(1.03337 0.013262 0)
(1.04064 0.0173323 0)
(1.05152 0.0206699 0)
(1.06739 0.0235824 0)
(1.09078 0.0262584 0)
(1.09825 0.0271236 0)
(0.966837 0.0201298 0)
(0.580389 0.00635545 0)
(0.11684 0.000256558 0)
(0.114891 -0.000162135 0)
(0.772948 -0.00926431 0)
(1.05218 -0.019219 0)
(1.10778 -0.0212318 0)
(1.08818 -0.018724 0)
(1.06812 -0.0154336 0)
(1.05418 -0.0116591 0)
(1.0443 -0.00728822 0)
(1.0375 -0.00227117 0)
(1.03371 0.00342586 0)
(1.03375 0.00900456 0)
(1.03754 0.0136334 0)
(1.04475 0.0172929 0)
(1.05563 0.0202466 0)
(1.07171 0.0228315 0)
(1.09477 0.0251598 0)
(1.09165 0.0252131 0)
(0.932443 0.0174012 0)
(0.545724 0.00530085 0)
(0.109297 0.000218023 0)
(0.110004 -0.000123708 0)
(0.743101 -0.00741906 0)
(1.03498 -0.0163998 0)
(1.10922 -0.0189274 0)
(1.09378 -0.0167278 0)
(1.07343 -0.0135324 0)
(1.05921 -0.00985061 0)
(1.04914 -0.00559955 0)
(1.04212 -0.000750966 0)
(1.03803 0.00469983 0)
(1.03778 0.00995852 0)
(1.04133 0.0142255 0)
(1.0484 0.017521 0)
(1.05926 0.0201253 0)
(1.07554 0.0224192 0)
(1.09748 0.0243707 0)
(1.08259 0.0236538 0)
(0.899527 0.0153318 0)
(0.516185 0.00456739 0)
(0.102868 0.00019134 0)
(0.106217 -9.1867e-05 0)
(0.718181 -0.00593079 0)
(1.01816 -0.0138669 0)
(1.10984 -0.0166978 0)
(1.09928 -0.0147748 0)
(1.07866 -0.011593 0)
(1.06414 -0.00794317 0)
(1.05385 -0.00375393 0)
(1.04657 0.000985254 0)
(1.04215 0.00622961 0)
(1.04153 0.0111882 0)
(1.04477 0.015116 0)
(1.05165 0.0180645 0)
(1.06246 0.020329 0)
(1.07892 0.0223592 0)
(1.09882 0.0239057 0)
(1.07145 0.0224428 0)
(0.868205 0.0138081 0)
(0.490305 0.00406452 0)
(0.0972062 0.000173936 0)
(0.103339 -6.42886e-05 0)
(0.697545 -0.0046823 0)
(1.00236 -0.0115535 0)
(1.10979 -0.014506 0)
(1.10462 -0.0127788 0)
(1.08389 -0.0095629 0)
(1.06905 -0.00588675 0)
(1.05849 -0.00169841 0)
(1.0509 0.00298245 0)
(1.04608 0.00807048 0)
(1.045 0.0127614 0)
(1.04787 0.0163645 0)
(1.05452 0.0189742 0)
(1.06526 0.0209025 0)
(1.08186 0.0226752 0)
(1.09915 0.0238186 0)
(1.0585 0.0215931 0)
(0.838309 0.0127406 0)
(0.466985 0.00373609 0)
(0.09205 0.000163868 0)
(0.101251 -3.88828e-05 0)
(0.680724 -0.0035857 0)
(0.988021 -0.00938904 0)
(1.10927 -0.0122658 0)
(1.10979 -0.0106537 0)
(1.0892 -0.00738103 0)
(1.07402 -0.00361922 0)
(1.06313 0.000632651 0)
(1.05516 0.00531028 0)
(1.04985 0.0102939 0)
(1.04822 0.0147474 0)
(1.05064 0.0180342 0)
(1.05701 0.0203053 0)
(1.06765 0.0218932 0)
(1.0843 0.0233953 0)
(1.09847 0.0241149 0)
(1.04389 0.0211169 0)
(0.809511 0.0120583 0)
(0.445367 0.00354388 0)
(0.087196 0.000159576 0)
(0.0998895 -1.38032e-05 0)
(0.667413 -0.00257188 0)
(0.975506 -0.00729931 0)
(1.10862 -0.0099184 0)
(1.11492 -0.00833882 0)
(1.09468 -0.00497235 0)
(1.07911 -0.00106119 0)
(1.06784 0.00331629 0)
(1.05941 0.00805521 0)
(1.05349 0.0129849 0)
(1.0512 0.0172273 0)
(1.05308 0.0202029 0)
(1.05912 0.022125 0)
(1.06962 0.0233535 0)
(1.08628 0.0245887 0)
(1.09653 0.02485 0)
(1.02768 0.0210045 0)
(0.781375 0.0117077 0)
(0.424744 0.00346307 0)
(0.0824788 0.000159995 0)
(0.0992398 1.33864e-05 0)
(0.657458 -0.00158681 0)
(0.965132 -0.00521234 0)
(1.10814 -0.00740002 0)
(1.12013 -0.00576095 0)
(1.1004 -0.0022506 0)
(1.08441 0.00187612 0)
(1.07269 0.00644773 0)
(1.06369 0.0113172 0)
(1.05704 0.0162439 0)
(1.05395 0.0202967 0)
(1.05518 0.0229624 0)
(1.06082 0.0245163 0)
(1.07115 0.025373 0)
(1.08772 0.0263014 0)
(1.09332 0.0260371 0)
(1.00983 0.0212892 0)
(0.753422 0.0116599 0)
(0.404528 0.00347854 0)
(0.0777634 0.000164514 0)
(0.0993212 3.73564e-05 0)
(0.650828 -0.000583876 0)
(0.957199 -0.00305646 0)
(1.10819 -0.0046389 0)
(1.1256 -0.00283262 0)
(1.10647 0.000883164 0)
(1.09001 0.00530046 0)
(1.07775 0.0101452 0)
(1.06806 0.0152169 0)
(1.06052 0.0201921 0)
(1.05647 0.0240717 0)
(1.05692 0.0264182 0)
(1.06208 0.0275937 0)
(1.07222 0.0280561 0)
(1.08839 0.0286151 0)
(1.08857 0.0277151 0)
(0.990166 0.0220067 0)
(0.725108 0.0119004 0)
(0.38418 0.00358211 0)
(0.072927 0.000172706 0)
(0.100174 7.39383e-05 0)
(0.647599 0.000447394 0)
(0.952025 -0.000760135 0)
(1.10912 -0.00155228 0)
(1.13152 0.000544282 0)
(1.11299 0.00454442 0)
(1.09603 0.009343 0)
(1.08311 0.0145489 0)
(1.07258 0.0198998 0)
(1.06396 0.0249755 0)
(1.05876 0.0286944 0)
(1.05829 0.0307005 0)
(1.06288 0.031481 0)
(1.07276 0.031522 0)
(1.08817 0.0316565 0)
(1.08202 0.0299867 0)
(0.968404 0.0231846 0)
(0.695834 0.0124184 0)
(0.363196 0.00376547 0)
(0.0678599 0.000183987 0)
(0.102005 0.000110854 0)
(0.648157 0.00161563 0)
(0.949963 0.00177116 0)
(1.11138 0.00197343 0)
(1.13811 0.00445749 0)
(1.12012 0.00888509 0)
(1.10256 0.0141664 0)
(1.08887 0.019829 0)
(1.07731 0.0255413 0)
(1.06738 0.0307666 0)
(1.0608 0.034331 0)
(1.05924 0.035958 0)
(1.06315 0.036313 0)
(1.07272 0.0358966 0)
(1.08679 0.0355391 0)
(1.0734 0.0329298 0)
(0.944141 0.0248608 0)
(0.664966 0.0132089 0)
(0.341102 0.00402196 0)
(0.0624671 0.000197637 0)
(0.104876 0.000161401 0)
(0.652952 0.0030715 0)
(0.9515 0.00468485 0)
(1.11544 0.00603282 0)
(1.14558 0.00908712 0)
(1.12802 0.0140883 0)
(1.10977 0.0199695 0)
(1.09511 0.0262013 0)
(1.08229 0.0323596 0)
(1.07078 0.0377706 0)
(1.06257 0.0411546 0)
(1.05974 0.0423492 0)
(1.06284 0.0422513 0)
(1.07202 0.0413235 0)
(1.08408 0.0404478 0)
(1.06234 0.0366587 0)
(0.916828 0.0270809 0)
(0.631801 0.0142676 0)
(0.317441 0.00434397 0)
(0.0566671 0.000212996 0)
(0.109066 0.000227819 0)
(0.66239 0.00475864 0)
(0.957093 0.00812293 0)
(1.12181 0.0108123 0)
(1.15422 0.01463 0)
(1.13688 0.0203841 0)
(1.1178 0.027011 0)
(1.10196 0.0339379 0)
(1.08759 0.0406235 0)
(1.07416 0.0462342 0)
(1.06402 0.0493822 0)
(1.05973 0.05008 0)
(1.06186 0.0494743 0)
(1.07057 0.0479654 0)
(1.08014 0.0464837 0)
(1.04832 0.0412803 0)
(0.885771 0.0298675 0)
(0.595594 0.0155732 0)
(0.291795 0.00471586 0)
(0.0504011 0.000228517 0)
(0.114913 0.000317119 0)
(0.67726 0.00686115 0)
(0.967387 0.0122902 0)
(1.13105 0.0165557 0)
(1.1644 0.0213557 0)
(1.14699 0.028095 0)
(1.12685 0.0356383 0)
(1.10951 0.043391 0)
(1.09321 0.0506635 0)
(1.07747 0.0564422 0)
(1.06508 0.0592532 0)
(1.05903 0.0593229 0)
(1.06014 0.0581588 0)
(1.06835 0.0560242 0)
(1.07468 0.0538373 0)
(1.03071 0.0468701 0)
(0.850116 0.0332168 0)
(0.555572 0.0170806 0)
(0.263818 0.0051126 0)
(0.0436462 0.000242339 0)
(0.122931 0.000446045 0)
(0.698533 0.00961827 0)
(0.983255 0.0174943 0)
(1.14382 0.0236067 0)
(1.1766 0.0296618 0)
(1.15864 0.0376821 0)
(1.13711 0.0463314 0)
(1.11784 0.055024 0)
(1.09914 0.0628853 0)
(1.08062 0.0687171 0)
(1.06562 0.0710188 0)
(1.0576 0.070315 0)
(1.05759 0.0684618 0)
(1.06527 0.0656167 0)
(1.06735 0.0625157 0)
(1.00865 0.0534913 0)
(0.808863 0.0370741 0)
(0.511002 0.0187068 0)
(0.233303 0.00549587 0)
(0.0364332 0.000251908 0)
(0.133854 0.000630615 0)
(0.72744 0.0134031 0)
(1.00586 0.0242051 0)
(1.16093 0.0325131 0)
(1.19143 0.0401483 0)
(1.17219 0.0498185 0)
(1.14875 0.0597617 0)
(1.12696 0.0694437 0)
(1.10525 0.0777794 0)
(1.08344 0.0834153 0)
(1.06549 0.084931 0)
(1.05531 0.0832595 0)
(1.0541 0.0805922 0)
(1.06098 0.0768721 0)
(1.05745 0.0726889 0)
(0.981039 0.0611129 0)
(0.760903 0.0413037 0)
(0.461289 0.0203124 0)
(0.200272 0.00581137 0)
(0.0288655 0.000254118 0)
(0.148923 0.000923272 0)
(0.765979 0.0188385 0)
(1.03685 0.0332128 0)
(1.1833 0.04422 0)
(1.20967 0.0539657 0)
(1.18795 0.0655492 0)
(1.1618 0.0768909 0)
(1.13669 0.0874331 0)
(1.11128 0.0959097 0)
(1.08565 0.1009 0)
(1.06444 0.101212 0)
(1.05202 0.0983034 0)
(1.04954 0.0946828 0)
(1.05515 0.0901721 0)
(1.04417 0.0844307 0)
(0.94648 0.0695801 0)
(0.705138 0.0456408 0)
(0.406171 0.0216926 0)
(0.1651 0.00599017 0)
(0.021138 0.000245678 0)
(0.170348 0.00143046 0)
(0.817429 0.0270695 0)
(1.07884 0.0460764 0)
(1.21208 0.0606018 0)
(1.2319 0.0731443 0)
(1.20602 0.0864971 0)
(1.176 0.0990374 0)
(1.14661 0.109929 0)
(1.11677 0.117871 0)
(1.08684 0.1215 0)
(1.06219 0.120026 0)
(1.04752 0.115532 0)
(1.04383 0.110778 0)
(1.04778 0.105405 0)
(1.02637 0.0976337 0)
(0.903243 0.0785166 0)
(0.640756 0.0496712 0)
(0.346078 0.022588 0)
(0.128679 0.00595886 0)
(0.0135538 0.000223067 0)
(0.201534 0.00255412 0)
(0.887553 0.0407783 0)
(1.13546 0.0666463 0)
(1.24767 0.0852504 0)
(1.25785 0.100441 0)
(1.22576 0.115016 0)
(1.19054 0.127795 0)
(1.15589 0.1379 0)
(1.12101 0.144187 0)
(1.0865 0.145446 0)
(1.0584 0.14144 0)
(1.04161 0.134945 0)
(1.03683 0.128841 0)
(1.0384 0.122418 0)
(1.00248 0.111915 0)
(0.849315 0.0872217 0)
(0.567874 0.052837 0)
(0.282855 0.0228051 0)
(0.0927708 0.00569568 0)
(0.00660639 0.000184037 0)
(0.244046 0.00882678 6.82317e-20)
(0.980406 0.0680567 6.14094e-20)
(1.20439 0.101257 -2.17966e-20)
(1.28696 0.121775 0)
(1.28468 0.139459 -5.87315e-34)
(1.245 0.153429 8.66199e-21)
(1.20383 0.164667 -1.59988e-20)
(1.16343 0.172563 0)
(1.12317 0.176109 3.37338e-34)
(1.08383 0.174191 -2.05877e-20)
(1.0521 0.167169 0)
(1.03311 0.158512 -2.47909e-20)
(1.02749 0.151255 -7.33357e-20)
(1.02571 0.14452 -3.46493e-20)
(0.968395 0.129768 -1.04605e-20)
(0.778493 0.097073 -6.22195e-21)
(0.481371 0.0554694 0)
(0.214971 0.0227408 4.33784e-21)
(0.0573981 0.00549852 5.10048e-21)
(0.00026746 0.000143012 9.05712e-20)
(0.273675 0.0242609 4.43159e-20)
(1.05717 0.110903 1.06787e-21)
(1.26126 0.150578 5.52788e-21)
(1.32213 0.171225 0)
(1.30821 0.18878 -2.88952e-20)
(1.26151 0.200559 -3.34045e-20)
(1.21443 0.209469 -1.59353e-20)
(1.16823 0.214869 -5.80351e-20)
(1.12239 0.215629 0)
(1.07784 0.210597 8.76114e-20)
(1.04204 0.200654 8.75539e-20)
(1.02061 0.189873 2.61346e-20)
(1.01288 0.18086 9.59915e-20)
(1.00282 0.171773 1.35387e-19)
(0.914526 0.150498 0)
(0.682524 0.107209 1.90904e-19)
(0.379438 0.0575971 2.73221e-19)
(0.144517 0.021947 3.02371e-19)
(0.021954 0.00407442 -3.44037e-19)
(-0.00619292 -0.000500022 -6.38364e-21)
(0.274886 0.0404008 0)
(1.10579 0.166523 6.48105e-21)
(1.29962 0.211187 0)
(1.34948 0.231316 -3.35167e-20)
(1.3267 0.245811 0)
(1.27409 0.253676 -6.39158e-20)
(1.22148 0.258839 3.21484e-20)
(1.16977 0.260629 -1.15199e-19)
(1.11863 0.257725 -3.16647e-21)
(1.06912 0.24892 4.5004e-20)
(1.02948 0.235607 1.92916e-19)
(1.00571 0.222347 -4.28324e-22)
(0.995615 0.211401 -6.98043e-20)
(0.976688 0.199239 -1.27704e-19)
(0.865798 0.170425 1.50981e-19)
(0.61354 0.116356 -2.67041e-19)
(0.319621 0.0594562 -3.51765e-20)
(0.107583 0.020851 0)
(0.00379506 0.00188967 -2.53925e-23)
(-0.00978348 -0.00137307 0)
(0.268373 0.0542499 4.68099e-20)
(1.13199 0.225347 -2.87917e-20)
(1.32324 0.27632 -2.98574e-20)
(1.3676 0.296615 1.48246e-20)
(1.33871 0.307154 -2.55134e-20)
(1.28167 0.310458 1.32807e-19)
(1.22452 0.311177 6.6534e-20)
(1.16805 0.308694 0)
(1.11216 0.301553 -2.21877e-19)
(1.05809 0.288479 0)
(1.01486 0.271412 -1.00804e-19)
(0.988818 0.255392 -1.25814e-19)
(0.976345 0.24211 -7.60346e-20)
(0.950112 0.226263 -9.27676e-20)
(0.825967 0.189953 0)
(0.568934 0.126543 0)
(0.287984 0.0632555 -2.28823e-19)
(0.0887819 0.0203637 4.50757e-20)
(-0.00690723 -0.00055425 -2.62555e-20)
(-0.0124915 -0.00243285 -3.02514e-20)
(0.260543 0.0663997 8.72635e-21)
(1.14335 0.283981 0)
(1.33615 0.342311 4.63388e-20)
(1.37747 0.363274 3.81945e-20)
(1.34433 0.369939 6.13205e-20)
(1.28407 0.368676 0)
(1.22334 0.364836 6.3434e-20)
(1.16295 0.357883 1.26189e-19)
(1.10297 0.346266 1.12577e-19)
(1.04484 0.328661 2.12413e-19)
(0.998254 0.307587 0)
(0.969962 0.288564 -2.71247e-19)
(0.955144 0.272734 -1.64191e-19)
(0.923312 0.253136 -9.72287e-20)
(0.79345 0.210168 5.96006e-19)
(0.540962 0.138767 7.06313e-20)
(0.272756 0.0690582 3.3055e-19)
(0.0812904 0.020936 -1.56283e-18)
(-0.011937 -0.00267261 9.20316e-19)
(-0.0142901 -0.00352515 -1.09215e-18)
(0.252981 0.0773415 3.84825e-20)
(1.14522 0.340574 -2.64063e-21)
(1.34126 0.407268 -1.38711e-21)
(1.3807 0.429402 -2.70647e-20)
(1.34449 0.432432 -4.49145e-20)
(1.28182 0.426784 3.59038e-21)
(1.21829 0.418534 -6.89345e-20)
(1.15468 0.407181 1.29316e-19)
(1.09121 0.3911 -2.42365e-19)
(1.02943 0.368926 0)
(0.979729 0.343742 -1.22282e-19)
(0.949199 0.321594 -3.183e-21)
(0.932101 0.303145 -1.80082e-19)
(0.896403 0.279971 0)
(0.766139 0.231155 -1.2914e-19)
(0.523322 0.152882 -3.05345e-19)
(0.267767 0.077177 8.10416e-19)
(0.0817851 0.0231277 -7.98761e-19)
(-0.0121494 -0.00389421 1.12886e-18)
(-0.0150027 -0.00445548 -1.15508e-18)
(0.246536 0.087408 -8.24733e-22)
(1.14115 0.394443 1.15253e-20)
(1.34074 0.470193 1.50078e-20)
(1.37871 0.493802 5.38027e-21)
(1.34027 0.493595 -2.15651e-20)
(1.27579 0.48384 0)
(1.20999 0.47143 -6.13292e-20)
(1.14368 0.455877 -1.3467e-19)
(1.07717 0.435486 -1.25208e-19)
(1.01212 0.408833 0)
(0.959506 0.379564 -1.26298e-19)
(0.926796 0.354286 -1.58183e-19)
(0.907536 0.333175 1.95667e-19)
(0.869188 0.306562 -1.19162e-19)
(0.74158 0.25282 -5.65566e-19)
(0.510698 0.168548 3.34341e-19)
(0.267705 0.0867907 9.87664e-20)
(0.0865422 0.026909 0)
(-0.00876095 -0.00384204 -1.09477e-18)
(-0.0146534 -0.00504789 -3.96004e-20)
(0.241329 0.0969265 1.17577e-20)
(1.13347 0.445399 -1.778e-20)
(1.3361 0.530624 -1.0684e-20)
(1.37276 0.555759 2.73104e-20)
(1.33263 0.552765 -6.91272e-20)
(1.26676 0.539272 1.09582e-19)
(1.19911 0.523003 1.32447e-19)
(1.13051 0.503511 -2.14973e-19)
(1.06131 0.479036 7.94154e-20)
(0.993289 0.448076 -5.22416e-19)
(0.937942 0.414833 -1.43972e-19)
(0.903101 0.386476 0)
(0.881788 0.362798 2.12781e-19)
(0.841544 0.332965 2.55851e-19)
(0.718296 0.274515 3.05456e-19)
(0.49957 0.185181 -3.64742e-19)
(0.268891 0.0976118 -1.0727e-19)
(0.0929624 0.0321693 1.26351e-19)
(-0.00328057 -0.00250773 0)
(-0.0135085 -0.00528026 -8.62342e-20)
(0.23728 0.106052 -1.69364e-19)
(1.12385 0.49355 9.86735e-20)
(1.32859 0.588351 1.47506e-20)
(1.36388 0.614961 8.98089e-21)
(1.32238 0.609552 -2.47122e-20)
(1.25544 0.592688 -8.16278e-21)
(1.18628 0.572911 -1.45927e-19)
(1.11571 0.549789 -7.80941e-20)
(1.0441 0.521495 -2.18176e-19)
(0.973309 0.48645 6.49646e-22)
(0.915371 0.44937 -4.49753e-19)
(0.878496 0.418005 3.84635e-19)
(0.855273 0.391814 -2.34852e-19)
(0.813584 0.358822 2.83203e-19)
(0.694821 0.296036 0)
(0.487818 0.202077 -1.9911e-19)
(0.269349 0.108886 5.1708e-22)
(0.0993274 0.0383649 -5.53624e-19)
(0.00293666 -0.00026806 -8.08177e-20)
(-0.0119085 -0.00520223 0)
(0.234287 0.114929 0)
(1.11325 0.539126 1.1216e-19)
(1.31914 0.643793 5.43091e-20)
(1.35289 0.671262 -2.07279e-22)
(1.3102 0.663749 -3.9675e-20)
(1.24243 0.643869 0)
(1.17203 0.620932 -6.22556e-20)
(1.09973 0.59451 -2.08054e-21)
(1.02593 0.562702 4.68079e-19)
(0.952532 0.523822 -7.13373e-20)
(0.892109 0.483052 -3.25434e-19)
(0.853297 0.448767 1.99392e-19)
(0.828293 0.420084 -4.46461e-21)
(0.785344 0.383944 3.01537e-19)
(0.670554 0.316882 1.85921e-19)
(0.474265 0.218614 -4.307e-19)
(0.267173 0.120118 5.08941e-19)
(0.103939 0.044953 1.50599e-19)
(0.00872217 0.00257477 6.17459e-19)
(-0.0100998 -0.00485094 -1.62405e-18)
(0.232258 0.123735 -5.3725e-20)
(1.1024 0.582312 7.54974e-20)
(1.30837 0.696252 -5.31787e-20)
(1.34041 0.724641 -1.58342e-20)
(1.29667 0.715261 0)
(1.22826 0.692686 -4.13995e-20)
(1.15681 0.666938 2.13737e-19)
(1.08299 0.637553 1.69672e-19)
(1.00716 0.602552 0)
(0.931263 0.560108 -1.03438e-18)
(0.868413 0.515802 8.82728e-19)
(0.827729 0.478655 0)
(0.801039 0.447475 2.7565e-19)
(0.75683 0.408074 -4.44394e-21)
(0.644905 0.336707 -5.96696e-19)
(0.458849 0.233815 2.32504e-19)
(0.262152 0.130592 0)
(0.105945 0.0511881 8.14471e-19)
(0.0130712 0.00538513 0)
(-0.00845014 -0.00441182 -7.70588e-19)
(0.231054 0.13251 6.37003e-20)
(1.09169 0.623354 9.6084e-20)
(1.29686 0.745798 -5.3218e-20)
(1.3269 0.775119 0)
(1.28226 0.764065 -2.11329e-20)
(1.21333 0.739103 0)
(1.14101 0.710862 -2.04003e-19)
(1.06582 0.678848 -7.56978e-20)
(0.988092 0.640987 8.13366e-20)
(0.90976 0.595268 -5.12013e-19)
(0.844479 0.547588 9.07468e-20)
(0.801961 0.507595 0)
(0.773681 0.473815 -5.89166e-19)
(0.728193 0.430961 4.28924e-21)
(0.618479 0.354845 0)
(0.44116 0.247279 2.15926e-21)
(0.25413 0.139547 7.4789e-19)
(0.104859 0.0563115 -7.03206e-19)
(0.0154245 0.00763079 2.06914e-19)
(-0.00719063 -0.00402284 0)
(0.230359 0.141171 0)
(1.08144 0.662292 1.14524e-19)
(1.28479 0.79262 7.50503e-20)
(1.31279 0.822746 -5.01733e-21)
(1.26733 0.810186 3.0204e-21)
(1.19801 0.783118 -9.26693e-20)
(1.12494 0.752688 7.84158e-20)
(1.04851 0.718364 -9.21375e-20)
(0.968989 0.67797 3.66727e-19)
(0.888246 0.629294 -8.19203e-19)
(0.820485 0.578413 -8.20909e-21)
(0.776109 0.535532 -2.56296e-19)
(0.746281 0.498968 9.5774e-19)
(0.699419 0.4523 -5.13639e-21)
(0.591314 0.371029 -4.64669e-19)
(0.42158 0.258578 -8.24298e-19)
(0.243555 0.146523 0)
(0.101372 0.0597744 0)
(0.0159887 0.00897224 2.23301e-19)
(-0.00633823 -0.0037842 -1.2914e-19)
(0.230369 0.149858 8.79084e-20)
(1.07182 0.69905 -2.59077e-19)
(1.27241 0.83684 -8.04079e-20)
(1.29841 0.86758 0)
(1.25219 0.853684 -2.9923e-21)
(1.18256 0.824762 -7.24664e-20)
(1.10887 0.792426 1.81146e-19)
(1.03131 0.756096 3.54439e-19)
(0.95008 0.713504 4.74246e-19)
(0.866929 0.662199 -6.6784e-19)
(0.796581 0.608307 -7.60816e-19)
(0.750238 0.562481 6.85786e-19)
(0.71882 0.522867 0)
(0.670467 0.471851 -2.11641e-19)
(0.563531 0.384911 -5.02609e-19)
(0.400323 0.267242 -5.93451e-19)
(0.230681 0.151147 -6.98548e-19)
(0.0956398 0.0615144 2.05679e-19)
(0.0150693 0.00934877 -1.20311e-19)
(-0.00586083 -0.00371511 5.84323e-22)
(0.230493 0.158467 0)
(1.06291 0.734018 0)
(1.26001 0.878539 4.87934e-21)
(1.28398 0.909743 0)
(1.23706 0.894649 -3.77971e-20)
(1.16721 0.864094 3.86492e-20)
(1.093 0.830106 0)
(1.01443 0.792059 4.05482e-20)
(0.931559 0.747592 7.88141e-19)
(0.845989 0.69401 -1.53698e-18)
(0.772896 0.637331 0)
(0.724391 0.588515 -4.42059e-19)
(0.691235 0.545478 -6.03201e-21)
(0.641258 0.489402 -4.58533e-21)
(0.535149 0.396175 5.38149e-19)
(0.377509 0.273021 -1.27266e-22)
(0.216076 0.153177 -1.50598e-18)
(0.0882009 0.061414 4.42744e-19)
(0.0130583 0.00889559 1.30139e-19)
(-0.00562542 -0.00375631 0)
(0.230793 0.166927 -3.46684e-19)
(1.05447 0.767347 -1.72694e-19)
(1.24768 0.917812 -2.308e-19)
(1.26968 0.949368 2.38734e-19)
(1.22213 0.933157 -9.72887e-20)
(1.15214 0.90118 0)
(1.07749 0.865773 1.03356e-19)
(0.998002 0.826277 -9.17915e-20)
(0.91358 0.780253 7.79056e-21)
(0.825594 0.724764 1.13931e-19)
(0.749561 0.665571 9.85324e-19)
(0.698592 0.613755 -1.54823e-19)
(0.663416 0.566828 -5.91173e-19)
(0.611634 0.504777 -2.46883e-19)
(0.506261 0.404473 2.92119e-19)
(0.353961 0.275649 2.13397e-22)
(0.200221 0.152517 4.05648e-19)
(0.0796663 0.0595639 -9.52683e-19)
(0.0103828 0.00772923 1.1208e-18)
(-0.00553599 -0.00387587 1.6094e-19)
(0.230987 0.175145 1.31216e-19)
(1.0465 0.799112 -9.68928e-20)
(1.23556 0.954758 1.22353e-20)
(1.25562 0.98659 1.50263e-19)
(1.20754 0.969321 3.40737e-20)
(1.13746 0.936095 -5.71304e-20)
(1.06248 0.899481 2.60569e-20)
(0.982167 0.858774 -3.79689e-19)
(0.89628 0.811491 -8.63128e-19)
(0.805881 0.754473 -9.13667e-19)
(0.726715 0.69312 0)
(0.672872 0.638352 -6.82522e-19)
(0.635244 0.587019 8.53275e-19)
(0.581351 0.517833 0)
(0.476809 0.409402 -6.25783e-19)
(0.330289 0.27466 3.71512e-19)
(0.184428 0.149 -4.36133e-19)
(0.0712993 0.0562615 -5.12481e-19)
(0.00770325 0.00615548 -9.02654e-19)
(-0.00554235 -0.00404232 -6.93064e-19)
(0.231546 0.183236 -1.47253e-19)
(1.03886 0.829309 1.03517e-19)
(1.2237 0.989451 2.38596e-19)
(1.2419 1.02149 2.17647e-19)
(1.19339 1.00324 -6.4244e-20)
(1.12329 0.968927 -1.73461e-20)
(1.04806 0.931281 9.00139e-20)
(0.967015 0.889594 -3.85211e-19)
(0.87975 0.841331 -5.1003e-19)
(0.786974 0.78316 9.54175e-19)
(0.704484 0.720061 2.16383e-18)
(0.647299 0.662476 0)
(0.606608 0.606238 0)
(0.550031 0.528564 -2.84099e-19)
(0.446466 0.410511 0)
(0.306737 0.269153 7.98011e-19)
(0.170148 0.141809 9.371e-19)
(0.0651236 0.0514085 0)
(0.00622298 0.00448929 0)
(-0.00556926 -0.00420927 7.44535e-19)
(0.231786 0.190901 1.66929e-19)
(1.03156 0.857933 1.37864e-19)
(1.21217 1.02202 1.72822e-19)
(1.22859 1.05419 -2.07499e-19)
(1.17974 1.03501 -8.25562e-20)
(1.10968 0.999754 -1.62976e-21)
(1.03428 0.961235 -1.20446e-19)
(0.952612 0.918764 -1.16471e-21)
(0.864071 0.86978 -1.01065e-20)
(0.768971 0.810827 -8.99333e-21)
(0.683014 0.746456 1.11397e-18)
(0.621979 0.686287 0)
(0.577443 0.62476 8.65554e-19)
(0.517252 0.537163 6.06552e-19)
(0.414472 0.40757 1.46044e-18)
(0.282871 0.257793 4.29982e-19)
(0.158916 0.128181 -5.03954e-19)
(0.0655982 0.0417396 -2.94846e-19)
(0.0121214 0.00147102 0)
(-0.00355898 -0.00372838 8.00053e-19)
(0.23234 0.198585 -3.7368e-19)
(1.02456 0.885072 0)
(1.20095 1.0525 2.01999e-19)
(1.21573 1.08476 -1.74988e-19)
(1.16666 1.06474 1.09684e-19)
(1.09668 1.02866 3.61215e-20)
(1.0212 0.989401 2.15646e-19)
(0.939 0.946322 -3.25269e-20)
(0.849293 0.896848 0)
(0.751956 0.837451 -1.04724e-18)
(0.662447 0.772328 -2.41804e-18)
(0.597059 0.709942 1.00423e-19)
(0.547795 0.642912 1.19603e-18)
(0.482697 0.544087 0)
(0.379618 0.400991 9.86294e-19)
(0.256381 0.239444 0)
(0.148627 0.101966 0)
(0.0779008 0.0125749 -3.18809e-19)
(0.0475254 -0.013162 0)
(0.0265338 0.00992813 2.1424e-19)
(0.232547 0.205681 -4.1662e-19)
(1.01782 0.911071 0)
(1.19005 1.08112 3.34537e-19)
(1.20327 1.11345 0)
(1.1541 1.0927 -6.56988e-20)
(1.08423 1.05594 0)
(1.00876 1.01609 7.52297e-21)
(0.926082 0.972603 5.20639e-20)
(0.83529 0.922897 6.36449e-20)
(0.735758 0.863414 -1.14333e-18)
(0.642592 0.798112 7.19119e-20)
(0.572289 0.734091 8.1036e-19)
(0.517216 0.661517 1.16602e-18)
(0.445436 0.549982 1.57777e-19)
(0.339921 0.392225 7.73815e-19)
(0.222139 0.214985 0)
(0.127114 0.0588088 1.0622e-18)
(0.0700895 -0.0295301 -6.14541e-19)
(0.0404688 0.0439354 7.09256e-19)
(-0.0595801 0.436651 -8.40743e-19)
(0.232741 0.212587 3.44587e-19)
(1.01108 0.935706 5.43906e-19)
(1.17938 1.10818 0)
(1.19107 1.14069 9.62594e-21)
(1.14186 1.11946 1.92411e-19)
(1.07206 1.08227 -1.39775e-19)
(0.996638 1.0421 6.38536e-20)
(0.913441 0.99854 0)
(0.821526 0.94901 4.13597e-19)
(0.7197 0.890018 -5.8784e-20)
(0.622526 0.825288 0)
(0.546392 0.760433 0)
(0.483692 0.682017 1.04695e-18)
(0.403021 0.55536 -4.89272e-19)
(0.292162 0.383173 -7.86232e-19)
(0.175353 0.187777 0)
(0.0740326 0.0694303 5.31758e-19)
(0.00539749 0.439719 -6.07281e-19)
(0.0310926 1.89742 -3.32015e-19)
(0.0618146 2.81221 -4.39101e-19)
(0.232723 0.21875 -2.566e-19)
(1.00444 0.959139 -6.94793e-19)
(1.16895 1.13367 1.97247e-19)
(1.17913 1.16636 1.66829e-19)
(1.12997 1.1448 0)
(1.06025 1.10736 -1.18533e-19)
(0.985034 1.06711 7.07678e-20)
(0.901272 1.02371 -2.42735e-20)
(0.808275 0.974672 6.21157e-20)
(0.704167 0.91666 1.0853e-18)
(0.602853 0.853208 1.21866e-18)
(0.520304 0.788653 9.09268e-19)
(0.448011 0.704505 1.05509e-18)
(0.356898 0.559265 -1.15268e-18)
(0.242025 0.377787 -1.1897e-18)
(0.11811 0.233055 0)
(0.042633 0.836316 0)
(0.0972029 2.55602 2.90742e-19)
(0.100167 3.2037 0)
(0.102907 3.38866 6.35658e-19)
(0.235729 0.224501 0)
(0.998508 0.981647 0)
(1.15849 1.15745 0)
(1.16725 1.19031 4.98388e-20)
(1.11808 1.16846 1.74779e-19)
(1.04859 1.13108 -1.11702e-19)
(0.973848 1.09103 3.91502e-20)
(0.889519 1.04798 -2.31173e-20)
(0.795487 0.999732 5.0589e-19)
(0.689174 0.943192 -1.75302e-20)
(0.583703 0.88175 2.40267e-18)
(0.494343 0.818636 -1.054e-19)
(0.41026 0.729955 1.27448e-19)
(0.309419 0.559686 1.67309e-19)
(0.181 0.389991 -7.91605e-21)
(0.0975482 0.965133 3.57191e-21)
(0.137035 2.72861 -1.5502e-18)
(0.14423 3.29404 -5.71532e-19)
(0.133823 3.42558 2.84584e-19)
(0.121903 3.44745 -3.11148e-19)
(0.155856 0.176862 1.45505e-19)
(0.987994 1.00613 0)
(1.14769 1.17967 -3.81804e-19)
(1.15585 1.21297 -4.45444e-19)
(1.10694 1.19115 4.05742e-19)
(1.03792 1.15405 1.27093e-19)
(0.962973 1.11388 -3.14295e-20)
(0.878266 1.07148 2.29646e-19)
(0.783304 1.02434 -4.06898e-19)
(0.674997 0.969775 0)
(0.565464 0.911113 1.17294e-18)
(0.469028 0.85016 -7.40693e-19)
(0.372119 0.761183 0)
(0.253942 0.557794 1.51016e-19)
(0.140482 0.735531 3.67297e-19)
(0.152565 2.50503 -4.26269e-19)
(0.207451 3.32264 4.69511e-19)
(0.188626 3.43727 2.51428e-19)
(0.156798 3.45887 2.75165e-19)
(0.135727 3.46919 4.35976e-19)
(0.27557 0.262416 -2.58171e-19)
(0.971667 1.01564 0)
(1.1295 1.20516 4.20026e-19)
(1.1409 1.24345 4.82982e-19)
(1.0896 1.22429 -4.40978e-19)
(1.01985 1.18759 -1.70867e-19)
(0.9439 1.14902 -1.47191e-20)
(0.858687 1.10787 1.84552e-20)
(0.7624 1.06295 3.77331e-19)
(0.651315 1.01241 9.17555e-19)
(0.536417 0.960266 6.53632e-20)
(0.428948 0.904276 6.56275e-19)
(0.302176 0.798327 1.18467e-19)
(0.211656 0.914415 -1.52284e-19)
(0.226349 2.3561 -3.39144e-19)
(0.286184 3.32481 3.12278e-19)
(0.269733 3.46486 -3.48036e-19)
(0.234507 3.48709 -2.00836e-19)
(0.19822 3.51467 -1.55591e-19)
(0.147667 3.50876 -1.5068e-20)
(0.264666 0.259944 0)
(0.969401 1.03852 1.20232e-19)
(1.12109 1.22868 -8.67046e-20)
(1.13027 1.26717 -5.74617e-20)
(1.07873 1.2475 -3.0412e-19)
(1.00892 1.211 1.75547e-19)
(0.932666 1.17261 2.51798e-20)
(0.847241 1.13227 1.57802e-20)
(0.750398 1.08884 -3.86803e-19)
(0.637949 1.0412 -2.69127e-20)
(0.520092 0.993993 -2.1077e-18)
(0.407136 0.941997 9.39879e-20)
(0.283507 0.863989 -1.10837e-19)
(0.252595 1.4825 -1.40605e-19)
(0.326618 3.1038 3.49959e-20)
(0.345829 3.46263 6.43455e-22)
(0.305262 3.51799 4.85264e-19)
(0.268467 3.54505 2.2707e-19)
(0.220188 3.56833 -3.85018e-20)
(0.162928 3.56443 -6.5277e-20)
(0.249064 0.258058 3.01459e-19)
(0.965662 1.06397 8.243e-19)
(1.11225 1.25424 -2.4936e-19)
(1.119 1.29224 -2.17748e-19)
(1.06724 1.27208 0)
(0.997558 1.23561 3.04936e-19)
(0.921293 1.19747 6.5791e-20)
(0.835928 1.15793 1.2876e-20)
(0.73885 1.11609 -4.36644e-20)
(0.62558 1.07163 -8.11564e-19)
(0.505647 1.02981 -9.63836e-19)
(0.388911 0.981384 -7.58246e-19)
(0.285905 0.994605 -8.42743e-19)
(0.322581 2.21121 8.64819e-19)
(0.413402 3.37436 6.95064e-19)
(0.390131 3.51966 0)
(0.344216 3.56448 0)
(0.306201 3.60473 -2.84205e-20)
(0.256422 3.66326 0)
(0.175479 3.63979 -1.02257e-20)
(0.238688 0.25997 -4.52432e-19)
(0.959835 1.09031 -7.01655e-19)
(1.10198 1.28101 0)
(1.10638 1.31804 1.14471e-20)
(1.05448 1.29726 -3.26582e-19)
(0.985088 1.26073 4.88156e-19)
(0.909139 1.22288 5.94632e-20)
(0.824047 1.18405 3.24214e-21)
(0.72698 1.14375 -2.55352e-19)