/*--------------------------------*- C++ -*----------------------------------*\
| =========                 |                                                 |
| \\      /  F ield         | OpenFOAM: The Open Source CFD Toolbox           |
|  \\    /   O peration     | Version:  2306                                  |
|   \\  /    A nd           | Website:  www.openfoam.com                      |
|    \\/     M anipulation  |                                                 |
\*---------------------------------------------------------------------------*/
FoamFile
{
    version     2.0;
    format      ascii;
    arch        "LSB;label=32;scalar=64";
    class       surfaceScalarField;
    location    "61";
    object      phi;
}
// * * * * * * * * * * * * * * * * * * * * * * * * * * * * * * * * * * * * * //

dimensions      [0 3 -1 0 0 0 0];

oriented        oriented;

internalField   nonuniform List<scalar> 
17370
(
-0.0910985
0.0935446
0.286565
-0.0749536
0.0569534
0.364776
-0.0409364
0.0299525
0.427152
-0.0211979
0.0155982
0.504851
-0.011349
0.00865029
0.602101
-0.00651873
0.00506649
0.72051
-0.00384772
0.0029762
0.863778
-0.00220822
0.0016324
1.03603
-0.00110214
0.000681733
1.24292
-0.0002711
-0.000122917
1.49158
0.00050913
-0.00092291
1.4916
0.00132684
-0.00183005
1.24319
0.00237768
-0.00311476
1.03637
0.00396215
-0.00516201
0.864106
0.00660371
-0.00872771
0.721182
0.0114196
-0.0156596
0.603455
0.0212498
-0.0299934
0.508183
0.0409667
-0.0569745
0.432176
0.0749701
-0.0935542
0.36536
0.0911119
0.197899
-0.127348
0.088146
0.0392018
-0.364738
0.353792
-0.072627
0.0835732
-0.446566
0.45437
-0.0817063
0.0739022
-0.520972
0.529526
-0.0657924
0.0572379
-0.612851
0.621018
-0.0494859
0.0413191
-0.727003
0.733791
-0.0343916
0.027603
-0.867515
0.872453
-0.02226
0.0173221
-1.03855
1.04191
-0.0136008
0.0102461
-1.24471
1.24713
-0.00768865
0.00527428
-1.49284
1.49486
-0.00330467
0.00128553
-1.49269
1.49451
0.000536273
-0.00235919
-1.2441
1.24602
0.00433674
-0.00625266
-1.0376
1.04008
0.00859534
-0.0110798
-0.866158
0.869806
0.0143508
-0.0179985
-0.724479
0.729769
0.0228659
-0.0281559
-0.608886
0.615771
0.0348951
-0.0417799
-0.514988
0.522695
0.0498991
-0.0576055
-0.439772
0.447828
0.0661036
-0.0741593
-0.375154
0.377
0.0818973
-0.083743
-0.256915
0.223416
0.0727454
-0.0392473
-0.0686558
0.058927
0.00972883
-0.0520697
0.0587639
-0.374546
0.367851
-0.0578758
0.0540473
-0.453832
0.45766
-0.0486875
0.0443468
-0.527747
0.532088
-0.0401224
0.0363393
-0.621109
0.624892
-0.0321143
0.0280403
-0.734883
0.738957
-0.0235634
0.0195661
-0.874054
0.878052
-0.0154238
0.0119024
-1.04341
1.04693
-0.00832946
0.00526042
-1.24867
1.25174
-0.00202067
-0.000983985
-1.49695
1.49995
0.00396681
-0.00714503
-1.49743
1.50061
0.010124
-0.0135743
-1.25009
1.25354
0.016971
-0.0209696
-1.04572
1.04972
0.0248395
-0.0291895
-0.877314
0.881664
0.033162
-0.0372883
-0.739307
0.743434
0.0409894
-0.0451309
-0.626337
0.630479
0.049401
-0.0546921
-0.534932
0.540223
0.058445
-0.0592377
-0.457915
0.458708
0.0524231
-0.0320435
-0.336389
0.316009
0.0097881
-0.0684978
0.0587097
-0.0531694
0.0491213
0.00404804
-0.0331577
0.0436461
-0.358384
0.347895
-0.0473592
0.0467692
-0.459519
0.460109
-0.0437894
0.040517
-0.536034
0.539306
-0.0368035
0.0334652
-0.628457
0.631795
-0.0298961
0.0267403
-0.742272
0.745428
-0.0233834
0.0202085
-0.881592
0.884767
-0.0166023
0.0132154
-1.05041
1.0538
-0.0094712
0.00602485
-1.25504
1.25848
-0.00219122
-0.00146363
-1.50334
1.50699
0.00508689
-0.00882842
-1.50414
1.50788
0.0121489
-0.0157206
-1.25715
1.26073
0.0189303
-0.0223315
-1.05349
1.05689
0.025324
-0.0284989
-0.885273
0.888448
0.0315082
-0.0349341
-0.746923
0.750349
0.0381525
-0.0417423
-0.63449
0.63808
0.0449075
-0.0477664
-0.544448
0.547307
0.0482297
-0.0443386
-0.456872
0.45298
0.0336369
-0.0162687
-0.296632
0.279264
0.00411993
-0.0528876
0.0487677
-0.0460013
0.043478
0.00252335
-0.022914
0.0332741
-0.337261
0.326901
-0.0390492
0.0400296
-0.459825
0.458844
-0.0388079
0.0365044
-0.541983
0.544286
-0.033859
0.0312921
-0.634797
0.637364
-0.0282798
0.0254152
-0.748499
0.751363
-0.0221735
0.0191704
-0.887774
0.890777
-0.0158443
0.0127265
-1.05698
1.06009
-0.00917074
0.00575557
-1.26191
1.26532
-0.00181932
-0.0020066
-1.51076
1.51458
0.00579171
-0.00960339
-1.51169
1.5155
0.0128512
-0.0161806
-1.26419
1.26752
0.019067
-0.0221257
-1.06005
1.06311
0.0248886
-0.0278861
-0.89159
0.894587
0.0305504
-0.0333652
-0.753533
0.756348
0.0357675
-0.0382464
-0.641078
0.643557
0.040407
-0.041441
-0.549118
0.550152
0.0402642
-0.0342022
-0.447776
0.441714
0.0235285
-0.0102988
-0.264072
0.250842
0.0026118
-0.0455675
0.0429557
-0.0413819
0.0395977
0.00178418
-0.0168456
0.0261136
-0.317041
0.307773
-0.0327152
0.0348444
-0.457266
0.455137
-0.0344155
0.0327277
-0.546295
0.547982
-0.0305201
0.0284087
-0.63967
0.641782
-0.0259775
0.0235902
-0.753985
0.756373
-0.0207527
0.0179874
-0.893643
0.896409
-0.0147865
0.0117437
-1.06313
1.06617
-0.00827497
0.00495758
-1.26865
1.27196
-0.00111437
-0.00264008
-1.51836
1.52212
0.00634141
-0.0100283
-1.51925
1.52293
0.0131346
-0.016317
-1.27077
1.27396
0.019066
-0.0219256
-1.06612
1.06898
0.0243807
-0.0269011
-0.897382
0.899903
0.0290287
-0.0312057
-0.758794
0.760971
0.0331071
-0.0351003
-0.645746
0.647739
0.0365799
-0.0367528
-0.550703
0.550876
0.0343223
-0.0273014
-0.435083
0.428062
0.0176119
-0.00744346
-0.239289
0.22912
0.00189224
-0.0407618
0.0388695
-0.038061
0.0367198
0.00134117
-0.0128697
0.0208425
-0.299157
0.291184
-0.0276019
0.0305238
-0.452581
0.449659
-0.0307288
0.0296049
-0.549419
0.550543
-0.0276067
0.0256829
-0.643831
0.645755
-0.0234746
0.0213347
-0.758612
0.760752
-0.0188242
0.0163472
-0.898972
0.901449
-0.0134117
0.0105417
-1.06909
1.07196
-0.00719744
0.00397159
-1.2752
1.27843
-0.000233728
-0.00339624
-1.52579
1.52942
0.00696033
-0.0105018
-1.52654
1.53008
0.0134641
-0.0164511
-1.27707
1.28005
0.0189528
-0.0214591
-1.07171
1.07421
0.0235475
-0.0256607
-0.902207
0.90432
0.0274731
-0.029358
-0.762985
0.76487
0.0310161
-0.0327566
-0.649584
0.651325
0.0335761
-0.0330134
-0.550684
0.550121
0.0296607
-0.0223274
-0.420828
0.413495
0.0138133
-0.00576351
-0.220112
0.212063
0.00147275
-0.0372136
0.0357409
-0.0355483
0.0345151
0.0010332
-0.0100586
0.0168034
-0.28385
0.277105
-0.0233042
0.026683
-0.446488
0.44311
-0.0274648
0.0267684
-0.551446
0.552143
-0.0250039
0.0232188
-0.647651
0.649437
-0.0211516
0.0191396
-0.762826
0.764838
-0.0167723
0.0144493
-0.90378
0.906103
-0.0117156
0.00903264
-1.07466
1.07735
-0.00587363
0.00279044
-1.28154
1.28463
0.000808448
-0.00430581
-1.53295
1.53645
0.00772162
-0.0110781
-1.53352
1.53687
0.0138347
-0.0165513
-1.28292
1.28563
0.0187806
-0.0209853
-1.0766
1.0788
0.0228277
-0.0247024
-0.906326
0.908201
0.0263085
-0.0279747
-0.766641
0.768307
0.0294308
-0.0308398
-0.652917
0.654327
0.0311577
-0.0298673
-0.549209
0.547918
0.0258951
-0.0186393
-0.406175
0.39892
0.0112147
-0.00464865
-0.204825
0.198259
0.00119322
-0.0344246
0.0332314
-0.0336076
0.0328027
0.00080496
-0.00797452
0.0136459
-0.270926
0.265255
-0.0196655
0.0232455
-0.43962
0.43604
-0.0245076
0.0240594
-0.552748
0.553196
-0.0225654
0.0208905
-0.651217
0.652892
-0.0189198
0.0169966
-0.766802
0.768725
-0.0147277
0.0124975
-0.908315
0.910545
-0.0098711
0.00730402
-1.0799
1.08246
-0.00429574
0.00135787
-1.28758
1.29052
0.00207433
-0.00540649
-1.53984
1.54317
0.00864011
-0.0117757
-1.54011
1.54324
0.0143131
-0.0167825
-1.28823
1.2907
0.0187949
-0.0207715
-1.08094
1.08292
0.0224098
-0.0240721
-0.909991
0.911653
0.0254959
-0.0269731
-0.769873
0.771351
0.0282384
-0.0292722
-0.655526
0.65656
0.0292187
-0.0272626
-0.5463
0.544344
0.0228901
-0.0159024
-0.391795
0.384807
0.00938717
-0.00387657
-0.192272
0.186761
0.000999418
-0.0321481
0.0311487
-0.0320953
0.0314668
0.000628461
-0.00636825
0.0111227
-0.26007
0.255315
-0.0165552
0.0201394
-0.432458
0.428873
-0.0217288
0.0215083
-0.553567
0.553788
-0.0202492
0.0186354
-0.654584
0.656198
-0.0167217
0.0148494
-0.770616
0.772489
-0.012642
0.0104738
-0.912669
0.914837
-0.0079215
0.00542985
-1.08491
1.08741
-0.00251871
-0.000301868
-1.29335
1.29617
0.00358505
-0.00674643
-1.54638
1.54954
0.00978533
-0.0127023
-1.54624
1.54916
0.0150421
-0.0172982
-1.29307
1.29533
0.0191145
-0.0208742
-1.08485
1.08661
0.0223183
-0.0237829
-0.913241
0.914705
0.0250427
-0.0263488
-0.772736
0.774042
0.0274707
-0.0280894
-0.657375
0.657994
0.0276674
-0.0251525
-0.542125
0.53961
0.0205375
-0.0138857
-0.377999
0.371347
0.00809087
-0.00333642
-0.181668
0.176914
0.000864484
-0.0302277
0.0293632
-0.0309179
0.0304322
0.000485671
-0.0050766
0.00904081
-0.250982
0.247018
-0.0138415
0.0172815
-0.425369
0.421929
-0.0190585
0.0190315
-0.553954
0.553981
-0.0179705
0.016393
-0.657859
0.659436
-0.0145039
0.0126489
-0.774341
0.776196
-0.010463
0.0083217
-0.916905
0.919046
-0.00581038
0.0033692
-1.08979
1.09223
-0.000528652
-0.00221383
-1.29888
1.30163
0.00537012
-0.00837858
-1.55258
1.55559
0.0112389
-0.0139538
-1.55195
1.55467
0.0161063
-0.0181544
-1.29749
1.29954
0.0197787
-0.0213272
-1.08835
1.08989
0.0225862
-0.0238686
-0.916106
0.917389
0.0249808
-0.0261311
-0.77526
0.776411
0.0270641
-0.0273081
-0.658416
0.65866
0.0264911
-0.023504
-0.536876
0.533889
0.0187456
-0.012423
-0.36488
0.358557
0.00717917
-0.00296334
-0.172462
0.168246
0.000772881
-0.0285547
0.0277818
-0.0300142
0.0296491
0.000365062
-0.0039957
0.00726619
-0.243425
0.240154
-0.0114237
0.0146097
-0.418632
0.415445
-0.0164488
0.0165792
-0.55398
0.553849
-0.0156028
0.0141005
-0.661049
0.662552
-0.0122089
0.0103393
-0.778042
0.779911
-0.00813755
0.00598899
-0.921093
0.923241
-0.00348227
0.00105744
-1.09456
1.09699
0.00174302
-0.00442539
-1.30427
1.30695
0.00748627
-0.0103678
-1.55849
1.56137
0.0130693
-0.0155934
-1.55726
1.55978
0.0175625
-0.0194052
-1.30149
1.30333
0.0208409
-0.0221825
-1.09144
1.09278
0.023262
-0.0243686
-0.918616
0.919722
0.0253352
-0.0263161
-0.777467
0.778448
0.0269943
-0.0269487
-0.658778
0.658733
0.0257101
-0.0223069
-0.53071
0.527307
0.0174507
-0.0114034
-0.352399
0.346352
0.00656142
-0.00271717
-0.164247
0.160402
0.000714486
-0.0270484
0.0263339
-0.0293444
0.0290869
0.000257599
-0.00304927
0.00569415
-0.237219
0.234574
-0.00920908
0.0120588
-0.412448
0.409598
-0.0138465
0.0140623
-0.553733
0.553517
-0.0131318
0.0116754
-0.664112
0.665569
-0.00975963
0.0078475
-0.781778
0.783691
-0.00559561
0.00340654
-0.925298
0.927487
-0.000866698
-0.00157437
-1.09931
1.10175
0.00437239
-0.00702721
-1.30955
1.3122
0.0100202
-0.0127974
-1.56415
1.56693
0.0153572
-0.0177017
-1.56218
1.56453
0.019494
-0.0211355
-1.30507
1.30671
0.0223836
-0.0235143
-1.09413
1.09527
0.0244078
-0.0253357
-0.920779
0.921707
0.0261585
-0.0269684
-0.77933
0.78014
0.027359
-0.0270424
-0.658546
0.658229
0.0253578
-0.0215551
-0.523724
0.519921
0.0166037
-0.0107506
-0.340438
0.334585
0.00617822
-0.00257142
-0.156708
0.153101
0.000682406
-0.0256465
0.0249641
-0.0288863
0.0287307
0.000155622
-0.00217359
0.00423169
-0.232243
0.230185
-0.00709966
0.00954343
-0.406976
0.404532
-0.0111724
0.0113957
-0.553364
0.553141
-0.0104785
0.00903078
-0.667117
0.668565
-0.00706438
0.00508039
-0.785604
0.787588
-0.00274337
0.000481342
-0.929585
0.931847
0.00213123
-0.00462216
-1.1041
1.10659
0.00745508
-0.0101119
-1.31477
1.31743
0.0130659
-0.0157588
-1.56961
1.5723
0.0181893
-0.020361
-1.56675
1.56892
0.0219782
-0.0234167
-1.30825
1.30969
0.0244711
-0.0253773
-1.09643
1.09734
0.026069
-0.0268014
-0.922578
0.92331
0.0274721
-0.0281387
-0.780836
0.781503
0.0282198
-0.0275325
-0.657692
0.657004
0.0254102
-0.0212149
-0.515966
0.51177
0.0161471
-0.0103987
-0.32883
0.323081
0.00598238
-0.00250533
-0.149591
0.146114
0.00067125
-0.0242991
0.0236278
-0.0286317
0.028579
5.26306e-05
-0.00132037
0.00280659
-0.228432
0.226946
-0.00501415
0.00698903
-0.402351
0.400376
-0.00835648
0.00850535
-0.553035
0.552886
-0.00755509
0.00608003
-0.670142
0.671617
-0.00402412
0.00193622
-0.789576
0.791664
0.000523268
-0.00289797
-0.934019
0.936394
0.00562111
-0.00819952
-1.109
1.11158
0.0111039
-0.013795
-1.32001
1.3227
0.0167395
-0.0193671
-1.5749
1.57753
0.0216782
-0.0236792
-1.57096
1.57296
0.0251178
-0.0263467
-1.31101
1.31224
0.0271993
-0.027871
-1.09831
1.09898
0.028351
-0.0288733
-0.923992
0.924514
0.0293801
-0.0298418
-0.781981
0.782443
0.0296378
-0.0285201
-0.656078
0.65496
0.0259213
-0.0213035
-0.507434
0.502816
0.0160664
-0.0103188
-0.317389
0.311641
0.00595145
-0.00250893
-0.142689
0.139246
0.000678481
-0.0229661
0.0222876
-0.0285831
0.0286403
-5.7193e-05
-0.000442338
0.00135187
-0.225765
0.224855
-0.00287197
0.00431387
-0.398696
0.397254
-0.0053183
0.00530843
-0.552914
0.552924
-0.00426897
0.00271315
-0.67327
0.674825
-0.00053737
-0.00169395
-0.793757
0.795988
0.00432392
-0.00684954
-0.938678
0.941204
0.00972992
-0.0124363
-1.11408
1.11678
0.0154538
-0.0182124
-1.32532
1.32808
0.0211764
-0.0237568
-1.58007
1.58265
0.0259564
-0.0277833
-1.57482
1.57665
0.0290345
-0.0300427
-1.31333
1.31434
0.0306814
-0.0311098
-1.09974
1.10016
0.0313686
-0.0316657
-0.924987
0.925284
0.0319837
-0.0321729
-0.782602
0.782792
0.0316899
-0.0300301
-0.653603
0.651943
0.0269155
-0.0218295
-0.498066
0.49298
0.0163512
-0.0104924
-0.305904
0.300045
0.006071
-0.00257554
-0.135816
0.13232
0.000702217
-0.0216114
0.0209092
-0.0287532
0.0289253
-0.000172083
0.000477579
-0.000177944
-0.224265
0.223965
-0.000606087
0.00143564
-0.39614
0.395311
-0.0019644
0.00171686
-0.553179
0.553427
-0.000528888
-0.00117862
-0.676614
0.678322
0.00353475
-0.00595688
-0.798233
0.800655
0.0088061
-0.0115299
-0.943643
0.946366
0.0146179
-0.017496
-1.11942
1.1223
0.0206705
-0.023531
-1.33078
1.33364
0.0265433
-0.0290921
-1.58514
1.58769
0.0311823
-0.0328253
-1.57833
1.57998
0.0338772
-0.0346435
-1.31518
1.31595
0.0350531
-0.0352227
-1.10067
1.10084
0.0352452
-0.0353003
-0.925521
0.925576
0.0354208
-0.0352582
-0.782597
0.782434
0.0344067
-0.0321468
-0.650095
0.647835
0.0284493
-0.022816
-0.487752
0.482119
0.017001
-0.0109084
-0.294145
0.288052
0.00633079
-0.00269979
-0.128798
0.125167
0.000740816
-0.020203
0.0194622
-0.029178
0.0294931
-0.000315101
0.001483
-0.00182678
-0.224017
0.224361
0.0018862
-0.00177767
-0.394806
0.394698
0.00185325
-0.0024541
-0.55405
0.554651
0.0038691
-0.00577097
-0.680319
0.682221
0.00836106
-0.0110248
-0.803086
0.805749
0.0141517
-0.0171278
-0.949007
0.951983
0.0204813
-0.0235803
-1.12511
1.12821
0.0269593
-0.0299558
-1.33644
1.33944
0.033042
-0.0355684
-1.59015
1.59267
0.0375437
-0.0389807
-1.58146
1.58289
0.0398123
-0.0403145
-1.31651
1.31702
0.0404748
-0.0403615
-1.10105
1.10094
0.0401221
-0.0399131
-0.925537
0.925329
0.0398272
-0.0392
-0.781823
0.781195
0.0378951
-0.0349488
-0.645423
0.642476
0.0305786
-0.0242884
-0.476321
0.470031
0.0180197
-0.0115602
-0.281863
0.275404
0.00672339
-0.00287726
-0.121473
0.117627
0.000792737
-0.018712
0.0179193
-0.0298796
0.0303708
-0.000491161
0.00276303
-0.00385653
-0.225095
0.226189
0.00478062
-0.00546788
-0.394925
0.395612
0.00625964
-0.00732461
-0.555744
0.556809
0.00905741
-0.0112291
-0.68448
0.686652
0.0141326
-0.0171067
-0.808425
0.811399
0.0205841
-0.0238767
-0.954882
0.958175
0.0275613
-0.0309351
-1.13125
1.13463
0.0345672
-0.0377322
-1.34238
1.34554
0.0409105
-0.0434136
-1.5951
1.5976
0.0452566
-0.0464639
-1.58415
1.58536
0.0470269
-0.0472448
-1.31727
1.31749
0.0471274
-0.0466988
-1.10082
1.10039
0.0461706
-0.0456755
-0.92497
0.924475
0.0452721
-0.0441983
-0.780129
0.779055
0.0423067
-0.0385381
-0.639395
0.635626
0.0333655
-0.0262719
-0.463542
0.456448
0.0194101
-0.0124398
-0.268789
0.261819
0.0072397
-0.00310219
-0.113684
0.109547
0.000855855
-0.0171128
0.0162569
-0.0309327
0.0316432
-0.000710499
0.0042544
-0.00623412
-0.2277
0.22968
0.00822102
-0.00981154
-0.396702
0.398293
0.0114266
-0.0130727
-0.55853
0.560176
0.0152606
-0.0177993
-0.689264
0.691802
0.0211214
-0.0244899
-0.814392
0.817761
0.0284056
-0.0320897
-0.9614
0.965084
0.0361791
-0.0398832
-1.13795
1.14166
0.043813
-0.0471685
-1.34865
1.352
0.0504393
-0.0528957
-1.59999
1.60244
0.0545663
-0.0554941
-1.58636
1.58729
0.055746
-0.0556363
-1.31739
1.31728
0.0552084
-0.0544322
-1.0999
1.09913
0.0535878
-0.0527659
-0.923758
0.922936
0.0519537
-0.0503698
-0.777538
0.775954
0.0477532
-0.0430038
-0.631743
0.626993
0.036866
-0.0287859
-0.449109
0.441029
0.0211686
-0.0135327
-0.25463
0.246994
0.00786513
-0.00336556
-0.105281
0.100782
0.000926887
-0.0153844
0.0144575
-0.0324191
0.0334173
-0.000998136
0.00613433
-0.00916814
-0.232083
0.235117
0.012416
-0.0150638
-0.400405
0.403053
0.017646
-0.0200015
-0.562683
0.565039
0.0227873
-0.0258166
-0.694873
0.697903
0.0296872
-0.0335541
-0.82116
0.825027
0.0380111
-0.0421695
-0.968712
0.97287
0.0467395
-0.0508252
-1.14532
1.14941
0.055084
-0.0586324
-1.35529
1.35884
0.0619687
-0.0643278
-1.60475
1.60711
0.0657598
-0.0663291
-1.58797
1.58854
0.0662088
-0.0656989
-1.31672
1.31622
0.0649226
-0.0637502
-1.09821
1.09704
0.0625486
-0.0613997
-0.921821
0.920672
0.0600548
-0.0578595
-0.773917
0.771722
0.0543679
-0.0484234
-0.622128
0.616183
0.0411094
-0.0318183
-0.43265
0.423359
0.0232628
-0.0148022
-0.239078
0.230618
0.00857028
-0.00365128
-0.0961294
0.0912104
0.00100037
-0.0135137
0.0125133
-0.0344665
0.0358624
-0.00139592
0.00859319
-0.0129758
-0.238566
0.242949
0.0177122
-0.021594
-0.406404
0.410286
0.0253085
-0.0285234
-0.568535
0.57175
0.0320835
-0.0357605
-0.701579
0.705256
0.0403404
-0.0448347
-0.828931
0.833426
0.049949
-0.0546665
-0.976986
0.981703
0.0597834
-0.0642801
-1.15344
1.15794
0.0688627
-0.0725653
-1.36228
1.36598
0.0758899
-0.0780542
-1.60926
1.61142
0.0791413
-0.079245
-1.58881
1.58891
0.0786751
-0.077639
-1.31513
1.3141
0.0764494
-0.0748496
-1.09562
1.09402
0.0732777
-0.071707
-0.919124
0.917553
0.0698173
-0.0668512
-0.769039
0.766073
0.0622615
-0.0548406
-0.610107
0.602686
0.0460855
-0.0353175
-0.413714
0.402946
0.0256253
-0.0161854
-0.221823
0.212383
0.009309
-0.0039357
-0.0861254
0.0807521
0.00106877
-0.0114991
0.0104303
-0.0372731
0.0392327
-0.00195959
0.0120097
-0.0181118
-0.24767
0.253772
0.0246453
-0.0299718
-0.415193
0.42052
0.0350284
-0.0392948
-0.576477
0.580743
0.0438416
-0.0483681
-0.709714
0.71424
0.053859
-0.0591251
-0.837956
0.843222
0.0650128
-0.0703546
-0.986385
0.991727
0.0760407
-0.0809216
-1.16236
1.16724
0.0857487
-0.0894918
-1.36951
1.37325
0.0926419
-0.0944376
-1.61328
1.61508
0.0950082
-0.0944864
-1.58862
1.5881
0.0933517
-0.0916939
-1.31244
1.31079
0.0900022
-0.087948
-1.09203
1.08997
0.0859826
-0.0838419
-0.915444
0.913304
0.081421
-0.0774295
-0.762501
0.758509
0.071462
-0.0622159
-0.595101
0.585855
0.0517011
-0.0391552
-0.391776
0.37923
0.0281249
-0.0175748
-0.202576
0.192026
0.0100081
-0.0041836
-0.0752193
0.0693948
0.00112137
-0.00935581
0.00823444
-0.0411578
0.0439912
-0.0028334
0.0169847
-0.0253416
-0.26013
0.268487
0.0341031
-0.0411676
-0.427446
0.43451
0.047858
-0.0534036
-0.586996
0.592541
0.0592219
-0.0648558
-0.719699
0.725333
0.0714743
-0.0776319
-0.848505
0.854662
0.0843468
-0.0902924
-0.997012
1.00296
0.0964542
-0.101576
-1.17196
1.17708
0.106436
-0.109989
-1.37669
1.38024
0.112682
-0.113838
-1.61642
1.61758
0.113642
-0.112274
-1.58706
1.5857
0.110406
-0.108018
-1.30844
1.30606
0.10574
-0.103164
-1.08733
1.08476
0.100775
-0.0979531
-0.910435
0.907613
0.0948773
-0.0895611
-0.753778
0.748462
0.0818763
-0.0703807
-0.576376
0.564881
0.0577387
-0.043098
-0.366267
0.351626
0.0305491
-0.018811
-0.181122
0.169383
0.0105656
-0.00434882
-0.0634486
0.0572318
0.00114477
-0.00712103
0.00597626
-0.0466967
0.0510082
-0.00431153
0.0246846
-0.036111
-0.277108
0.288535
0.0477665
-0.0571462
-0.444184
0.453563
0.0658553
-0.0728917
-0.600697
0.607733
0.0802541
-0.0873815
-0.731917
0.739044
0.0951746
-0.102139
-0.860773
0.867737
0.109509
-0.115834
-1.00874
1.01506
0.122153
-0.127176
-1.18186
1.18689
0.131655
-0.134624
-1.38328
1.38625
0.136424
-0.136556
-1.61808
1.61821
0.135261
-0.132775
-1.58367
1.58119
0.129986
-0.126716
-1.30289
1.29962
0.123758
-0.120601
-1.08139
1.07823
0.117702
-0.11415
-0.90392
0.900368
0.110127
-0.10308
-0.742213
0.735166
0.0932143
-0.0789635
-0.553012
0.538761
0.063809
-0.0467921
-0.336619
0.319602
0.0326064
-0.0196942
-0.157398
0.144486
0.0108608
-0.00437962
-0.0509796
0.0444985
0.00112409
-0.00485764
0.00373355
-0.0549595
0.0623506
-0.00739102
0.0381641
-0.0540689
-0.300755
0.31666
0.0697934
-0.0823931
-0.467071
0.479671
0.0932919
-0.101695
-0.61802
0.626423
0.110567
-0.118954
-0.746742
0.755128
0.127643
-0.134992
-0.87446
0.881809
0.142431
-0.14853
-1.02095
1.02705
0.154326
-0.158608
-1.19126
1.19554
0.162036
-0.163806
-1.38839
1.39016
0.164128
-0.162762
-1.61742
1.61605
0.159997
-0.156096
-1.57789
1.57399
0.152159
-0.147814
-1.29547
1.29112
0.144081
-0.140318
-1.07401
1.07025
0.136768
-0.132379
-0.895701
0.891313
0.126963
-0.117559
-0.726831
0.717427
0.104858
-0.0872334
-0.52386
0.506235
0.0692625
-0.0497721
-0.302376
0.282886
0.033995
-0.0200763
-0.131617
0.117698
0.0108248
-0.00425465
-0.0381504
0.0315803
0.00104973
-0.00265565
0.00160592
-0.0692313
0.0733272
-0.00409588
0.0291697
-0.0429938
-0.335059
0.348883
0.0569634
-0.0685557
-0.497549
0.509141
0.0788919
-0.0885068
-0.638546
0.648161
0.0991909
-0.108993
-0.763047
0.772849
0.119868
-0.129522
-0.888251
0.897905
0.139779
-0.148869
-1.03221
1.0413
0.158312
-0.166338
-1.19872
1.20675
0.174208
-0.180353
-1.39075
1.3969
0.185611
-0.188747
-1.61346
1.6166
0.18973
-0.189137
-1.56905
1.56846
0.187466
-0.184989
-1.2858
1.28333
0.182836
-0.180264
-1.06498
1.06241
0.177826
-0.173547
-0.885161
0.880881
0.166001
-0.152034
-0.706225
0.692257
0.132972
-0.107588
-0.487714
0.46233
0.0830297
-0.0575789
-0.26336
0.23791
0.0381165
-0.0218053
-0.104422
0.088111
0.0114169
-0.00435939
-0.0255063
0.0184488
0.00105029
-0.000615789
-0.000434503
-0.0806357
0.078651
0.00198464
0.00743187
-0.0165525
-0.365441
0.374562
0.0271858
-0.0354085
-0.52538
0.533602
0.0436844
-0.0517495
-0.660334
0.668399
0.0615798
-0.0707338
-0.782267
0.791421
0.080472
-0.0893372
-0.906983
0.915848
0.098719
-0.106686
-1.05009
1.05805
0.115134
-0.12193
-1.21455
1.22135
0.128513
-0.133329
-1.40269
1.4075
0.136828
-0.138372
-1.61885
1.6204
0.137768
-0.135561
-1.56709
1.56488
0.132277
-0.128077
-1.28011
1.27591
0.124241
-0.120054
-1.05761
1.05342
0.116002
-0.110419
-0.871751
0.866168
0.102372
-0.0899248
-0.674376
0.661929
0.0753156
-0.0577942
-0.435438
0.417916
0.0424636
-0.0282508
-0.2129
0.198687
0.0182229
-0.0103001
-0.0728639
0.0649411
0.00541571
-0.00210898
-0.0117649
0.00845814
0.000452665
0.0015514
-0.00200406
-0.0820433
0.0791036
0.00293975
-0.0017455
-0.00351302
-0.385978
0.391236
0.0107438
-0.0166788
-0.545946
0.551881
0.0227794
-0.0298557
-0.678682
0.685758
0.0383625
-0.0463061
-0.799677
0.80762
0.0549719
-0.062695
-0.923949
0.931672
0.0706117
-0.0776849
-1.06582
1.0729
0.0849538
-0.0908621
-1.22768
1.23358
0.0960879
-0.0996318
-1.41159
1.41513
0.102021
-0.102304
-1.62114
1.62143
0.100449
-0.0969919
-1.56196
1.5585
0.0926996
-0.0876017
-1.27133
1.26623
0.0825018
-0.0770655
-1.04739
1.04196
0.0718709
-0.0655396
-0.856455
0.850124
0.0582485
-0.048097
-0.646338
0.636186
0.0376472
-0.0264956
-0.39878
0.387628
0.0181838
-0.011539
-0.184035
0.17739
0.00739305
-0.00437316
-0.0570302
0.0540103
0.00244228
-0.000966859
-0.00517628
0.00370086
0.000213436
0.00265826
-0.0028717
-0.0807551
0.0779691
0.00278602
-0.00540411
0.00289783
-0.399657
0.402163
0.00174989
-0.00623671
-0.561103
0.565589
0.0113961
-0.0173325
-0.693809
0.699745
0.0245886
-0.0313758
-0.814916
0.821704
0.0387648
-0.0453733
-0.938849
0.945457
0.0525185
-0.0584817
-1.07952
1.08548
0.0647731
-0.0693968
-1.23904
1.24366
0.0737209
-0.0764637
-1.41839
1.42113
0.0778173
-0.0769676
-1.62117
1.62032
0.0744164
-0.0702889
-1.5544
1.55027
0.0653968
-0.059282
-1.2607
1.25458
0.0535442
-0.0472923
-1.03514
1.02889
0.0412134
-0.0346683
-0.840226
0.833681
0.0279969
-0.0202454
-0.623004
0.615253
0.013363
-0.00751135
-0.375443
0.369591
0.00421491
-0.00229577
-0.169687
0.167768
0.00142367
-0.0010359
-0.0501218
0.0497341
0.000716413
-0.000266605
-0.00202576
0.00157595
4.94089e-05
0.00336379
-0.0034132
-0.0792051
0.0767354
0.00246968
-0.00655254
0.00567131
-0.408733
0.409614
-0.00228384
-0.00089954
-0.573263
0.576446
0.00510591
-0.0105073
-0.706475
0.711876
0.0165961
-0.0225387
-0.827785
0.833728
0.0289183
-0.0346329
-0.951592
0.957307
0.0407234
-0.0459822
-1.09128
1.09654
0.0512403
-0.0553942
-1.24811
1.25226
0.0589539
-0.0610412
-1.42345
1.42553
0.0617201
-0.0602836
-1.61921
1.61777
0.0572086
-0.0523899
-1.54536
1.54054
0.0470955
-0.0407052
-1.24828
1.24189
0.0345634
-0.0276554
-1.02161
1.0147
0.0212861
-0.0145301
-0.82429
0.817534
0.00879014
-0.0028466
-0.6049
0.598957
-0.00141464
0.00386284
-0.361702
0.359254
-0.00429024
0.00363389
-0.163947
0.164603
-0.00263582
0.00150852
-0.0485632
0.0496905
-0.000729353
0.000322025
-0.0011361
0.00154343
-9.11725e-05
0.00372673
-0.00363556
-0.0777561
0.0756345
0.00212156
-0.00646211
0.0061045
-0.414903
0.415261
-0.00410395
0.00155044
-0.582558
0.585111
0.00248172
-0.0070917
-0.71719
0.7218
0.0123129
-0.0174599
-0.838873
0.84402
0.0231158
-0.0282006
-0.962652
0.967737
0.0337361
-0.0382996
-1.1015
1.10606
0.0429645
-0.0466195
-1.25609
1.25975
0.0496222
-0.0512462
-1.4273
1.42892
0.0514486
-0.0500025
-1.61617
1.61472
0.0465923
-0.0416803
-1.53522
1.53031
0.0361966
-0.0296139
-1.23523
1.22865
0.0235307
-0.0163231
-1.00723
1.00002
0.0097942
-0.00316199
-0.80885
0.802218
-0.00198446
0.00662553
-0.590486
0.585845
-0.00952623
0.0104124
-0.354042
0.353156
-0.00927634
0.00736953
-0.163366
0.165273
-0.00551345
0.00345051
-0.0501939
0.0522568
-0.00190385
0.000788383
-0.00201901
0.00313448
-0.00020936
0.00370372
-0.00349436
-0.0766323
0.0749693
0.00166293
-0.00561336
0.00560483
-0.419433
0.419442
-0.004017
0.00211777
-0.590621
0.59252
0.00162278
-0.00578411
-0.726423
0.730584
0.0107249
-0.0151407
-0.848755
0.853171
0.0200878
-0.0245711
-0.972769
0.977252
0.0297882
-0.0338946
-1.11064
1.11475
0.037982
-0.0413732
-1.26318
1.26658
0.0444334
-0.0457995
-1.43052
1.43189
0.0459171
-0.0442669
-1.61283
1.61118
0.0411047
-0.0359514
-1.52516
1.52
0.0306773
-0.0243223
-1.22188
1.21552
0.0181798
-0.0112791
-0.992607
0.985706
0.00483629
0.00171551
-0.793976
0.787424
-0.00633903
0.0103826
-0.578347
0.574304
-0.0127794
0.0130509
-0.349379
0.349108
-0.011614
0.00933727
-0.165333
0.16761
-0.0071011
0.00460514
-0.053729
0.056225
-0.00265383
0.00111046
-0.00417742
0.00572078
-0.000300478
0.00336242
-0.00306194
-0.0760059
0.0746945
0.00131148
-0.00456068
0.00468972
-0.422976
0.422847
-0.00331362
0.00151187
-0.597601
0.599403
0.0020751
-0.00577291
-0.734686
0.738383
0.00998824
-0.0142271
-0.857514
0.861753
0.0187706
-0.0233626
-0.981519
0.986111
0.0278149
-0.0317016
-1.11893
1.12282
0.0358712
-0.0389694
-1.26982
1.27292
0.0414882
-0.0431986
-1.43313
1.43484
0.0434056
-0.0419429
-1.60955
1.60809
0.0388409
-0.0341543
-1.51504
1.51035
0.0291094
-0.0230017
-1.20887
1.20276
0.0171926
-0.0105669
-0.978578
0.971952
0.00441732
0.00173859
-0.779819
0.773663
-0.00655492
0.0101343
-0.567368
0.563789
-0.0122121
0.0128052
-0.346085
0.345492
-0.0117549
0.00958276
-0.167982
0.170154
-0.00742342
0.00493697
-0.0579437
0.0604302
-0.00292764
0.00125155
-0.00701004
0.00868614
-0.000360186
0.00281996
-0.00245978
-0.075903
0.07481
0.00109298
-0.00330175
0.00320863
-0.426124
0.426217
-0.00211558
0.000373869
-0.603983
0.605725
0.00308771
-0.00665044
-0.74233
0.745892
0.0106728
-0.0144862
-0.865756
0.869569
0.019121
-0.0228986
-0.990102
0.993879
0.0272912
-0.030969
-1.12684
1.13052
0.0349881
-0.0382443
-1.27598
1.27923
0.041004
-0.0424498
-1.43629
1.43774
0.0429402
-0.0418175
-1.60653
1.60541
0.0392917
-0.034858
-1.50556
1.50112
0.0302182
-0.0245052
-1.19681
1.1911
0.0191006
-0.0128271
-0.96509
0.958817
0.00714679
-0.00111478
-0.766523
0.760491
-0.00362837
0.00731867
-0.557297
0.553607
-0.00941454
0.0102235
-0.34264
0.341831
-0.00983377
0.00830785
-0.170161
0.171686
-0.00661098
0.00451048
-0.0619746
0.0640751
-0.00274531
0.00121811
-0.00993616
0.0114634
-0.000369719
0.00218185
-0.00181213
-0.076082
0.0753211
0.000760844
-0.00215848
0.00161808
-0.429339
0.42988
-0.000694611
-0.00128859
-0.609518
0.611502
0.0043417
-0.00773836
-0.749441
0.752838
0.0115732
-0.0154998
-0.873223
0.87715
0.0194971
-0.0234178
-0.997844
1.00176
0.0277523
-0.0312017
-1.1346
1.13805
0.0352869
-0.0384735
-1.28227
1.28546
0.041264
-0.0432128
-1.43957
1.44152
0.0441599
-0.0432918
-1.60432
1.60345
0.0409906
-0.0372737
-1.49689
1.49317
0.0332009
-0.0279091
-1.18534
1.18005
0.0228304
-0.0172143
-0.952506
0.94689
0.0115746
-0.00603251
-0.753727
0.748184
0.00128264
0.00275783
-0.547593
0.543552
-0.00497151
0.00624386
-0.338583
0.33731
-0.00646797
0.00584334
-0.171332
0.171957
-0.00480165
0.00339846
-0.0650925
0.0664957
-0.0021494
0.000997911
-0.0124463
0.0135978
-0.000306379
0.00155504
-0.00124866
-0.0766815
0.0760899
0.000591597
-0.00119113
0.000746377
-0.432775
0.433219
0.000787941
-0.00269061
-0.615215
0.617118
0.00588273
-0.00913412
-0.756008
0.759259
0.0128039
-0.0163149
-0.880724
0.884235
0.0204225
-0.0240163
-1.00567
1.00926
0.0282873
-0.0321608
-1.14194
1.14581
0.0358716
-0.0393753
-1.28867
1.29217
0.0425738
-0.0446023
-1.44336
1.44538
0.0459099
-0.0458153
-1.6028
1.6027
0.0439679
-0.0409097
-1.48936
1.4863
0.0371058
-0.0323603
-1.17489
1.17014
0.0277991
-0.0224741
-0.940918
0.935592
0.0173363
-0.0119795
-0.74175
0.736393
0.00730366
-0.00281921
-0.537684
0.5332
2.55374e-05
0.00176098
-0.333641
0.331854
-0.00273223
0.00290468
-0.170962
0.17079
-0.00259481
0.00196028
-0.066792
0.0674265
-0.00131198
0.000649482
-0.0141618
0.0148243
-0.000212206
0.00106045
-0.000848243
-0.077563
0.0771614
0.000401609
-0.000170378
-0.000502589
-0.436339
0.437012
0.00200473
-0.0042083
-0.620552
0.622756
0.00730267
-0.0103821
-0.762325
0.765404
0.0141322
-0.0174854
-0.887708
0.891061
0.0214267
-0.0251361
-1.01332
1.01703
0.0293039
-0.0331363
-1.14952
1.15335
0.0370633
-0.0405892
-1.29558
1.29911
0.0439698
-0.0467432
-1.44769
1.45046
0.0484911
-0.0486953
-1.60254
1.60275
0.0475532
-0.0448508
-1.48316
1.48046
0.0416483
-0.0375149
-1.16542
1.16129
0.0331098
-0.0281452
-0.93005
0.925085
0.0233092
-0.0179877
-0.730319
0.724997
0.0133899