/*--------------------------------*- C++ -*----------------------------------*\
| =========                 |                                                 |
| \\      /  F ield         | OpenFOAM: The Open Source CFD Toolbox           |
|  \\    /   O peration     | Version:  2306                                  |
|   \\  /    A nd           | Website:  www.openfoam.com                      |
|    \\/     M anipulation  |                                                 |
\*---------------------------------------------------------------------------*/
FoamFile
{
    version     2.0;
    format      ascii;
    arch        "LSB;label=32;scalar=64";
    class       volVectorField;
    location    "61";
    object      U;
}
// * * * * * * * * * * * * * * * * * * * * * * * * * * * * * * * * * * * * * //

dimensions      [0 1 -1 0 0 0 0];

internalField   nonuniform List<vector> 
8800
(
(0.984957 -0.0884521 0)
(1.00213 -0.0568253 0)
(0.999651 -0.0305584 0)
(0.999995 -0.0158657 0)
(1.00007 -0.00872586 0)
(1.00009 -0.00509136 0)
(1.00006 -0.00300261 0)
(1.00002 -0.00169101 0)
(0.999999 -0.000785486 0)
(1.00006 -8.25758e-05 0)
(0.999987 0.000630846 0)
(0.999994 0.00139035 0)
(1.00002 0.00241668 0)
(1.00005 0.00401056 0)
(1.00004 0.0067164 0)
(1.00001 0.01174 0)
(0.999834 0.0220505 0)
(0.999167 0.0411657 0)
(1.00748 0.0768943 0)
(0.773654 0.0450713 0)
(0.361008 -0.0151711 0)
(1.04557 -0.0741994 0)
(1.0871 -0.0678873 0)
(1.04775 -0.0522986 0)
(1.02458 -0.038396 0)
(1.01241 -0.0261195 0)
(1.00651 -0.0167707 0)
(1.00363 -0.0102481 0)
(1.00219 -0.00559367 0)
(1.00152 -0.00197839 0)
(1.00139 0.00125633 0)
(1.00173 0.00458409 0)
(1.0027 0.00849277 0)
(1.00472 0.0138264 0)
(1.00881 0.0215451 0)
(1.01734 0.0323585 0)
(1.03444 0.0456951 0)
(1.06547 0.0598002 0)
(1.09407 0.072919 0)
(0.842198 0.055716 0)
(0.217088 -0.00164639 0)
(1.07586 -0.0503538 0)
(1.09983 -0.0487144 0)
(1.06465 -0.0401657 0)
(1.03999 -0.0330051 0)
(1.02381 -0.0257068 0)
(1.01402 -0.0183124 0)
(1.00853 -0.0115693 0)
(1.00567 -0.00575067 0)
(1.00448 -0.000419656 0)
(1.00479 0.00472684 0)
(1.00663 0.010058 0)
(1.01056 0.0160988 0)
(1.01786 0.0229964 0)
(1.03049 0.0302455 0)
(1.05063 0.0372401 0)
(1.08034 0.0445754 0)
(1.10617 0.051786 0)
(0.94279 0.0413404 0)
(0.216441 0.00166844 0)
(0.175918 -0.000645281 0)
(1.01869 -0.0354088 0)
(1.10559 -0.0414171 0)
(1.07813 -0.036254 0)
(1.05288 -0.0302302 0)
(1.03562 -0.0245029 0)
(1.02359 -0.0187622 0)
(1.01566 -0.0127222 0)
(1.01099 -0.0065663 0)
(1.00893 -0.000278809 0)
(1.00945 0.00592151 0)
(1.01255 0.0118836 0)
(1.01859 0.0176887 0)
(1.02832 0.023243 0)
(1.04264 0.0286531 0)
(1.06335 0.0343048 0)
(1.09375 0.0402666 0)
(1.09409 0.0418902 0)
(0.828736 0.022794 0)
(0.174822 0.000668633 0)
(0.154375 -0.000487138 0)
(0.957343 -0.0255529 0)
(1.10411 -0.0350885 0)
(1.08797 -0.0326472 0)
(1.06146 -0.0280983 0)
(1.04358 -0.0231008 0)
(1.03115 -0.0178252 0)
(1.02244 -0.0123017 0)
(1.0168 -0.0063771 0)
(1.01409 0.000107991 0)
(1.01472 0.00659509 0)
(1.01855 0.0124811 0)
(1.02543 0.0177696 0)
(1.03564 0.0227134 0)
(1.0503 0.0275111 0)
(1.07197 0.0319828 0)
(1.10065 0.035857 0)
(1.06905 0.0339935 0)
(0.741102 0.0143753 0)
(0.152724 0.000513139 0)
(0.139854 -0.000358351 0)
(0.900396 -0.019208 0)
(1.09648 -0.0301425 0)
(1.09609 -0.0292625 0)
(1.06911 -0.0255125 0)
(1.05041 -0.0214111 0)
(1.03745 -0.016677 0)
(1.02842 -0.0114149 0)
(1.0224 -0.00568739 0)
(1.01936 0.00067747 0)
(1.01996 0.0070535 0)
(1.02398 0.0126962 0)
(1.03105 0.0176524 0)
(1.04156 0.0221057 0)
(1.05682 0.0260521 0)
(1.07941 0.0295313 0)
(1.1029 0.0321972 0)
(1.03708 0.0281468 0)
(0.6744 0.0102627 0)
(0.137524 0.000388858 0)
(0.12921 -0.000273837 0)
(0.850662 -0.0148345 0)
(1.08411 -0.026038 0)
(1.10177 -0.0263652 0)
(1.07596 -0.0230594 0)
(1.05674 -0.0194124 0)
(1.04334 -0.0151976 0)
(1.03394 -0.0103071 0)
(1.02767 -0.0047911 0)
(1.02441 0.00138309 0)
(1.02488 0.00753233 0)
(1.02888 0.012894 0)
(1.03608 0.0174415 0)
(1.04688 0.0212879 0)
(1.06253 0.0246048 0)
(1.08555 0.0275977 0)
(1.10205 0.0293807 0)
(1.00225 0.0236313 0)
(0.622415 0.00788544 0)
(0.126052 0.000310632 0)
(0.121091 -0.00021117 0)
(0.808332 -0.0116644 0)
(1.06881 -0.0224407 0)
(1.1053 -0.0237383 0)
(1.08221 -0.0208683 0)
(1.06255 -0.0174403 0)
(1.04888 -0.0135171 0)
(1.03921 -0.00895734 0)
(1.03266 -0.00371393 0)
(1.02917 0.00223043 0)
(1.02947 0.00811306 0)
(1.03341 0.0131238 0)
(1.04067 0.0172086 0)
(1.05157 0.0205659 0)
(1.06745 0.0234854 0)
(1.09084 0.0261734 0)
(1.09832 0.0270534 0)
(0.967019 0.020084 0)
(0.580641 0.00633863 0)
(0.116929 0.000255715 0)
(0.114798 -0.000163029 0)
(0.772664 -0.00929152 0)
(1.05199 -0.0192737 0)
(1.10766 -0.0213081 0)
(1.08808 -0.0188169 0)
(1.06802 -0.0155434 0)
(1.05409 -0.0117856 0)
(1.04424 -0.00743189 0)
(1.03746 -0.00243143 0)
(1.0337 0.00325295 0)
(1.03378 0.00882815 0)
(1.03759 0.0134593 0)
(1.04479 0.0171355 0)
(1.0557 0.0201109 0)
(1.07179 0.0227036 0)
(1.09486 0.0250505 0)
(1.09177 0.0251214 0)
(0.932722 0.0173425 0)
(0.546074 0.0052797 0)
(0.109414 0.000216974 0)
(0.109888 -0.000124764 0)
(0.742725 -0.00745131 0)
(1.03471 -0.0164659 0)
(1.10907 -0.0190214 0)
(1.09365 -0.0168423 0)
(1.0733 -0.0136662 0)
(1.0591 -0.0100048 0)
(1.04905 -0.00577603 0)
(1.04206 -0.000949011 0)
(1.03801 0.00448466 0)
(1.03781 0.00973618 0)
(1.04139 0.0140045 0)
(1.04845 0.0173183 0)
(1.05935 0.0199467 0)
(1.07565 0.0222492 0)
(1.0976 0.0242277 0)
(1.08278 0.0235326 0)
(0.899936 0.0152563 0)
(0.51666 0.00454068 0)
(0.103021 0.000190006 0)
(0.106072 -9.31086e-05 0)
(0.717695 -0.00596859 0)
(1.01781 -0.0139454 0)
(1.10964 -0.0168117 0)
(1.09912 -0.0149144 0)
(1.0785 -0.0117552 0)
(1.064 -0.00813078 0)
(1.05373 -0.00396976 0)
(1.04648 0.000741564 0)
(1.04212 0.0059633 0)
(1.04156 0.0109111 0)
(1.04484 0.0148394 0)
(1.05172 0.0178088 0)
(1.06258 0.0200991 0)
(1.07907 0.0221384 0)
(1.099 0.0237209 0)
(1.07173 0.0222863 0)
(0.868783 0.0137116 0)
(0.490937 0.00403111 0)
(0.0974025 0.00017234 0)
(0.103162 -6.57448e-05 0)
(0.696931 -0.00472629 0)
(1.00189 -0.0116459 0)
(1.10952 -0.0146421 0)
(1.10442 -0.0129465 0)
(1.08369 -0.00975822 0)
(1.06887 -0.0061132 0)
(1.05833 -0.00196024 0)
(1.05079 0.00268523 0)
(1.04603 0.00774229 0)
(1.04503 0.0124172 0)
(1.04795 0.0160179 0)
(1.0546 0.0186506 0)
(1.0654 0.0206054 0)
(1.08203 0.0223884 0)
(1.09939 0.0235589 0)
(1.05891 0.0213906 0)
(0.839109 0.0126191 0)
(0.467815 0.00369486 0)
(0.0923 0.000161976 0)
(0.101035 -4.05826e-05 0)
(0.67996 -0.00363644 0)
(0.987414 -0.00949659 0)
(1.10893 -0.0124266 0)
(1.10954 -0.0108531 0)
(1.08895 -0.00761375 0)
(1.07378 -0.00389142 0)
(1.06293 0.000317178 0)
(1.05502 0.00494898 0)
(1.04978 0.00989107 0)
(1.04825 0.0143215 0)
(1.05072 0.017604 0)
(1.05711 0.0198997 0)
(1.06783 0.0215151 0)
(1.08451 0.0230247 0)
(1.09879 0.0237805 0)
(1.04448 0.0208625 0)
(0.810595 0.0119072 0)
(0.446442 0.00349362 0)
(0.0875109 0.000157353 0)
(0.0996302 -1.57836e-05 0)
(0.666478 -0.00262984 0)
(0.974737 -0.00742313 0)
(1.10816 -0.0101061 0)
(1.11459 -0.00857421 0)
(1.09437 -0.00524807 0)
(1.07881 -0.00138613 0)
(1.06759 0.00293751 0)
(1.05922 0.00761749 0)
(1.05339 0.0124939 0)
(1.05122 0.0167028 0)
(1.05317 0.0196695 0)
(1.05923 0.0216183 0)
(1.06983 0.0228711 0)
(1.08653 0.0241168 0)
(1.09696 0.0244173 0)
(1.02851 0.0206812 0)
(0.782826 0.0115182 0)
(0.426126 0.00340134 0)
(0.0828729 0.000157388 0)
(0.0989296 1.0809e-05 0)
(0.65633 -0.00165248 0)
(0.964173 -0.00535368 0)
(1.10756 -0.00761684 0)
(1.11972 -0.00603454 0)
(1.10001 -0.00257201 0)
(1.08404 0.00149502 0)
(1.07236 0.00599728 0)
(1.06344 0.0107922 0)
(1.05689 0.0156494 0)
(1.05395 0.0196536 0)
(1.05527 0.0222999 0)
(1.06094 0.0238857 0)
(1.0714 0.0247538 0)
(1.08802 0.0257033 0)
(1.09383 0.0255014 0)
(1.01099 0.0208841 0)
(0.755343 0.0114261 0)
(0.406292 0.00340402 0)
(0.0782526 0.000161537 0)
(0.0989548 3.61296e-05 0)
(0.649486 -0.000656551 0)
(0.956023 -0.00321471 0)
(1.10746 -0.00488649 0)
(1.12508 -0.00314859 0)
(1.10598 0.00051 0)
(1.08955 0.0048526 0)
(1.07734 0.00961136 0)
(1.06773 0.0145899 0)
(1.06032 0.0194746 0)
(1.05644 0.0232868 0)
(1.057 0.025598 0)
(1.06221 0.0267994 0)
(1.07251 0.0272682 0)
(1.08876 0.0278528 0)
(1.08923 0.0270495 0)
(0.991752 0.0214942 0)
(0.727627 0.0116114 0)
(0.386414 0.00349253 0)
(0.0735287 0.000169323 0)
(0.0997386 7.2601e-05 0)
(0.64602 0.000364923 0)
(0.950606 -0.000931436 0)
(1.10821 -0.00182966 0)
(1.13087 0.000182124 0)
(1.11239 0.00411459 0)
(1.09545 0.00882122 0)
(1.08259 0.0139196 0)
(1.07215 0.0191536 0)
(1.06369 0.0241123 0)
(1.05869 0.0277392 0)
(1.05835 0.0296883 0)
(1.063 0.0304832 0)
(1.07308 0.0305251 0)
(1.08861 0.030689 0)
(1.08291 0.0291444 0)
(0.970563 0.0225453 0)
(0.699114 0.0120664 0)
(0.366002 0.00366004 0)
(0.0685932 0.000180281 0)
(0.101491 0.000107358 0)
(0.646313 0.00152767 0)
(0.948259 0.00157275 0)
(1.11025 0.0016676 0)
(1.1373 0.0040538 0)
(1.11938 0.0083939 0)
(1.10185 0.0135628 0)
(1.08821 0.0190941 0)
(1.07676 0.0246597 0)
(1.06701 0.0297342 0)
(1.06067 0.0331761 0)
(1.05926 0.0347184 0)
(1.06325 0.0350685 0)
(1.07307 0.0346441 0)
(1.08733 0.0343226 0)
(1.0746 0.0318737 0)
(0.947051 0.0240728 0)
(0.669195 0.0127874 0)
(0.344593 0.00390123 0)
(0.0633488 0.000193906 0)
(0.104274 0.000156931 0)
(0.650762 0.00296108 0)
(0.94949 0.00446211 0)
(1.11407 0.00568707 0)
(1.14459 0.00863949 0)
(1.12711 0.0135282 0)
(1.10888 0.0192732 0)
(1.09429 0.0253447 0)
(1.08159 0.0313225 0)
(1.07028 0.0365441 0)
(1.06235 0.039771 0)
(1.0597 0.0408457 0)
(1.06289 0.0407078 0)
(1.07239 0.0397524 0)
(1.08475 0.0388908 0)
(1.06397 0.0353367 0)
(0.920726 0.0261163 0)
(0.637216 0.0137705 0)
(0.32174 0.00420923 0)
(0.0577109 0.000209457 0)
(0.108362 0.000222591 0)
(0.659878 0.00463967 0)
(0.954752 0.00787813 0)
(1.12016 0.010436 0)
(1.15301 0.0141409 0)
(1.13576 0.0197534 0)
(1.11671 0.0262162 0)
(1.10093 0.0329487 0)
(1.0867 0.0394129 0)
(1.0735 0.0447838 0)
(1.06367 0.0477235 0)
(1.0596 0.0482609 0)
(1.06184 0.0475717 0)
(1.07093 0.0460309 0)
(1.08091 0.0445534 0)
(1.05054 0.0396409 0)
(0.890954 0.0287076 0)
(0.602463 0.0150034 0)
(0.297018 0.00457284 0)
(0.0516123 0.000225787 0)
(0.114092 0.00031112 0)
(0.674399 0.00673075 0)
(0.964697 0.0120228 0)
(1.12909 0.0161498 0)
(1.16293 0.0208245 0)
(1.14562 0.0273913 0)
(1.12551 0.0347363 0)
(1.10824 0.0422546 0)
(1.09209 0.0492583 0)
(1.07661 0.0547387 0)
(1.06457 0.05728 0)
(1.0588 0.0571412 0)
(1.06 0.0558356 0)
(1.06862 0.0536447 0)
(1.07559 0.0514297 0)
(1.03375 0.0448708 0)
(0.856972 0.0318518 0)
(0.564201 0.0164538 0)
(0.27006 0.00497165 0)
(0.0450169 0.000241134 0)
(0.121977 0.000438576 0)
(0.695284 0.00947174 0)
(0.980197 0.0172033 0)
(1.14153 0.023172 0)
(1.17482 0.0290862 0)
(1.15697 0.036895 0)
(1.13547 0.0453078 0)
(1.11628 0.0537222 0)
(1.09775 0.0612621 0)
(1.07952 0.0667336 0)
(1.0649 0.0686959 0)
(1.0572 0.0677166 0)
(1.05727 0.065651 0)
(1.06541 0.0627246 0)
(1.06844 0.0596643 0)
(1.01283 0.0510946 0)
(0.817873 0.0355261 0)
(0.521704 0.0180607 0)
(0.240603 0.00537498 0)
(0.0379327 0.000253283 0)
(0.132739 0.000620851 0)
(0.723798 0.0132343 0)
(1.00241 0.0238905 0)
(1.15826 0.0320506 0)
(1.18928 0.03953 0)
(1.17017 0.0489425 0)
(1.14675 0.0586083 0)
(1.12505 0.0679641 0)
(1.10352 0.0759194 0)
(1.08202 0.0811219 0)
(1.06449 0.082213 0)
(1.05468 0.0801928 0)
(1.05353 0.0772094 0)
(1.06099 0.0733961 0)
(1.05883 0.069287 0)
(0.986813 0.0583197 0)
(0.772648 0.0396322 0)
(0.47434 0.0197136 0)
(0.208568 0.00573589 0)
(0.0304325 0.000259251 0)
(0.14763 0.000911965 0)
(0.761941 0.0186428 0)
(1.033 0.0328735 0)
(1.18023 0.0437265 0)
(1.20707 0.053253 0)
(1.18551 0.0645786 0)
(1.15939 0.0755979 0)
(1.13438 0.0857636 0)
(1.10916 0.093798 0)
(1.08386 0.0982704 0)
(1.06309 0.0980586 0)
(1.05106 0.0947082 0)
(1.04864 0.0906527 0)
(1.05499 0.0859362 0)
(1.04607 0.0803858 0)
(0.95447 0.066426 0)
(0.720285 0.0439702 0)
(0.421743 0.0212432 0)
(0.17418 0.00599167 0)
(0.0226751 0.00025558 0)
(0.168842 0.00141493 0)
(0.812963 0.0268423 0)
(1.0745 0.0456984 0)
(1.20856 0.0600452 0)
(1.22882 0.0723487 0)
(1.20311 0.0854077 0)
(1.17313 0.0975805 0)
(1.14385 0.108048 0)
(1.11421 0.11549 0)
(1.08461 0.118519 0)
(1.06041 0.116417 0)
(1.04614 0.111364 0)
(1.04247 0.106041 0)
(1.04736 0.100404 0)
(1.02917 0.0928859 0)
(0.9143 0.0751251 0)
(0.659988 0.0482156 0)
(0.364124 0.0224276 0)
(0.138139 0.00607102 0)
(0.014929 0.000238446 0)
(0.199748 0.00252812 0)
(0.882588 0.0404918 0)
(1.13061 0.0661963 0)
(1.24367 0.084604 0)
(1.25423 0.0995302 0)
(1.22231 0.113778 0)
(1.18715 0.126156 0)
(1.15262 0.135795 0)
(1.11794 0.141528 0)
(1.08375 0.142109 0)
(1.05608 0.137364 0)
(1.03967 0.130178 0)
(1.03489 0.123345 0)
(1.03779 0.116576 0)
(1.00678 0.106571 0)
(0.864548 0.0838411 0)
(0.591688 0.0518701 0)
(0.302982 0.0230742 0)
(0.10204 0.0059411 0)
(0.00766902 0.000204181 0)
(0.241891 0.00874812 8.01554e-20)
(0.974878 0.0676314 7.17989e-20)
(1.19904 0.10066 -2.52873e-20)
(1.28245 0.12108 0)
(1.28051 0.1384 -6.6158e-34)
(1.24099 0.15201 9.70973e-21)
(1.19988 0.162827 -1.76637e-20)
(1.15959 0.170231 0)
(1.11952 0.173177 3.6636e-34)
(1.08045 0.1705 -2.21684e-20)
(1.04911 0.16261 0)
(1.03041 0.153076 -2.64324e-20)
(1.02461 0.144836 -7.80103e-20)
(1.02494 0.137729 -3.68333e-20)
(0.975261 0.124001 -1.10791e-20)
(0.799561 0.0942118 -6.5829e-21)
(0.510054 0.055433 0)
(0.236583 0.0235732 4.59025e-21)
(0.0659582 0.00592844 5.39797e-21)
(0.000895121 0.000182936 9.58265e-20)
(0.271282 0.0240496 5.63039e-20)
(1.05116 0.110231 1.052e-21)
(1.25551 0.149759 6.61088e-21)
(1.31706 0.170298 0)
(1.30351 0.187541 -3.31889e-20)
(1.25694 0.19895 -3.79905e-20)
(1.20992 0.207432 -1.77462e-20)
(1.1638 0.212319 -6.37599e-20)
(1.11809 0.212438 0)
(1.0737 0.206569 9.45366e-20)
(1.03809 0.195613 9.40048e-20)
(1.01673 0.183728 2.79749e-20)
(1.00884 0.173583 1.02225e-19)
(1.00145 0.163913 1.43825e-19)
(0.926277 0.144674 0)
(0.712612 0.105626 2.02159e-19)
(0.414673 0.0590361 2.89385e-19)
(0.167737 0.0235117 3.20381e-19)
(0.0302919 0.00474666 -3.64563e-19)
(-0.00590821 -0.000467363 -6.75977e-21)
(0.272511 0.04005 0)
(1.09941 0.165558 9.38854e-21)
(1.29349 0.210102 0)
(1.34393 0.230146 -4.12574e-20)
(1.32151 0.244375 0)
(1.26901 0.251891 -7.3902e-20)
(1.21644 0.256642 3.60894e-20)
(1.16477 0.257929 -1.27664e-19)
(1.11365 0.254384 -3.15147e-21)
(1.06414 0.244705 4.88042e-20)
(1.02448 0.230289 2.0701e-19)
(1.00048 0.215805 -4.80114e-22)
(0.990222 0.203601 -7.43372e-20)
(0.975299 0.191141 -1.35615e-19)
(0.882114 0.165766 1.60173e-19)
(0.651285 0.116978 -2.83204e-19)
(0.360478 0.0626469 -3.73293e-20)
(0.133699 0.0233849 0)
(0.013623 0.00300582 -2.02347e-23)
(-0.00927614 -0.0013098 0)
(0.266133 0.0538002 1.03716e-19)
(1.12541 0.224107 -5.39618e-20)
(1.31682 0.274968 -4.54465e-20)
(1.36166 0.295212 1.90219e-20)
(1.3331 0.305544 -3.23446e-20)
(1.27615 0.308537 1.5445e-19)
(1.21899 0.30888 7.51182e-20)
(1.16251 0.305925 0)
(1.10656 0.298167 -2.43115e-19)
(1.05235 0.284232 0)
(1.00883 0.266058 -1.08539e-19)
(0.982245 0.248776 -1.34533e-19)
(0.969577 0.234341 -8.10313e-20)
(0.948636 0.218695 -9.85764e-20)
(0.845717 0.187244 0)
(0.612086 0.130122 0)
(0.33323 0.0690324 -2.42495e-19)
(0.118802 0.0247084 4.78051e-20)
(0.00572415 0.00149341 -2.79156e-20)
(-0.011398 -0.00225183 -3.21524e-20)
(0.258503 0.0658915 -2.83242e-20)
(1.13673 0.282507 0)
(1.32954 0.340731 8.58056e-20)
(1.37122 0.361672 5.1889e-20)
(1.33837 0.36819 7.59906e-20)
(1.27818 0.366661 0)
(1.21743 0.362485 7.27678e-20)
(1.15697 0.355107 1.40831e-19)
(1.09684 0.342927 1.24101e-19)
(1.03838 0.32453 2.30414e-19)
(0.991267 0.302394 0)
(0.962149 0.282153 -2.90362e-19)
(0.94713 0.265332 -1.75217e-19)
(0.921726 0.246611 -1.03623e-19)
(0.815202 0.209853 6.3396e-19)
(0.587318 0.145392 7.50739e-20)
(0.321595 0.0780462 3.51108e-19)
(0.116488 0.0278099 -1.66297e-18)
(0.00450743 0.000803246 9.80801e-19)
(-0.0122836 -0.00306082 -1.1635e-18)
(0.25119 0.0768093 2.90468e-21)
(1.13872 0.338925 4.7081e-21)
(1.33458 0.405507 -7.50193e-21)
(1.37424 0.427632 -4.68895e-20)
(1.33827 0.430572 -6.08325e-20)
(1.27565 0.424705 3.59054e-21)
(1.21206 0.416172 -7.89743e-20)
(1.14833 0.404461 1.45209e-19)
(1.08461 0.387893 -2.67285e-19)
(1.02238 0.365017 0)
(0.971936 0.338879 -1.31314e-19)
(0.940354 0.315636 -3.21586e-21)
(0.923017 0.296421 -1.92044e-19)
(0.894478 0.274818 0)
(0.788607 0.233306 -1.37504e-19)
(0.570814 0.162712 -3.25249e-19)
(0.319175 0.0893813 8.6242e-19)
(0.121037 0.0328315 -8.50498e-19)
(0.00829424 0.00152013 1.2048e-18)
(-0.0118071 -0.00353046 -1.23293e-18)
(0.245024 0.0868876 -8.14039e-22)
(1.13491 0.392689 3.56634e-21)
(1.33408 0.4683 -1.13846e-20)
(1.37212 0.491889 1.60795e-20)
(1.33386 0.491649 -3.01372e-20)
(1.2694 0.481728 0)
(1.20352 0.469096 -7.2179e-20)
(1.13705 0.453258 -1.51764e-19)
(1.07023 0.432469 -1.38614e-19)
(1.00462 0.405232 0)
(0.951101 0.375166 -1.36118e-19)
(0.917146 0.348943 -1.69398e-19)
(0.897618 0.327376 2.08638e-19)
(0.866778 0.302992 -1.26803e-19)
(0.76387 0.257143 -6.0281e-19)
(0.557643 0.181485 3.56517e-19)
(0.32015 0.102219 1.05267e-19)
(0.128718 0.039585 0)
(0.0149806 0.00370643 -1.16801e-18)
(-0.010341 -0.00359939 -4.22279e-20)
(0.240111 0.0964518 6.61905e-21)
(1.1276 0.44361 -9.22122e-21)
(1.32954 0.528646 3.46942e-21)
(1.36612 0.553742 6.16438e-20)
(1.3261 0.550753 -1.05982e-19)
(1.26023 0.537147 1.38935e-19)
(1.19249 0.52072 1.55711e-19)
(1.12369 0.501021 -2.42458e-19)
(1.05413 0.476249 8.65831e-20)
(0.985441 0.444834 -5.67255e-19)
(0.929079 0.410949 -1.54509e-19)
(0.892887 0.381797 0)
(0.871336 0.357965 2.26693e-19)
(0.838785 0.330941 2.72106e-19)
(0.739362 0.281151 3.25481e-19)
(0.544756 0.201043 -3.88671e-19)
(0.321188 0.115932 -1.14763e-19)
(0.136604 0.047733 1.34702e-19)
(0.0226499 0.00706602 0)
(-0.00833584 -0.003307 -9.19041e-20)
(0.236358 0.105653 -1.14221e-19)
(1.11844 0.491793 6.18936e-20)
(1.32223 0.586408 -4.33848e-22)
(1.35725 0.612859 3.35146e-20)
(1.31578 0.607489 -4.44891e-20)
(1.24883 0.590564 -8.12503e-21)
(1.17956 0.570697 -1.70783e-19)
(1.10877 0.54745 -8.78901e-20)
(1.03675 0.518959 -2.41247e-19)
(0.965241 0.48359 6.28894e-22)
(0.906213 0.446009 -4.83516e-19)
(0.867939 0.414017 4.10377e-19)
(0.844542 0.387966 -2.49725e-19)
(0.810526 0.35836 3.00697e-19)
(0.714227 0.304855 0)
(0.530606 0.220584 -2.11797e-19)
(0.31972 0.129937 2.78667e-22)
(0.142846 0.0565486 -5.89373e-19)
(0.0298299 0.0111032 -8.60804e-20)
(-0.00617625 -0.00274888 0)
(0.233651 0.114635 0)
(1.10835 0.537466 7.28903e-20)
(1.31301 0.641801 2.17341e-20)
(1.34633 0.669106 -2.64551e-20)
(1.3036 0.66165 -6.07327e-20)
(1.2358 0.641758 0)
(1.16528 0.618801 -7.55977e-20)
(1.09274 0.592334 -2.10307e-21)
(1.0185 0.56043 5.17309e-19)
(0.944341 0.521349 -7.77309e-20)
(0.88277 0.480212 -3.49449e-19)
(0.842559 0.445481 2.13095e-19)
(0.817465 0.417202 -4.44349e-21)
(0.782076 0.384935 3.19933e-19)
(0.688095 0.327731 1.97362e-19)
(0.514633 0.239213 -4.58247e-19)
(0.315068 0.143517 5.4123e-19)
(0.146005 0.0651384 1.6008e-19)
(0.0352161 0.0151731 6.56573e-19)
(-0.00424374 -0.00207781 -1.72697e-18)
(0.23191 0.123559 -4.11055e-20)
(1.09802 0.580817 5.4484e-20)
(1.30258 0.694234 -3.5697e-20)
(1.33394 0.72245 1.2232e-20)
(1.2901 0.713134 0)
(1.22165 0.6906 -5.94011e-20)
(1.15009 0.664897 2.56278e-19)
(1.07601 0.635545 1.91933e-19)
(0.999715 0.600543 0)
(0.923017 0.558014 -1.12267e-18)
(0.858987 0.513482 9.46312e-19)
(0.816924 0.476035 0)
(0.790251 0.445454 2.92373e-19)
(0.753556 0.410356 -4.44636e-21)
(0.661382 0.349122 -6.31919e-19)
(0.496477 0.256118 2.46561e-19)
(0.307275 0.155701 0)
(0.145503 0.0726428 8.63065e-19)
(0.0381032 0.0186029 0)
(-0.00282426 -0.00149611 -8.18132e-19)
(0.230982 0.132476 5.02452e-20)
(1.08789 0.622028 7.35907e-20)
(1.29133 0.743816 -3.46013e-20)
(1.32057 0.772897 0)
(1.27576 0.761917 -4.51331e-20)
(1.2068 0.737047 0)
(1.13434 0.708914 -2.49452e-19)
(1.05889 0.677007 -8.76131e-20)
(0.980682 0.639236 9.0641e-20)
(0.901529 0.593544 -5.5539e-19)
(0.835052 0.545777 9.75023e-20)
(0.791166 0.505558 0)
(0.763017 0.472527 -6.24411e-19)
(0.724961 0.434362 4.35786e-21)
(0.633897 0.368612 0)
(0.476267 0.270839 2.63383e-21)
(0.296333 0.165727 7.92614e-19)
(0.141775 0.078267 -7.45779e-19)
(0.0384267 0.0208733 2.18916e-19)
(-0.00201755 -0.00112825 0)
(0.230549 0.141285 0)
(1.07827 0.661163 9.05531e-20)
(1.27953 0.790707 5.51548e-20)
(1.30663 0.820495 -4.96214e-21)
(1.26095 0.808026 -9.85917e-21)
(1.19158 0.781097 -1.33325e-19)
(1.11837 0.750835 9.44634e-20)
(1.04167 0.716686 -1.04736e-19)
(0.961664 0.67647 4.06207e-19)
(0.880084 0.627929 -8.8783e-19)
(0.811108 0.577074 -7.89937e-21)
(0.765368 0.534013 -2.72539e-19)
(0.73577 0.498349 1.01372e-18)
(0.696276 0.456733 -5.15072e-21)
(0.605859 0.385962 -4.90789e-19)
(0.454197 0.282965 -8.72575e-19)
(0.282629 0.173335 0)
(0.135221 0.0817921 0)
(0.0367941 0.0218473 2.36385e-19)
(-0.00173258 -0.00103107 -1.36718e-19)
(0.230757 0.150129 7.26263e-20)
(1.06918 0.698117 -2.08076e-19)
(1.26746 0.834995 -5.92547e-20)
(1.29244 0.865335 0)
(1.24593 0.851518 -3.01181e-21)
(1.17625 0.822778 -1.15772e-19)
(1.10242 0.790665 2.23935e-19)
(1.0246 0.754576 4.0817e-19)
(0.942873 0.712241 5.26596e-19)
(0.858878 0.661179 -7.24323e-19)
(0.787293 0.607399 -8.13471e-19)
(0.739578 0.561457 7.28788e-19)
(0.708484 0.522925 0)
(0.667394 0.477257 -2.23212e-19)
(0.577142 0.400839 -5.30647e-19)
(0.430234 0.292206 -6.27084e-19)
(0.266601 0.178067 -7.39157e-19)
(0.12621 0.0830398 2.17672e-19)
(0.033566 0.0216421 -1.27089e-19)
(-0.00181371 -0.00114932 5.57394e-22)
(0.231116 0.158881 0)
(1.06079 0.73337 0)
(1.25537 0.87678 4.91953e-21)
(1.27821 0.907534 0)
(1.23096 0.892484 5.83026e-21)
(1.16105 0.86215 7.31947e-20)
(1.0867 0.828433 0)
(1.00785 0.790687 4.76858e-20)
(0.924496 0.746551 8.76752e-19)
(0.838086 0.693317 -1.66528e-18)
(0.76373 0.636827 0)
(0.713833 0.588008 -4.69094e-19)
(0.681051 0.54625 -6.07116e-21)
(0.638194 0.495766 -4.7319e-21)
(0.54784 0.412954 5.6739e-19)
(0.405064 0.298357 -2.87462e-22)
(0.248737 0.179872 -1.59212e-18)
(0.115333 0.0820555 4.6819e-19)
(0.0290979 0.0203112 1.37719e-19)
(-0.00213214 -0.00140644 0)
(0.231573 0.167498 -2.94472e-19)
(1.05282 0.766972 -1.43604e-19)
(1.24334 0.916142 -1.83011e-19)
(1.2641 0.947209 1.61724e-19)
(1.2162 0.930998 -2.00726e-20)
(1.14613 0.899276 0)
(1.07135 0.864185 1.32189e-19)
(0.991589 0.825044 -1.06883e-19)
(0.906686 0.77942 7.74819e-21)
(0.817867 0.724374 1.22941e-19)
(0.74055 0.66546 1.0523e-18)
(0.688163 0.613814 -1.64365e-19)
(0.653367 0.568354 -6.24326e-19)
(0.60852 0.512113 -2.59912e-19)
(0.51793 0.422034 3.08006e-19)
(0.379188 0.301224 8.13752e-23)
(0.22959 0.178662 4.28551e-19)
(0.103395 0.0789691 -1.00673e-18)
(0.0241406 0.0181101 1.18457e-18)
(-0.00256778 -0.00177302 1.70136e-19)
(0.231917 0.175861 1.12697e-19)
(1.0453 0.799016 -8.14592e-20)
(1.23151 0.953184 1.22052e-20)
(1.25024 0.98449 1.09432e-19)
(1.20178 0.967172 1.76233e-20)
(1.13162 0.93423 -1.22127e-19)
(1.05651 0.897973 3.63279e-20)
(0.975927 0.85767 -4.43777e-19)
(0.889571 0.810849 -9.62403e-19)
(0.798351 0.75436 -9.90216e-19)
(0.717895 0.693399 0)
(0.662614 0.639019 -7.22461e-19)
(0.62533 0.589334 8.99864e-19)
(0.578117 0.52622 0)
(0.487341 0.427746 -6.59324e-19)
(0.353101 0.300387 3.91885e-19)
(0.210415 0.174269 -4.60423e-19)
(0.0916693 0.0741219 -5.41261e-19)
(0.0193735 0.0154259 -9.53371e-19)
(-0.00300881 -0.00217258 -7.32273e-19)
(0.232607 0.18409 -1.27696e-19)
(1.03805 0.829489 8.70515e-20)
(1.21992 0.987974 1.98214e-19)
(1.23672 1.01943 1.6333e-19)
(1.1878 1.0011 -2.94333e-20)
(1.11762 0.967101 -5.85919e-20)
(1.04225 0.929849 1.22668e-19)
(0.960955 0.888607 -4.53117e-19)
(0.873236 0.840863 -5.68944e-19)
(0.779661 0.783297 1.03448e-18)
(0.695894 0.720729 2.30803e-18)
(0.63726 0.663759 0)
(0.596862 0.609389 0)
(0.546641 0.538151 -2.98888e-19)
(0.455724 0.429709 0)
(0.326964 0.295015 8.41715e-19)
(0.192486 0.165911 9.89096e-19)
(0.0821235 0.0674944 0)
(0.0160192 0.0126469 0)
(-0.00334253 -0.00252301 7.85899e-19)
(0.232959 0.191884 1.46157e-19)
(1.03111 0.85838 1.2049e-19)
(1.20865 1.02064 1.44243e-19)
(1.22362 1.05217 -1.61511e-19)
(1.17433 1.03289 -4.56002e-20)
(1.10418 0.997965 4.94528e-20)
(1.02865 0.959874 -1.66525e-19)
(0.946736 0.917885 -8.33048e-22)
(0.857761 0.869467 -1.00347e-20)
(0.761893 0.811189 -9.48172e-21)
(0.674694 0.747499 1.18758e-18)
(0.612217 0.688159 0)
(0.567949 0.628815 9.10512e-19)
(0.513707 0.548141 6.37357e-19)
(0.42235 0.427781 1.53624e-18)
(0.300256 0.28391 4.53038e-19)
(0.177117 0.15108 -5.31835e-19)
(0.0788268 0.0563 -3.11348e-19)
(0.0197079 0.00861996 0)
(-0.00172831 -0.00216975 8.44061e-19)
(0.23361 0.19969 -3.30011e-19)
(1.02444 0.885781 0)
(1.19768 1.05122 1.71759e-19)
(1.21095 1.08277 -1.38463e-19)
(1.16142 1.06264 7.05652e-20)
(1.09135 1.02691 -3.36263e-20)
(1.01575 0.988106 3.13176e-19)
(0.933308 0.945539 -3.75555e-20)
(0.843189 0.896674 0)
(0.745124 0.838012 -1.13664e-18)
(0.654433 0.773719 -2.57734e-18)
(0.587646 0.712352 1.06204e-19)
(0.538674 0.64795 1.25564e-18)
(0.479052 0.556629 0)
(0.386132 0.422489 1.03609e-18)
(0.270725 0.266175 0)
(0.162532 0.124306 0)
(0.0864463 0.0267144 -3.36364e-19)
(0.051682 -0.00724713 0)
(0.0273737 0.0107488 2.25908e-19)
(0.2339 0.206898 -3.7039e-19)
(1.018 0.912033 0)
(1.18702 1.07993 2.87066e-19)
(1.19868 1.11149 0)
(1.14903 1.09062 -4.55601e-20)
(1.07907 1.05422 0)
(1.00348 1.01486 1.37367e-20)
(0.920575 0.971906 6.1567e-20)
(0.829399 0.922845 7.08953e-20)
(0.729189 0.864155 -1.24207e-18)
(0.634924 0.799816 7.6924e-20)
(0.563307 0.736981 8.54698e-19)
(0.508633 0.667607 1.22315e-18)
(0.441801 0.564244 1.65258e-19)
(0.345225 0.415439 8.11552e-19)
(0.233582 0.242772 0)
(0.136899 0.0816692 1.11987e-18)
(0.0747045 -0.0186001 -6.48787e-19)
(0.0413217 0.0461099 7.48054e-19)
(-0.0595345 0.435547 -8.87287e-19)
(0.234163 0.21391 3.07763e-19)
(1.01153 0.936907 4.82474e-19)
(1.17657 1.10708 0)
(1.18667 1.13877 9.74304e-21)
(1.13697 1.1174 1.39741e-19)
(1.06707 1.08058 -1.60825e-20)
(0.991528 1.04092 1.02294e-19)
(0.908125 0.997924 0)
(0.815857 0.949068 4.65787e-19)
(0.713416 0.890923 -6.43949e-20)
(0.615255 0.827269 0)
(0.537956 0.763771 0)
(0.475893 0.689297 1.09663e-18)
(0.399633 0.571542 -5.11588e-19)
(0.296521 0.40875 -8.22907e-19)
(0.184101 0.217285 0)
(0.0794189 0.088276 5.59077e-19)
(0.0061643 0.441211 -6.4024e-19)
(0.0316505 1.89466 -3.51353e-19)
(0.0624488 2.81082 -4.63874e-19)
(0.234199 0.220162 -2.31018e-19)
(1.00512 0.96057 -6.1943e-19)
(1.16635 1.13267 1.71096e-19)
(1.1749 1.16448 1.39035e-19)
(1.12525 1.14276 0)
(1.05543 1.10571 -3.30115e-20)
(0.980097 1.06599 1.30221e-19)
(0.896148 1.02316 -2.92752e-20)
(0.802833 0.974829 6.96394e-20)
(0.698185 0.917709 1.18089e-18)
(0.596021 0.855408 1.29847e-18)
(0.512527 0.792399 9.57301e-19)
(0.441257 0.712966 1.10337e-18)
(0.354131 0.577484 -1.20225e-18)
(0.245928 0.40639 -1.24282e-18)
(0.123133 0.25924 0)
(0.0441469 0.832515 0)
(0.0986483 2.55401 3.07075e-19)
(0.101443 3.20237 0)
(0.104042 3.38825 6.74757e-19)
(0.237268 0.225959 0)
(0.999368 0.983291 0)
(1.1561 1.15652 0)
(1.16317 1.18847 4.25663e-20)
(1.11354 1.16645 1.29229e-19)
(1.04394 1.12947 -4.99299e-20)
(0.969085 1.08996 7.99088e-20)
(0.88459 1.0475 -2.82374e-20)
(0.790279 0.999975 5.75313e-19)
(0.683509 0.944362 -1.80127e-20)
(0.577347 0.884104 2.56126e-18)
(0.487337 0.822764 -1.10618e-19)
(0.404807 0.739391 1.33379e-19)
(0.307802 0.580109 1.74161e-19)
(0.184914 0.419611 -7.06808e-21)
(0.100165 0.964619 3.56597e-21)
(0.138992 2.72558 -1.6267e-18)
(0.1463 3.29366 -6.0209e-19)
(0.135509 3.42588 3.02324e-19)
(0.123218 3.44778 -3.31443e-19)
(0.157038 0.177973 1.32153e-19)
(0.989097 1.00798 0)
(1.14552 1.17883 -3.37314e-19)
(1.1519 1.21116 -3.77392e-19)
(1.10258 1.18916 3.1618e-19)
(1.03343 1.15247 6.25925e-20)
(0.958399 1.11285 -7.68833e-20)
(0.873536 1.07106 2.98506e-19)
(0.778335 1.02465 -4.65913e-19)
(0.669656 0.971041 0)
(0.559611 0.913552 1.25178e-18)
(0.462898 0.854641 -7.79397e-19)
(0.367747 0.771179 0)
(0.254104 0.581569 1.56749e-19)
(0.144263 0.751091 3.82246e-19)
(0.154466 2.50051 -4.46204e-19)
(0.209835 3.32327 4.92499e-19)
(0.190569 3.43825 2.65512e-19)
(0.158231 3.45976 2.92105e-19)
(0.136908 3.47 4.66759e-19)
(0.277418 0.264357 -2.33392e-19)
(0.973076 1.0178 0)
(1.12753 1.20448 3.73638e-19)
(1.13735 1.24179 4.16411e-19)
(1.08544 1.22235 -3.54033e-19)
(1.01558 1.18607 -1.08107e-19)
(0.939543 1.14805 4.71402e-20)
(0.854185 1.10751 2.36163e-20)
(0.757696 1.06333 4.38999e-19)
(0.646329 1.01374 1.00754e-18)
(0.531138 0.962679 7.02781e-20)
(0.424108 0.909372 6.91331e-19)
(0.300222 0.810838 1.23742e-19)
(0.213546 0.92885 -1.58225e-19)
(0.227969 2.3523 -3.54143e-19)
(0.287574 3.32621 3.30036e-19)
(0.27117 3.46672 -3.70345e-19)
(0.235759 3.48869 -2.14628e-19)
(0.199252 3.51607 -1.70858e-19)
(0.148634 3.50987 -1.64913e-20)
(0.266594 0.261943 0)
(0.970989 1.04086 1.09352e-19)
(1.11928 1.22809 -7.78921e-20)
(1.12689 1.26557 -5.03993e-20)
(1.07471 1.24559 -2.48834e-19)
(1.00481 1.20952 1.15249e-19)
(0.928478 1.17168 -1.44647e-20)
(0.842926 1.13197 2.07672e-20)
(0.745915 1.08927 -4.5408e-19)
(0.63326 1.04254 -2.72402e-20)
(0.515275 0.996364 -2.25842e-18)
(0.403139 0.947211 9.87803e-20)
(0.283179 0.876876 -1.15999e-19)
(0.25387 1.4874 -1.46652e-19)
(0.327416 3.10364 3.48823e-20)
(0.346972 3.46502 9.91093e-22)
(0.30626 3.52019 5.30659e-19)
(0.269355 3.54683 2.54009e-19)
(0.22096 3.56993 -5.34791e-20)
(0.163636 3.56578 -7.5209e-20)
(0.250947 0.26005 2.76359e-19)
(0.967438 1.0665 7.52046e-19)
(1.11061 1.25375 -2.24401e-19)
(1.11579 1.29068 -1.90975e-19)
(1.06338 1.2702 0)
(0.993612 1.23417 2.22538e-19)
(0.917275 1.19659 8.50943e-21)
(0.831798 1.15766 1.76917e-20)
(0.734583 1.11654 -5.08624e-20)
(0.621173 1.07295 -9.01742e-19)
(0.501259 1.03209 -1.03727e-18)
(0.385613 0.986638 -8.0101e-19)
(0.28621 1.00661 -8.83388e-19)
(0.323207 2.21027 9.062e-19)
(0.413598 3.37669 7.3666e-19)
(0.390981 3.5224 0)
(0.344838 3.56679 0)
(0.306745 3.60669 -4.17403e-20)
(0.256815 3.66504 0)
(0.175895 3.64142 -3.29287e-20)
(0.240523 0.261982 -4.17279e-19)
(0.961783 1.09306 -6.43323e-19)
(1.10051 1.28063 0)
(1.10334 1.31652 1.15715e-20)
(1.05078 1.29543 -2.76192e-19)
(0.981318 1.25934 3.69842e-19)
(0.905298 1.22204 2.28259e-20)
(0.820107 1.18381 7.95512e-21)
(0.722932 1.14422 -3.11659e-19)