0.490941 	0.951024 	0.00598251 	3.00007 	-2.93497e-20
0.561075 	0.951024 	0.00598251 	3.00007 	-2.93497e-20
0.63121 	0.951024 	0.00598251 	3.00007 	-2.93497e-20
0.701344 	0.951024 	0.00598251 	3.00007 	-2.93497e-20
0.771478 	0.951024 	0.00598251 	3.00007 	-2.93497e-20
0.841613 	0.951024 	0.00598251 	3.00007 	-2.93497e-20
0.911747 	0.951024 	0.00598251 	3.00007 	-2.93497e-20
0.981881 	0.951024 	0.00598251 	3.00007 	-2.93497e-20
1.05202 	0.951024 	0.00598251 	3.00007 	-2.93497e-20
1.12215 	0.951024 	0.00598251 	3.00007 	-2.93497e-20
1.19228 	0.951024 	0.00598251 	3.00007 	-2.93497e-20
1.26242 	0.951024 	0.00598251 	3.00007 	-2.93497e-20
1.33255 	0.91637 	0.0132064 	3.01161 	-2.88357e-20
1.40269 	0.91637 	0.0132064 	3.01161 	-2.88357e-20
1.47282 	0.91637 	0.0132064 	3.01161 	-2.88357e-20
1.54296 	0.91637 	0.0132064 	3.01161 	-2.88357e-20
1.61309 	0.91637 	0.0132064 	3.01161 	-2.88357e-20
1.68323 	0.91637 	0.0132064 	3.01161 	-2.88357e-20
1.75336 	0.91637 	0.0132064 	3.01161 	-2.88357e-20
1.82349 	0.91637 	0.0132064 	3.01161 	-2.88357e-20
1.89363 	0.91637 	0.0132064 	3.01161 	-2.88357e-20
1.96376 	0.91637 	0.0132064 	3.01161 	-2.88357e-20
2.0339 	0.91637 	0.0132064 	3.01161 	-2.88357e-20
2.10403 	0.91637 	0.0132064 	3.01161 	-2.88357e-20
2.17417 	0.860394 	0.0171203 	3.03009 	6.10143e-20
2.2443 	0.860394 	0.0171203 	3.03009 	6.10143e-20
2.31443 	0.860394 	0.0171203 	3.03009 	6.10143e-20
2.38457 	0.860394 	0.0171203 	3.03009 	6.10143e-20
2.4547 	0.860394 	0.0171203 	3.03009 	6.10143e-20
2.52484 	0.860394 	0.0171203 	3.03009 	6.10143e-20
2.59497 	0.860394 	0.0171203 	3.03009 	6.10143e-20
2.66511 	0.860394 	0.0171203 	3.03009 	6.10143e-20
2.73524 	0.860394 	0.0171203 	3.03009 	6.10143e-20
2.80538 	0.860394 	0.0171203 	3.03009 	6.10143e-20
2.87551 	0.860394 	0.0171203 	3.03009 	6.10143e-20
2.94564 	0.860394 	0.0171203 	3.03009 	6.10143e-20
3.01578 	0.773878 	0.00557681 	3.05676 	-6.52618e-21
3.08591 	0.773878 	0.00557681 	3.05676 	-6.52618e-21
3.15605 	0.773878 	0.00557681 	3.05676 	-6.52618e-21
3.22618 	0.773878 	0.00557681 	3.05676 	-6.52618e-21
3.29632 	0.773878 	0.00557681 	3.05676 	-6.52618e-21
3.36645 	0.773878 	0.00557681 	3.05676 	-6.52618e-21
3.43659 	0.773878 	0.00557681 	3.05676 	-6.52618e-21
3.50672 	0.773878 	0.00557681 	3.05676 	-6.52618e-21
3.57685 	0.773878 	0.00557681 	3.05676 	-6.52618e-21
3.64699 	0.773878 	0.00557681 	3.05676 	-6.52618e-21
3.71712 	0.773878 	0.00557681 	3.05676 	-6.52618e-21
3.78726 	0.764422 	-0.00672781 	3.05819 	1.28462e-20
3.85739 	0.659813 	-0.00628325 	3.09989 	-8.39568e-20
3.92753 	0.659813 	-0.00628325 	3.09989 	-8.39568e-20
3.99766 	0.659813 	-0.00628325 	3.09989 	-8.39568e-20
4.06779 	0.659813 	-0.00628325 	3.09989 	-8.39568e-20
4.13793 	0.659813 	-0.00628325 	3.09989 	-8.39568e-20
4.20806 	0.659813 	-0.00628325 	3.09989 	-8.39568e-20
4.2782 	0.659813 	-0.00628325 	3.09989 	-8.39568e-20
4.34833 	0.659813 	-0.00628325 	3.09989 	-8.39568e-20
4.41847 	0.659813 	-0.00628325 	3.09989 	-8.39568e-20
4.4886 	0.659813 	-0.00628325 	3.09989 	-8.39568e-20
4.55874 	0.659813 	-0.00628325 	3.09989 	-8.39568e-20
4.62887 	0.659813 	-0.00628325 	3.09989 	-8.39568e-20
4.699 	0.659813 	-0.00628325 	3.09989 	-8.39568e-20
4.76914 	0.596404 	-0.00438219 	3.11012 	1.50558e-19
4.83927 	0.596404 	-0.00438219 	3.11012 	1.50558e-19
4.90941 	0.596404 	-0.00438219 	3.11012 	1.50558e-19
4.97954 	0.596404 	-0.00438219 	3.11012 	1.50558e-19
5.04968 	0.596404 	-0.00438219 	3.11012 	1.50558e-19
5.11981 	0.596404 	-0.00438219 	3.11012 	1.50558e-19
5.18994 	0.596404 	-0.00438219 	3.11012 	1.50558e-19
5.26008 	0.596404 	-0.00438219 	3.11012 	1.50558e-19
5.33021 	0.596404 	-0.00438219 	3.11012 	1.50558e-19
5.40035 	0.596404 	-0.00438219 	3.11012 	1.50558e-19
5.47048 	0.596404 	-0.00438219 	3.11012 	1.50558e-19
5.54062 	0.596404 	-0.00438219 	3.11012 	1.50558e-19
5.61075 	0.563001 	-0.0016812 	3.10986 	-7.0057e-20
5.68089 	0.563001 	-0.0016812 	3.10986 	-7.0057e-20
5.75102 	0.563001 	-0.0016812 	3.10986 	-7.0057e-20
5.82115 	0.563001 	-0.0016812 	3.10986 	-7.0057e-20
5.89129 	0.563001 	-0.0016812 	3.10986 	-7.0057e-20
5.96142 	0.563001 	-0.0016812 	3.10986 	-7.0057e-20
6.03156 	0.563001 	-0.0016812 	3.10986 	-7.0057e-20
6.10169 	0.563001 	-0.0016812 	3.10986 	-7.0057e-20
6.17183 	0.563001 	-0.0016812 	3.10986 	-7.0057e-20
6.24196 	0.563001 	-0.0016812 	3.10986 	-7.0057e-20
6.3121 	0.563001 	-0.0016812 	3.10986 	-7.0057e-20
6.38223 	0.563001 	-0.0016812 	3.10986 	-7.0057e-20
6.45236 	0.514698 	0.00524383 	3.11331 	0
6.5225 	0.514698 	0.00524383 	3.11331 	0
6.59263 	0.514698 	0.00524383 	3.11331 	0
6.66277 	0.514698 	0.00524383 	3.11331 	0
6.7329 	0.514698 	0.00524383 	3.11331 	0
6.80304 	0.514698 	0.00524383 	3.11331 	0
6.87317 	0.514698 	0.00524383 	3.11331 	0
6.9433 	0.514698 	0.00524383 	3.11331 	0
7.01344 	0.514698 	0.00524383 	3.11331 	0
7.08357 	0.514698 	0.00524383 	3.11331 	0
7.15371 	0.514698 	0.00524383 	3.11331 	0
7.22384 	0.514698 	0.00524383 	3.11331 	0
7.29398 	0.452286 	0.00859521 	3.12504 	0
7.36411 	0.452286 	0.00859521 	3.12504 	0
7.43425 	0.452286 	0.00859521 	3.12504 	0
7.50438 	0.452286 	0.00859521 	3.12504 	0
7.57451 	0.452286 	0.00859521 	3.12504 	0
7.64465 	0.452286 	0.00859521 	3.12504 	0
7.71478 	0.452286 	0.00859521 	3.12504 	0
7.78492 	0.452286 	0.00859521 	3.12504 	0
7.85505 	0.452286 	0.00859521 	3.12504 	0
7.92519 	0.452286 	0.00859521 	3.12504 	0
7.99532 	0.452286 	0.00859521 	3.12504 	0
8.06545 	0.452286 	0.00859521 	3.12504 	0
8.13559 	0.452286 	0.00859521 	3.12504 	0
8.20572 	0.393055 	0.010299 	3.12822 	2.74838e-22
8.27586 	0.393055 	0.010299 	3.12822 	2.74838e-22
8.34599 	0.393055 	0.010299 	3.12822 	2.74838e-22
8.41613 	0.393055 	0.010299 	3.12822 	2.74838e-22
8.48626 	0.393055 	0.010299 	3.12822 	2.74838e-22
8.5564 	0.393055 	0.010299 	3.12822 	2.74838e-22
8.62653 	0.393055 	0.010299 	3.12822 	2.74838e-22
8.69666 	0.393055 	0.010299 	3.12822 	2.74838e-22
8.7668 	0.393055 	0.010299 	3.12822 	2.74838e-22
8.83693 	0.393055 	0.010299 	3.12822 	2.74838e-22
8.90707 	0.393055 	0.010299 	3.12822 	2.74838e-22
8.9772 	0.393055 	0.010299 	3.12822 	2.74838e-22
9.04734 	0.344571 	0.00868497 	3.1293 	7.52265e-20
9.11747 	0.344571 	0.00868497 	3.1293 	7.52265e-20
9.18761 	0.344571 	0.00868497 	3.1293 	7.52265e-20
9.25774 	0.344571 	0.00868497 	3.1293 	7.52265e-20
9.32787 	0.344571 	0.00868497 	3.1293 	7.52265e-20
9.39801 	0.344571 	0.00868497 	3.1293 	7.52265e-20
9.46814 	0.344571 	0.00868497 	3.1293 	7.52265e-20
9.53828 	0.344571 	0.00868497 	3.1293 	7.52265e-20
9.60841 	0.344571 	0.00868497 	3.1293 	7.52265e-20
9.67855 	0.344571 	0.00868497 	3.1293 	7.52265e-20
9.74868 	0.344571 	0.00868497 	3.1293 	7.52265e-20
9.81881 	0.344571 	0.00868497 	3.1293 	7.52265e-20
9.88895 	0.344571 	0.00868497 	3.1293 	7.52265e-20
9.95908 	0.295271 	0.00482581 	3.12653 	-9.37688e-21
10.0292 	0.295271 	0.00482581 	3.12653 	-9.37688e-21
10.0994 	0.295271 	0.00482581 	3.12653 	-9.37688e-21
10.1695 	0.295271 	0.00482581 	3.12653 	-9.37688e-21
10.2396 	0.295271 	0.00482581 	3.12653 	-9.37688e-21
10.3098 	0.295271 	0.00482581 	3.12653 	-9.37688e-21
10.3799 	0.295271 	0.00482581 	3.12653 	-9.37688e-21
10.45 	0.295271 	0.00482581 	3.12653 	-9.37688e-21
10.5202 	0.295271 	0.00482581 	3.12653 	-9.37688e-21
10.5903 	0.295271 	0.00482581 	3.12653 	-9.37688e-21
10.6604 	0.295271 	0.00482581 	3.12653 	-9.37688e-21
10.7306 	0.295271 	0.00482581 	3.12653 	-9.37688e-21
10.8007 	0.233627 	-0.00602456 	3.13281 	-7.00654e-20
10.8708 	0.233627 	-0.00602456 	3.13281 	-7.00654e-20
10.941 	0.233627 	-0.00602456 	3.13281 	-7.00654e-20
11.0111 	0.233627 	-0.00602456 	3.13281 	-7.00654e-20
11.0812 	0.233627 	-0.00602456 	3.13281 	-7.00654e-20
11.1514 	0.233627 	-0.00602456 	3.13281 	-7.00654e-20
11.2215 	0.233627 	-0.00602456 	3.13281 	-7.00654e-20
11.2916 	0.233627 	-0.00602456 	3.13281 	-7.00654e-20
11.3618 	0.233627 	-0.00602456 	3.13281 	-7.00654e-20
11.4319 	0.233627 	-0.00602456 	3.13281 	-7.00654e-20
11.502 	0.233627 	-0.00602456 	3.13281 	-7.00654e-20
11.5722 	0.233627 	-0.00602456 	3.13281 	-7.00654e-20
11.6423 	0.233627 	-0.00602456 	3.13281 	-7.00654e-20
11.7124 	0.154105 	-0.0173941 	3.12957 	-4.84206e-20
11.7826 	0.154105 	-0.0173941 	3.12957 	-4.84206e-20
11.8527 	0.154105 	-0.0173941 	3.12957 	-4.84206e-20
11.9228 	0.154105 	-0.0173941 	3.12957 	-4.84206e-20
11.993 	0.154105 	-0.0173941 	3.12957 	-4.84206e-20
12.0631 	0.154105 	-0.0173941 	3.12957 	-4.84206e-20
12.1332 	0.154105 	-0.0173941 	3.12957 	-4.84206e-20
12.2034 	0.154105 	-0.0173941 	3.12957 	-4.84206e-20
12.2735 	0.154105 	-0.0173941 	3.12957 	-4.84206e-20
12.3437 	0.154105 	-0.0173941 	3.12957 	-4.84206e-20
12.4138 	0.154105 	-0.0173941 	3.12957 	-4.84206e-20
12.4839 	0.154105 	-0.0173941 	3.12957 	-4.84206e-20
12.5541 	0.154105 	-0.0173941 	3.12957 	-4.84206e-20
12.6242 	0.0430435 	-0.062648 	3.13648 	3.63778e-20
12.6943 	0.0430435 	-0.062648 	3.13648 	3.63778e-20
12.7645 	0.0430435 	-0.062648 	3.13648 	3.63778e-20
12.8346 	0.0430435 	-0.062648 	3.13648 	3.63778e-20
12.9047 	0.0430435 	-0.062648 	3.13648 	3.63778e-20
12.9749 	0.0430435 	-0.062648 	3.13648 	3.63778e-20
13.045 	0.0430435 	-0.062648 	3.13648 	3.63778e-20
13.1151 	0.0430435 	-0.062648 	3.13648 	3.63778e-20
13.1853 	0.0430435 	-0.062648 	3.13648 	3.63778e-20
13.2554 	0.0430435 	-0.062648 	3.13648 	3.63778e-20
13.3255 	0.0430435 	-0.062648 	3.13648 	3.63778e-20
13.3957 	0.0430435 	-0.062648 	3.13648 	3.63778e-20
13.4658 	0.0430435 	-0.062648 	3.13648 	3.63778e-20
13.5359 	-0.0957802 	-0.0941277 	3.07985 	1.37281e-20
13.6061 	-0.0957802 	-0.0941277 	3.07985 	1.37281e-20
13.6762 	-0.0957802 	-0.0941277 	3.07985 	1.37281e-20
13.7463 	-0.0957802 	-0.0941277 	3.07985 	1.37281e-20
13.8165 	-0.0957802 	-0.0941277 	3.07985 	1.37281e-20
13.8866 	-0.0957802 	-0.0941277 	3.07985 	1.37281e-20
13.9567 	-0.0957802 	-0.0941277 	3.07985 	1.37281e-20
14.0269 	-0.0957802 	-0.0941277 	3.07985 	1.37281e-20
14.097 	-0.0957802 	-0.0941277 	3.07985 	1.37281e-20
14.1671 	-0.0957802 	-0.0941277 	3.07985 	1.37281e-20
14.2373 	-0.0957802 	-0.0941277 	3.07985 	1.37281e-20
14.3074 	-0.0957802 	-0.0941277 	3.07985 	1.37281e-20
14.3776 	-0.154763 	-0.126582 	3.08068 	0
14.4477 	-0.182276 	-0.109682 	3.00473 	-1.58466e-19
14.5178 	-0.182276 	-0.109682 	3.00473 	-1.58466e-19
14.588 	-0.182276 	-0.109682 	3.00473 	-1.58466e-19
14.6581 	-0.182276 	-0.109682 	3.00473 	-1.58466e-19
14.7282 	-0.182276 	-0.109682 	3.00473 	-1.58466e-19
14.7984 	-0.182276 	-0.109682 	3.00473 	-1.58466e-19
14.8685 	-0.121352 	-0.137606 	2.96146 	2.59515e-19
14.9386 	-0.121352 	-0.137606 	2.96146 	2.59515e-19
15.0088 	-0.121352 	-0.137606 	2.96146 	2.59515e-19
15.0789 	-0.121352 	-0.137606 	2.96146 	2.59515e-19
15.149 	-0.121352 	-0.137606 	2.96146 	2.59515e-19
15.2192 	-0.211565 	0.017452 	2.94321 	-3.9251e-19
15.2893 	-0.211565 	0.017452 	2.94321 	-3.9251e-19
15.3594 	-0.211565 	0.017452 	2.94321 	-3.9251e-19
15.4296 	-0.0788693 	0.00430033 	2.8467 	1.7208e-19
15.4997 	-0.0788693 	0.00430033 	2.8467 	1.7208e-19
15.5698 	-0.0788693 	0.00430033 	2.8467 	1.7208e-19
15.64 	-0.0788693 	0.00430033 	2.8467 	1.7208e-19
15.7101 	-0.0788693 	0.00430033 	2.8467 	1.7208e-19
15.7802 	-0.0788693 	0.00430033 	2.8467 	1.7208e-19
15.8504 	-0.0788693 	0.00430033 	2.8467 	1.7208e-19
15.9205 	-0.218876 	0.0913242 	2.84696 	6.25747e-20
15.9906 	-0.218876 	0.0913242 	2.84696 	6.25747e-20
16.0608 	-0.218876 	0.0913242 	2.84696 	6.25747e-20
16.1309 	0.051802 	0.0591553 	2.70634 	5.21977e-20
16.201 	0.051802 	0.0591553 	2.70634 	5.21977e-20
16.2712 	0.051802 	0.0591553 	2.70634 	5.21977e-20
16.3413 	0.051802 	0.0591553 	2.70634 	5.21977e-20
16.4114 	0.051802 	0.0591553 	2.70634 	5.21977e-20
16.4816 	0.051802 	0.0591553 	2.70634 	5.21977e-20
16.5517 	0.051802 	0.0591553 	2.70634 	5.21977e-20
16.6219 	-0.017472 	0.265518 	2.67341 	0
16.692 	-0.017472 	0.265518 	2.67341 	0
16.7621 	-0.017472 	0.265518 	2.67341 	0
16.8323 	-0.017472 	0.265518 	2.67341 	0
16.9024 	-0.017472 	0.265518 	2.67341 	0
16.9725 	0.338406 	0.214311 	2.44433 	2.50929e-19
17.0427 	0.338406 	0.214311 	2.44433 	2.50929e-19
17.1128 	0.338406 	0.214311 	2.44433 	2.50929e-19
17.1829 	0.338406 	0.214311 	2.44433 	2.50929e-19
17.2531 	0.274009 	0.377623 	2.40905 	3.42481e-19
17.3232 	0.274009 	0.377623 	2.40905 	3.42481e-19
17.3933 	0.274009 	0.377623 	2.40905 	3.42481e-19
17.4635 	0.274009 	0.377623 	2.40905 	3.42481e-19
17.5336 	0.274009 	0.377623 	2.40905 	3.42481e-19
17.6037 	0.274009 	0.377623 	2.40905 	3.42481e-19
17.6739 	0.274009 	0.377623 	2.40905 	3.42481e-19
17.744 	0.274009 	0.377623 	2.40905 	3.42481e-19
17.8141 	0.274009 	0.377623 	2.40905 	3.42481e-19
17.8843 	0.274009 	0.377623 	2.40905 	3.42481e-19
17.9544 	0.495677 	0.466852 	2.16204 	0
18.0245 	0.495677 	0.466852 	2.16204 	0
18.0947 	0.495677 	0.466852 	2.16204 	0
18.1648 	0.495677 	0.466852 	2.16204 	0
18.2349 	0.495677 	0.466852 	2.16204 	0
18.3051 	0.495677 	0.466852 	2.16204 	0
18.3752 	0.495677 	0.466852 	2.16204 	0
18.4453 	0.495677 	0.466852 	2.16204 	0
18.5155 	0.495677 	0.466852 	2.16204 	0
18.5856 	0.470369 	0.601217 	2.10313 	0
18.6557 	0.470369 	0.601217 	2.10313 	0
18.7259 	0.470369 	0.601217 	2.10313 	0
18.796 	0.470369 	0.601217 	2.10313 	0
18.8662 	0.470369 	0.601217 	2.10313 	0
18.9363 	0.470369 	0.601217 	2.10313 	0
19.0064 	0.470369 	0.601217 	2.10313 	0
19.0766 	0.470369 	0.601217 	2.10313 	0
19.1467 	0.470369 	0.601217 	2.10313 	0
19.2168 	0.489519 	0.722226 	2.01745 	-1.88312e-19
19.287 	0.654432 	0.600042 	1.87823 	-2.01585e-19
19.3571 	0.654432 	0.600042 	1.87823 	-2.01585e-19
19.4272 	0.654432 	0.600042 	1.87823 	-2.01585e-19
19.4974 	0.654432 	0.600042 	1.87823 	-2.01585e-19
19.5675 	0.654432 	0.600042 	1.87823 	-2.01585e-19
19.6376 	0.654432 	0.600042 	1.87823 	-2.01585e-19
19.7078 	0.654432 	0.600042 	1.87823 	-2.01585e-19
19.7779 	0.654432 	0.600042 	1.87823 	-2.01585e-19
19.848 	0.654432 	0.600042 	1.87823 	-2.01585e-19
19.9182 	0.648668 	0.675272 	1.81947 	-6.67611e-19
19.9883 	0.648668 	0.675272 	1.81947 	-6.67611e-19
20.0584 	0.648668 	0.675272 	1.81947 	-6.67611e-19
20.1286 	0.648668 	0.675272 	1.81947 	-6.67611e-19
20.1987 	0.648668 	0.675272 	1.81947 	-6.67611e-19
20.2688 	0.648668 	0.675272 	1.81947 	-6.67611e-19
20.339 	0.648668 	0.675272 	1.81947 	-6.67611e-19
20.4091 	0.648668 	0.675272 	1.81947 	-6.67611e-19
20.4792 	0.648668 	0.675272 	1.81947 	-6.67611e-19
20.5494 	0.648668 	0.675272 	1.81947 	-6.67611e-19
20.6195 	0.66608 	0.719501 	1.74264 	-2.0985e-19
20.6896 	0.66608 	0.719501 	1.74264 	-2.0985e-19
20.7598 	0.66608 	0.719501 	1.74264 	-2.0985e-19
20.8299 	0.66608 	0.719501 	1.74264 	-2.0985e-19
20.9 	0.717268 	0.635265 	1.68628 	-7.80025e-19
20.9702 	0.717268 	0.635265 	1.68628 	-7.80025e-19
21.0403 	0.717268 	0.635265 	1.68628 	-7.80025e-19
21.1105 	0.717268 	0.635265 	1.68628 	-7.80025e-19
21.1806 	0.717268 	0.635265 	1.68628 	-7.80025e-19
21.2507 	0.717268 	0.635265 	1.68628 	-7.80025e-19
21.3209 	0.71637 	0.659043 	1.64822 	0
21.391 	0.71637 	0.659043 	1.64822 	0
21.4611 	0.71637 	0.659043 	1.64822 	0
21.5313 	0.71637 	0.659043 	1.64822 	0
21.6014 	0.71637 	0.659043 	1.64822 	0
21.6715 	0.71637 	0.659043 	1.64822 	0
21.7417 	0.71637 	0.659043 	1.64822 	0
21.8118 	0.71637 	0.659043 	1.64822 	0
21.8819 	0.71637 	0.659043 	1.64822 	0
21.9521 	0.71637 	0.659043 	1.64822 	0
22.0222 	0.71637 	0.659043 	1.64822 	0
22.0923 	0.720664 	0.668205 	1.6126 	-5.13e-19
22.1625 	0.720664 	0.668205 	1.6126 	-5.13e-19
22.2326 	0.720664 	0.668205 	1.6126 	-5.13e-19
22.3027 	0.720664 	0.668205 	1.6126 	-5.13e-19
22.3729 	0.720664 	0.668205 	1.6126 	-5.13e-19
22.443 	0.720664 	0.668205 	1.6126 	-5.13e-19
22.5131 	0.720664 	0.668205 	1.6126 	-5.13e-19
22.5833 	0.720664 	0.668205 	1.6126 	-5.13e-19
22.6534 	0.720664 	0.668205 	1.6126 	-5.13e-19
22.7235 	0.720664 	0.668205 	1.6126 	-5.13e-19
22.7937 	0.720664 	0.668205 	1.6126 	-5.13e-19
22.8638 	0.72742 	0.665903 	1.5831 	1.1242e-18
22.9339 	0.72742 	0.665903 	1.5831 	1.1242e-18
23.0041 	0.72742 	0.665903 	1.5831 	1.1242e-18
23.0742 	0.690796 	0.632945 	1.58665 	2.70876e-19
23.1443 	0.690796 	0.632945 	1.58665 	2.70876e-19
23.2145 	0.690796 	0.632945 	1.58665 	2.70876e-19
23.2846 	0.690796 	0.632945 	1.58665 	2.70876e-19
23.3548 	0.690796 	0.632945 	1.58665 	2.70876e-19
23.4249 	0.690796 	0.632945 	1.58665 	2.70876e-19
23.495 	0.690796 	0.632945 	1.58665 	2.70876e-19
23.5652 	0.690796 	0.632945 	1.58665 	2.70876e-19
23.6353 	0.690796 	0.632945 	1.58665 	2.70876e-19
23.7054 	0.684498 	0.627424 	1.57864 	-1.17913e-19
23.7756 	0.684498 	0.627424 	1.57864 	-1.17913e-19
23.8457 	0.684498 	0.627424 	1.57864 	-1.17913e-19
23.9158 	0.684498 	0.627424 	1.57864 	-1.17913e-19
23.986 	0.684498 	0.627424 	1.57864 	-1.17913e-19
24.0561 	0.684498 	0.627424 	1.57864 	-1.17913e-19
24.1262 	0.684498 	0.627424 	1.57864 	-1.17913e-19
24.1964 	0.684498 	0.627424 	1.57864 	-1.17913e-19
24.2665 	0.684498 	0.627424 	1.57864 	-1.17913e-19
24.3366 	0.684498 	0.627424 	1.57864 	-1.17913e-19
24.4068 	0.684498 	0.627424 	1.57864 	-1.17913e-19
24.4769 	0.684498 	0.627424 	1.57864 	-1.17913e-19
24.547 	0.684498 	0.627424 	1.57864 	-1.17913e-19
24.6172 	0.680475 	0.614392 	1.5719 	9.40467e-19
24.6873 	0.680475 	0.614392 	1.5719 	9.40467e-19
24.7574 	0.680475 	0.614392 	1.5719 	9.40467e-19
24.8276 	0.680475 	0.614392 	1.5719 	9.40467e-19
24.8977 	0.680475 	0.614392 	1.5719 	9.40467e-19
24.9678 	0.680475 	0.614392 	1.5719 	9.40467e-19
25.038 	0.680475 	0.614392 	1.5719 	9.40467e-19
25.1081 	0.680475 	0.614392 	1.5719 	9.40467e-19
25.1782 	0.680475 	0.614392 	1.5719 	9.40467e-19
25.2484 	0.680475 	0.614392 	1.5719 	9.40467e-19
25.3185 	0.680475 	0.614392 	1.5719 	9.40467e-19
25.3886 	0.680475 	0.614392 	1.5719 	9.40467e-19
25.4588 	0.677737 	0.594174 	1.56724 	-8.52722e-19
25.5289 	0.677737 	0.594174 	1.56724 	-8.52722e-19
25.5991 	0.677737 	0.594174 	1.56724 	-8.52722e-19
25.6692 	0.677737 	0.594174 	1.56724 	-8.52722e-19
25.7393 	0.677737 	0.594174 	1.56724 	-8.52722e-19
25.8095 	0.677737 	0.594174 	1.56724 	-8.52722e-19
25.8796 	0.677737 	0.594174 	1.56724 	-8.52722e-19
25.9497 	0.677737 	0.594174 	1.56724 	-8.52722e-19
26.0199 	0.677737 	0.594174 	1.56724 	-8.52722e-19
26.09 	0.58611 	0.597461 	1.60224 	-1.52185e-19
26.1601 	0.58611 	0.597461 	1.60224 	-1.52185e-19
26.2303 	0.58611 	0.597461 	1.60224 	-1.52185e-19
26.3004 	0.58611 	0.597461 	1.60224 	-1.52185e-19
26.3705 	0.58611 	0.597461 	1.60224 	-1.52185e-19
26.4407 	0.574408 	0.572871 	1.60977 	1.32622e-19
26.5108 	0.574408 	0.572871 	1.60977 	1.32622e-19
26.5809 	0.574408 	0.572871 	1.60977 	1.32622e-19
26.6511 	0.574408 	0.572871 	1.60977 	1.32622e-19
26.7212 	0.574408 	0.572871 	1.60977 	1.32622e-19
26.7913 	0.574408 	0.572871 	1.60977 	1.32622e-19
26.8615 	0.574408 	0.572871 	1.60977 	1.32622e-19
26.9316 	0.574408 	0.572871 	1.60977 	1.32622e-19
27.0017 	0.574408 	0.572871 	1.60977 	1.32622e-19
27.0719 	0.574408 	0.572871 	1.60977 	1.32622e-19
27.142 	0.574408 	0.572871 	1.60977 	1.32622e-19
27.2121 	0.574408 	0.572871 	1.60977 	1.32622e-19
27.2823 	0.574408 	0.572871 	1.60977 	1.32622e-19
27.3524 	0.562922 	0.542428 	1.61832 	0
27.4225 	0.562922 	0.542428 	1.61832 	0
27.4927 	0.562922 	0.542428 	1.61832 	0
27.5628 	0.562922 	0.542428 	1.61832 	0
27.6329 	0.562922 	0.542428 	1.61832 	0
27.7031 	0.562922 	0.542428 	1.61832 	0
27.7732 	0.562922 	0.542428 	1.61832 	0
27.8434 	0.562922 	0.542428 	1.61832 	0
27.9135 	0.562922 	0.542428 	1.61832 	0
27.9836 	0.562922 	0.542428 	1.61832 	0
28.0538 	0.562922 	0.542428 	1.61832 	0
28.1239 	0.562922 	0.542428 	1.61832 	0
28.194 	0.562922 	0.542428 	1.61832 	0
28.2642 	0.562922 	0.542428 	1.61832 	0
28.3343 	0.562922 	0.542428 	1.61832 	0
28.4044 	0.550843 	0.506436 	1.62825 	0
28.4746 	0.550843 	0.506436 	1.62825 	0
28.5447 	0.550843 	0.506436 	1.62825 	0
28.6148 	0.550843 	0.506436 	1.62825 	0
28.685 	0.550843 	0.506436 	1.62825 	0
28.7551 	0.550843 	0.506436 	1.62825 	0
28.8252 	0.550843 	0.506436 	1.62825 	0
28.8954 	0.550843 	0.506436 	1.62825 	0
28.9655 	0.550843 	0.506436 	1.62825 	0
29.0356 	0.550843 	0.506436 	1.62825 	0
29.1058 	0.550843 	0.506436 	1.62825 	0
29.1759 	0.550843 	0.506436 	1.62825 	0
29.246 	0.550843 	0.506436 	1.62825 	0
29.3162 	0.550843 	0.506436 	1.62825 	0
29.3863 	0.550843 	0.506436 	1.62825 	0
29.4564 	0.537113 	0.465197 	1.6398 	2.24196e-19
29.5266 	0.537113 	0.465197 	1.6398 	2.24196e-19
29.5967 	0.537113 	0.465197 	1.6398 	2.24196e-19
29.6668 	0.537113 	0.465197 	1.6398 	2.24196e-19
29.737 	0.537113 	0.465197 	1.6398 	2.24196e-19
29.8071 	0.537113 	0.465197 	1.6398 	2.24196e-19
29.8773 	0.537113 	0.465197 	1.6398 	2.24196e-19
29.9474 	0.537113 	0.465197 	1.6398 	2.24196e-19
30.0175 	0.537113 	0.465197 	1.6398 	2.24196e-19
30.0877 	0.537113 	0.465197 	1.6398 	2.24196e-19
30.1578 	0.537113 	0.465197 	1.6398 	2.24196e-19
30.2279 	0.537113 	0.465197 	1.6398 	2.24196e-19
30.2981 	0.537113 	0.465197 	1.6398 	2.24196e-19
30.3682 	0.537113 	0.465197 	1.6398 	2.24196e-19
30.4383 	0.537113 	0.465197 	1.6398 	2.24196e-19
30.5085 	0.537113 	0.465197 	1.6398 	2.24196e-19
30.5786 	0.520895 	0.419224 	1.65283 	1.79784e-20
30.6487 	0.520895 	0.419224 	1.65283 	1.79784e-20
30.7189 	0.520895 	0.419224 	1.65283 	1.79784e-20
30.789 	0.520895 	0.419224 	1.65283 	1.79784e-20
30.8591 	0.520895 	0.419224 	1.65283 	1.79784e-20
30.9293 	0.520895 	0.419224 	1.65283 	1.79784e-20
30.9994 	0.520895 	0.419224 	1.65283 	1.79784e-20
31.0695 	0.520895 	0.419224 	1.65283 	1.79784e-20
31.1397 	0.520895 	0.419224 	1.65283 	1.79784e-20
31.2098 	0.520895 	0.419224 	1.65283 	1.79784e-20
31.2799 	0.520895 	0.419224 	1.65283 	1.79784e-20
31.3501 	0.520895 	0.419224 	1.65283 	1.79784e-20
31.4202 	0.520895 	0.419224 	1.65283 	1.79784e-20
31.4903 	0.520895 	0.419224 	1.65283 	1.79784e-20
31.5605 	0.388164 	0.439549 	1.7196 	2.56237e-19
31.6306 	0.388164 	0.439549 	1.7196 	2.56237e-19
31.7007 	0.371594 	0.388614 	1.73408 	-1.64367e-19
31.7709 	0.371594 	0.388614 	1.73408 	-1.64367e-19
31.841 	0.371594 	0.388614 	1.73408 	-1.64367e-19
31.9111 	0.371594 	0.388614 	1.73408 	-1.64367e-19
31.9813 	0.371594 	0.388614 	1.73408 	-1.64367e-19
32.0514 	0.371594 	0.388614 	1.73408 	-1.64367e-19
32.1216 	0.371594 	0.388614 	1.73408 	-1.64367e-19
32.1917 	0.371594 	0.388614 	1.73408 	-1.64367e-19
32.2618 	0.371594 	0.388614 	1.73408 	-1.64367e-19
32.332 	0.371594 	0.388614 	1.73408 	-1.64367e-19
32.4021 	0.371594 	0.388614 	1.73408 	-1.64367e-19
32.4722 	0.371594 	0.388614 	1.73408 	-1.64367e-19
32.5424 	0.371594 	0.388614 	1.73408 	-1.64367e-19
32.6125 	0.371594 	0.388614 	1.73408 	-1.64367e-19
32.6826 	0.371594 	0.388614 	1.73408 	-1.64367e-19
32.7528 	0.371594 	0.388614 	1.73408 	-1.64367e-19
32.8229 	0.371594 	0.388614 	1.73408 	-1.64367e-19
32.893 	0.371594 	0.388614 	1.73408 	-1.64367e-19
32.9632 	0.353632 	0.334627 	1.74791 	-2.86867e-20
33.0333 	0.353632 	0.334627 	1.74791 	-2.86867e-20
33.1034 	0.353632 	0.334627 	1.74791 	-2.86867e-20
33.1736 	0.353632 	0.334627 	1.74791 	-2.86867e-20
33.2437 	0.353632 	0.334627 	1.74791 	-2.86867e-20
33.3138 	0.353632 	0.334627 	1.74791 	-2.86867e-20
33.384 	0.353632 	0.334627 	1.74791 	-2.86867e-20
33.4541 	0.353632 	0.334627 	1.74791 	-2.86867e-20
33.5242 	0.353632 	0.334627 	1.74791 	-2.86867e-20
33.5944 	0.353632 	0.334627 	1.74791 	-2.86867e-20
33.6645 	0.353632 	0.334627 	1.74791 	-2.86867e-20
33.7346 	0.353632 	0.334627 	1.74791 	-2.86867e-20
33.8048 	0.353632 	0.334627 	1.74791 	-2.86867e-20
33.8749 	0.353632 	0.334627 	1.74791 	-2.86867e-20
33.945 	0.353632 	0.334627 	1.74791 	-2.86867e-20
34.0152 	0.353632 	0.334627 	1.74791 	-2.86867e-20
34.0853 	0.353632 	0.334627 	1.74791 	-2.86867e-20
34.1554 	0.353632 	0.334627 	1.74791 	-2.86867e-20
34.2256 	0.334064 	0.279323 	1.76019 	3.36657e-20
34.2957 	0.334064 	0.279323 	1.76019 	3.36657e-20
34.3659 	0.334064 	0.279323 	1.76019 	3.36657e-20
34.436 	0.334064 	0.279323 	1.76019 	3.36657e-20
34.5061 	0.334064 	0.279323 	1.76019 	3.36657e-20
34.5763 	0.334064 	0.279323 	1.76019 	3.36657e-20
34.6464 	0.334064 	0.279323 	1.76019 	3.36657e-20
34.7165 	0.334064 	0.279323 	1.76019 	3.36657e-20
34.7867 	0.334064 	0.279323 	1.76019 	3.36657e-20
34.8568 	0.334064 	0.279323 	1.76019 	3.36657e-20
34.9269 	0.334064 	0.279323 	1.76019 	3.36657e-20
34.9971 	0.334064 	0.279323 	1.76019 	3.36657e-20
35.0672 	0.334064 	0.279323 	1.76019 	3.36657e-20
35.1373 	0.334064 	0.279323 	1.76019 	3.36657e-20
35.2075 	0.334064 	0.279323 	1.76019 	3.36657e-20
35.2776 	0.334064 	0.279323 	1.76019 	3.36657e-20
35.3477 	0.334064 	0.279323 	1.76019 	3.36657e-20
35.4179 	0.334064 	0.279323 	1.76019 	3.36657e-20
35.488 	0.334064 	0.279323 	1.76019 	3.36657e-20
35.5581 	0.334064 	0.279323 	1.76019 	3.36657e-20
35.6283 	0.31269 	0.225166 	1.77056 	5.13504e-21
35.6984 	0.31269 	0.225166 	1.77056 	5.13504e-21
35.7685 	0.31269 	0.225166 	1.77056 	5.13504e-21
35.8387 	0.31269 	0.225166 	1.77056 	5.13504e-21
35.9088 	0.31269 	0.225166 	1.77056 	5.13504e-21
35.9789 	0.31269 	0.225166 	1.77056 	5.13504e-21
36.0491 	0.31269 	0.225166 	1.77056 	5.13504e-21
36.1192 	0.31269 	0.225166 	1.77056 	5.13504e-21
36.1893 	0.31269 	0.225166 	1.77056 	5.13504e-21
36.2595 	0.31269 	0.225166 	1.77056 	5.13504e-21
36.3296 	0.31269 	0.225166 	1.77056 	5.13504e-21
36.3997 	0.31269 	0.225166 	1.77056 	5.13504e-21
36.4699 	0.31269 	0.225166 	1.77056 	5.13504e-21
36.54 	0.31269 	0.225166 	1.77056 	5.13504e-21
36.6102 	0.31269 	0.225166 	1.77056 	5.13504e-21
36.6803 	0.31269 	0.225166 	1.77056 	5.13504e-21
36.7504 	0.31269 	0.225166 	1.77056 	5.13504e-21
36.8206 	0.31269 	0.225166 	1.77056 	5.13504e-21
36.8907 	0.31269 	0.225166 	1.77056 	5.13504e-21
36.9608 	0.31269 	0.225166 	1.77056 	5.13504e-21
37.031 	0.31269 	0.225166 	1.77056 	5.13504e-21
37.1011 	0.292708 	0.179341 	1.77904 	0
37.1712 	0.292708 	0.179341 	1.77904 	0
37.2414 	0.292708 	0.179341 	1.77904 	0
37.3115 	0.292708 	0.179341 	1.77904 	0
37.3816 	0.292708 	0.179341 	1.77904 	0
37.4518 	0.292708 	0.179341 	1.77904 	0
37.5219 	0.292708 	0.179341 	1.77904 	0
37.592 	0.292708 	0.179341 	1.77904 	0
37.6622 	0.292708 	0.179341 	1.77904 	0
37.7323 	0.292708 	0.179341 	1.77904 	0
37.8024 	0.292708 	0.179341 	1.77904 	0
37.8726 	0.292708 	0.179341 	1.77904 	0
37.9427 	0.292708 	0.179341 	1.77904 	0
38.0128 	0.292708 	0.179341 	1.77904 	0
38.083 	0.292708 	0.179341 	1.77904 	0
38.1531 	0.292708 	0.179341 	1.77904 	0
38.2232 	0.292708 	0.179341 	1.77904 	0
38.2934 	0.277522 	0.14299 	1.78271 	0
38.3635 	0.277522 	0.14299 	1.78271 	0
38.4336 	0.277522 	0.14299 	1.78271 	0
38.5038 	0.277522 	0.14299 	1.78271 	0
38.5739 	0.277522 	0.14299 	1.78271 	0
38.644 	0.277522 	0.14299 	1.78271 	0
38.7142 	0.277522 	0.14299 	1.78271 	0
38.7843 	0.277522 	0.14299 	1.78271 	0
38.8545 	0.277522 	0.14299 	1.78271 	0
38.9246 	0.277522 	0.14299 	1.78271 	0
38.9947 	0.277522 	0.14299 	1.78271 	0
39.0649 	0.277522 	0.14299 	1.78271 	0
39.135 	0.277522 	0.14299 	1.78271 	0
39.2051 	0.277522 	0.14299 	1.78271 	0
39.2753 	0.277522 	0.14299 	1.78271 	0
39.3454 	0.277522 	0.14299 	1.78271 	0
39.4155 	0.277522 	0.14299 	1.78271 	0
39.4857 	0.277522 	0.14299 	1.78271 	0
39.5558 	0.265746 	0.11317 	1.78318 	0
39.6259 	0.265746 	0.11317 	1.78318 	0
39.6961 	0.265746 	0.11317 	1.78318 	0
39.7662 	0.265746 	0.11317 	1.78318 	0
39.8363 	0.265746 	0.11317 	1.78318 	0
39.9065 	0.265746 	0.11317 	1.78318 	0
39.9766 	0.265746 	0.11317 	1.78318 	0
40.0467 	0.265746 	0.11317 	1.78318 	0
40.1169 	0.265746 	0.11317 	1.78318 	0
40.187 	0.265746 	0.11317 	1.78318 	0
40.2571 	0.265746 	0.11317 	1.78318 	0
40.3273 	0.265746 	0.11317 	1.78318 	0
40.3974 	0.265746 	0.11317 	1.78318 	0
40.4675 	0.265746 	0.11317 	1.78318 	0
40.5377 	0.265746 	0.11317 	1.78318 	0
40.6078 	0.265746 	0.11317 	1.78318 	0
40.6779 	0.265746 	0.11317 	1.78318 	0
40.7481 	0.255554 	0.0893216 	1.78258 	0
40.8182 	0.255554 	0.0893216 	1.78258 	0
40.8883 	0.255554 	0.0893216 	1.78258 	0
40.9585 	0.255554 	0.0893216 	1.78258 	0
41.0286 	0.255554 	0.0893216 	1.78258 	0
41.0988 	0.255554 	0.0893216 	1.78258 	0
41.1689 	0.255554 	0.0893216 	1.78258 	0
41.239 	0.255554 	0.0893216 	1.78258 	0
41.3092 	0.255554 	0.0893216 	1.78258 	0
41.3793 	0.255554 	0.0893216 	1.78258 	0
41.4494 	0.255554 	0.0893216 	1.78258 	0
41.5196 	0.255554 	0.0893216 	1.78258 	0
41.5897 	0.255554 	0.0893216 	1.78258 	0
41.6598 	0.255554 	0.0893216 	1.78258 	0
41.73 	0.255554 	0.0893216 	1.78258 	0
41.8001 	0.255554 	0.0893216 	1.78258 	0
41.8702 	0.255554 	0.0893216 	1.78258 	0
41.9404 	0.255554 	0.0893216 	1.78258 	0
42.0105 	0.245713 	0.0703498 	1.78163 	0
42.0806 	0.245713 	0.0703498 	1.78163 	0
42.1508 	0.245713 	0.0703498 	1.78163 	0
42.2209 	0.245713 	0.0703498 	1.78163 	0
42.291 	0.245713 	0.0703498 	1.78163 	0
42.3612 	0.245713 	0.0703498 	1.78163 	0
42.4313 	0.245713 	0.0703498 	1.78163 	0
42.5014 	0.245713 	0.0703498 	1.78163 	0
42.5716 	0.245713 	0.0703498 	1.78163 	0
42.6417 	0.245713 	0.0703498 	1.78163 	0
42.7118 	0.245713 	0.0703498 	1.78163 	0
42.782 	0.245713 	0.0703498 	1.78163 	0
42.8521 	0.245713 	0.0703498 	1.78163 	0
42.9222 	0.245713 	0.0703498 	1.78163 	0
42.9924 	0.245713 	0.0703498 	1.78163 	0
43.0625 	0.245713 	0.0703498 	1.78163 	0
43.1327 	0.245713 	0.0703498 	1.78163 	0
43.2028 	0.235887 	0.055287 	1.78051 	0
43.2729 	0.235887 	0.055287 	1.78051 	0
43.3431 	0.235887 	0.055287 	1.78051 	0
43.4132 	0.235887 	0.055287 	1.78051 	0
43.4833 	0.235887 	0.055287 	1.78051 	0
43.5535 	0.235887 	0.055287 	1.78051 	0
43.6236 	0.235887 	0.055287 	1.78051 	0
43.6937 	0.235887 	0.055287 	1.78051 	0
43.7639 	0.235887 	0.055287 	1.78051 	0
43.834 	0.235887 	0.055287 	1.78051 	0
43.9041 	0.235887 	0.055287 	1.78051 	0
43.9743 	0.235887 	0.055287 	1.78051 	0
44.0444 	0.235887 	0.055287 	1.78051 	0
44.1145 	0.235887 	0.055287 	1.78051 	0
44.1847 	0.235887 	0.055287 	1.78051 	0
44.2548 	0.235887 	0.055287 	1.78051 	0
44.3249 	0.235887 	0.055287 	1.78051 	0
44.3951 	0.235887 	0.055287 	1.78051 	0
44.4652 	0.225939 	0.04338 	1.77937 	0
44.5353 	0.225939 	0.04338 	1.77937 	0
44.6055 	0.225939 	0.04338 	1.77937 	0