/*--------------------------------*- C++ -*----------------------------------*\
| =========                 |                                                 |
| \\      /  F ield         | OpenFOAM: The Open Source CFD Toolbox           |
|  \\    /   O peration     | Version:  2306                                  |
|   \\  /    A nd           | Website:  www.openfoam.com                      |
|    \\/     M anipulation  |                                                 |
\*---------------------------------------------------------------------------*/
FoamFile
{
    version     2.0;
    format      ascii;
    arch        "LSB;label=32;scalar=64";
    class       volScalarField;
    location    "52";
    object      p;
}
// * * * * * * * * * * * * * * * * * * * * * * * * * * * * * * * * * * * * * //

dimensions      [0 2 -2 0 0 0 0];

internalField   nonuniform List<scalar> 
8800
(
0.830429
0.782377
0.743999
0.715355
0.694727
0.679968
0.669359
0.661847
0.656998
0.654922
0.656193
0.660399
0.667071
0.676412
0.689169
0.706759
0.731205
0.764818
0.807265
0.864391
0.662962
0.670167
0.678605
0.682019
0.6801
0.674572
0.667853
0.661682
0.656913
0.654046
0.653758
0.656273
0.660788
0.666789
0.673702
0.680324
0.684458
0.683946
0.677885
0.668908
0.639673
0.645849
0.650046
0.653403
0.655899
0.65669
0.655572
0.653415
0.651366
0.650444
0.651404
0.653801
0.656636
0.658856
0.659391
0.657863
0.655017
0.651381
0.646847
0.643063
0.634542
0.637242
0.63996
0.642266
0.643907
0.645225
0.646124
0.646315
0.646036
0.645985
0.64673
0.647885
0.648675
0.648615
0.647821
0.646627
0.644879
0.64238
0.639955
0.638425
0.629355
0.630776
0.632573
0.634622
0.636368
0.637665
0.638679
0.639538
0.640199
0.640779
0.641415
0.641865
0.641894
0.641541
0.640844
0.639641
0.637944
0.636065
0.634743
0.63392
0.624353
0.625267
0.626499
0.628075
0.62972
0.631234
0.632493
0.633555
0.634533
0.635434
0.636107
0.636401
0.636334
0.635896
0.635022
0.633805
0.632452
0.631185
0.630363
0.629818
0.619494
0.620158
0.621112
0.622405
0.623811
0.625273
0.626706
0.62801
0.629194
0.630291
0.631097
0.63145
0.631359
0.63084
0.630012
0.629045
0.628026
0.627099
0.626513
0.626113
0.61475
0.615263
0.616039
0.617158
0.618425
0.619791
0.621231
0.622692
0.624101
0.625417
0.626405
0.626859
0.626815
0.626406
0.625782
0.625044
0.624262
0.623571
0.623137
0.622824
0.61006
0.610467
0.611116
0.612112
0.613305
0.614618
0.616049
0.617591
0.619193
0.620767
0.621986
0.622615
0.622749
0.622551
0.622146
0.621614
0.62103
0.620528
0.620203
0.619949
0.605341
0.605673
0.606234
0.607149
0.608292
0.609588
0.611049
0.61268
0.614462
0.616314
0.617834
0.618739
0.619136
0.619181
0.618996
0.618677
0.618279
0.617933
0.617691
0.617479
0.600509
0.600785
0.601284
0.602152
0.603275
0.604593
0.606122
0.607884
0.609883
0.612052
0.613954
0.61522
0.615934
0.616252
0.616306
0.616198
0.615985
0.615774
0.615599
0.615417
0.595479
0.59571
0.59617
0.597021
0.598164
0.599545
0.601185
0.603132
0.605409
0.607974
0.610344
0.612045
0.613126
0.613758
0.614075
0.614187
0.614154
0.614067
0.613947
0.613785
0.590161
0.590358
0.590798
0.591662
0.592866
0.594355
0.59616
0.598359
0.600996
0.604061
0.607
0.609214
0.610723
0.611708
0.612318
0.612658
0.612822
0.61285
0.612776
0.612629
0.584461
0.584629
0.585067
0.585972
0.587279
0.588928
0.590965
0.593495
0.596593
0.60028
0.603909
0.606735
0.608745
0.610135
0.611078
0.611692
0.612045
0.612181
0.612146
0.612008
0.578264
0.578408
0.578858
0.579836
0.581291
0.583159
0.585504
0.588458
0.592138
0.596593
0.601059
0.604617
0.607221
0.609085
0.610404
0.611313
0.611882
0.612132
0.612134
0.612002
0.571439
0.571558
0.572035
0.573116
0.574771
0.576928
0.579666
0.583159
0.58756
0.592953
0.598436
0.602876
0.606189
0.608613
0.610373
0.611618
0.612429
0.612796
0.612833
0.612703
0.563816
0.563911
0.56443
0.565649
0.567562
0.570084
0.573329
0.577503
0.582804
0.589349
0.596061
0.601554
0.605703
0.608788
0.611076
0.612717
0.613792
0.614283
0.614351
0.61422
0.555167
0.555268
0.555839
0.557215
0.559456
0.562454
0.566345
0.57138
0.577803
0.585764
0.593957
0.600701
0.605834
0.609693
0.612607
0.614706
0.616084
0.616708
0.616808
0.616671
0.545201
0.545282
0.545943
0.54754
0.55021
0.553822
0.558533
0.564652
0.572475
0.582172
0.592143
0.600366
0.606661
0.611433
0.615068
0.61771
0.619432
0.620197
0.620326
0.620182
0.533548
0.533612
0.534371
0.536283
0.539506
0.543902
0.549659
0.557149
0.566713
0.578526
0.590633
0.600606
0.608264
0.614109
0.618582
0.621857
0.623962
0.624876
0.625032
0.624876
0.519679
0.519732
0.520635
0.522956
0.526907
0.532338
0.539463
0.548721
0.560478
0.574878
0.58952
0.601528
0.610751
0.61783
0.62328
0.627272
0.629794
0.630858
0.631035
0.630863
0.502836
0.502876
0.503992
0.506894
0.511843
0.518674
0.527625
0.539191
0.553723
0.571275
0.588886
0.603227
0.614227
0.622711
0.629254
0.634058
0.637019
0.638225
0.638413
0.638222
0.48189
0.48193
0.483385
0.487152
0.493539
0.502342
0.513798
0.52841
0.546433
0.567772
0.588822
0.605797
0.61879
0.628839
0.636586
0.642277
0.645679
0.647002
0.647186
0.646973
0.45511
0.455167
0.457205
0.462375
0.470979
0.482685
0.497669
0.516336
0.538738
0.564569
0.589515
0.609373
0.624525
0.636278
0.645334
0.651942
0.655741
0.657134
0.657293
0.657056
0.419482
0.41964
0.422875
0.430635
0.442998
0.45915
0.47918
0.503186
0.530962
0.561978
0.591201
0.614123
0.63153
0.645063
0.655502
0.662982
0.667072
0.668452
0.668557
0.668296
0.369267
0.370239
0.376686
0.389771
0.408667
0.431681
0.458653
0.489381
0.523463
0.560244
0.594018
0.620115
0.639818
0.655134
0.666952
0.675176
0.679383
0.680645
0.68067
0.680388
0.295761
0.302986
0.317862
0.340821
0.369473
0.40167
0.437129
0.475617
0.516738
0.559822
0.598502
0.628035
0.650267
0.667581
0.680858
0.689767
0.694031
0.69517
0.695142
0.694897
0.21688
0.233528
0.257639
0.291243
0.330101
0.371641
0.415675
0.462141
0.51073
0.560854
0.605453
0.639377
0.664867
0.684656
0.699782
0.709344
0.713443
0.714365
0.714362
0.714218
0.150523
0.170318
0.202182
0.244845
0.292743
0.343093
0.395463
0.449772
0.505704
0.562675
0.612925
0.650945
0.679459
0.701482
0.717925
0.727735
0.731633
0.732472
0.73254
0.732462
0.0961388
0.117791
0.15512
0.204218
0.259223
0.317002
0.376769
0.438296
0.501135
0.564629
0.62024
0.662095
0.693329
0.717263
0.734915
0.745244
0.749459
0.75038
0.750463
0.750427
0.0509245
0.0738186
0.114928
0.169127
0.229834
0.293737
0.359832
0.42776
0.496921
0.566517
0.627192
0.67266
0.706484
0.732303
0.751194
0.762367
0.766941
0.767864
0.76798
0.767978
0.0124609
0.0360781
0.0800472
0.138304
0.203812
0.272929
0.344512
0.418123
0.493031
0.568284
0.633711
0.682584
0.718842
0.746486
0.766599
0.778576
0.783547
0.784607
0.78476
0.784779
-0.0212585
0.00284677
0.0491109
0.110691
0.180264
0.253918
0.330369
0.409096
0.489264
0.569777
0.639663
0.691728
0.730254
0.759514
0.780697
0.793374
0.798761
0.800055
0.800263
0.800287
-0.0517043
-0.0271718
0.0209733
0.0853978
0.158472
0.236101
0.316918
0.400312
0.485354
0.570813
0.644915
0.699975
0.740575
0.771201
0.793361
0.806603
0.812326
0.813849
0.814088
0.814114
-0.0798246
-0.0549008
-0.00512185
0.0617247
0.137888
0.219039
0.303783
0.391455
0.481055
0.57121
0.64936
0.707276
0.749791
0.781699
0.80459
0.818239
0.824208
0.825891
0.826148
0.826157
-0.106393
-0.0810383
-0.0297278
0.039182
0.118107
0.202396
0.290689
0.382295
0.476168
0.570829
0.652944
0.713659
0.758002
0.791092
0.81454
0.828469
0.834613
0.836391
0.836635
0.836617
-0.131773
-0.105968
-0.0535035
0.017472
0.0988389
0.185942
0.277449
0.372675
0.470567
0.56959
0.65564
0.719166
0.765333
0.79952
0.823509
0.837559
0.843755
0.845547
0.845768
0.845719
-0.156365
-0.129969
-0.0764757
-0.00364448
0.0798894
0.169517
0.263944
0.362501
0.464167
0.567411
0.657418
0.723841
0.771899
0.807188
0.831592
0.845682
0.851854
0.853636
0.853852
0.853781
-0.180301
-0.153471
-0.0987771
-0.0243224
0.0611464
0.153041
0.250105
0.351717
0.456913
0.564245
0.658255
0.727732
0.777831
0.814258
0.839008
0.853066
0.859165
0.860876
0.861035
0.860933
-0.203705
-0.176307
-0.12056
-0.0446482
0.0425643
0.13648
0.235914
0.340305
0.448784
0.560048
0.658107
0.730864
0.783223
0.820856
0.845903
0.859852
0.865771
0.867352
0.867441
0.867299
-0.226675
-0.198668
-0.141902
-0.0646439
0.02412
0.11984
0.221391
0.328289
0.439785
0.55479
0.656925
0.733222
0.788145
0.827115
0.852415
0.866123
0.871723
0.873098
0.873106
0.87294
-0.249228
-0.22053
-0.162805
-0.0843039
0.00584867
0.103154
0.206583
0.315717
0.429948
0.54845
0.65465
0.734757
0.792615
0.833171
0.858732
0.872007
0.877089
0.878177
0.878107
0.877927
-0.271203
-0.241851
-0.183205
-0.103599
-0.0122135
0.0864876
0.191554
0.302663
0.419334
0.541056
0.651222
0.735376
0.796586
0.839163
0.865159
0.877774
0.881997
0.882646
0.882485
0.88231
-0.292569
-0.2626
-0.203086
-0.122477
-0.0300076
0.0699029
0.176396
0.289207
0.408023
0.532638
0.646599
0.734948
0.799944
0.845153
0.872077
0.883934
0.886769
0.886592
0.886276
0.886141
-0.313395
-0.282734
-0.22242
-0.140903
-0.04747
0.0534843
0.161199
0.275455
0.396109
0.523265
0.640737
0.73333
0.802485
0.851023
0.879802
0.891356
0.892344
0.890446
0.889585
0.889675
-0.333502
-0.302235
-0.241146
-0.158811
-0.0645407
0.0373167
0.146059
0.261518
0.383709
0.513036
0.633628
0.73036
0.803932
0.856395
0.888236
0.900993
0.900767
0.896304
0.89329
0.892625
-0.352982
-0.321099
-0.259275
-0.176229
-0.0812525
0.0213585
0.130921
0.247338
0.370755
0.501882
0.625133
0.725763
0.803977
0.860711
0.896628
0.912986
0.914298
0.90835
0.899182
0.889938
-0.371758
-0.339307
-0.276935
-0.193355
-0.0978953
0.0052759
0.115371
0.232431
0.356705
0.489162
0.614596
0.718738
0.802039
0.863174
0.903086
0.924737
0.928611
0.917747
0.897832
0.891205
-0.38965
-0.356867
-0.293945
-0.209985
-0.114163
-0.0106035
0.0996297
0.217125
0.34187
0.475141
0.602113
0.708793
0.797408
0.862672
0.903247
0.92483
0.931939
0.908035
0.842127
0.813148
-0.406186
-0.375017
-0.309913
-0.225582
-0.129266
-0.025761
0.0840029
0.201675
0.3265
0.459972
0.587681
0.695592
0.788923
0.858551
0.89258
0.908147
0.899315
0.846236
0.778177
0.736939
-0.456697
-0.391989
-0.324482
-0.241028
-0.14451
-0.0414654
0.0685181
0.185858
0.310284
0.443245
0.570755
0.678657
0.772831
0.848881
0.861823
0.860131
0.813531
0.74558
0.670067
0.628417
-0.423353
-0.406338
-0.34632
-0.262326
-0.167331
-0.0644549
0.0446211
0.161255
0.284612
0.415996
0.541412
0.647264
0.732558
0.81385
0.803177
0.692937
0.592097
0.521074
0.449552
0.481869
-0.455174
-0.424657
-0.363299
-0.280126
-0.185029
-0.0823426
0.0269262
0.1429
0.265179
0.39476
0.517383
0.619151
0.695443
0.738951
0.692549
0.547278
0.424376
0.336138
0.240417
0.291213
-0.479329
-0.44638
-0.38322
-0.299872
-0.204718
-0.102101
0.0070715
0.122211
0.243084
0.370264
0.489121
0.584757
0.65168
0.660157
0.556584
0.389731
0.243369
0.128875
0.00320712
0.0387263
-0.503022
-0.468656
-0.404149
-0.319939
-0.224657
-0.122169
-0.0134953
0.100677
0.219945
0.344337
0.458529
0.54663
0.598066
0.575765
0.420297
0.230518
0.0493937
-0.111281
-0.292943
-0.302079
-0.526218
-0.491363
-0.425917
-0.340957
-0.245468
-0.143172
-0.0351277
0.0779538
0.195364
0.316598
0.42543
0.506047
0.538262
0.480026
0.290757
0.0851428
-0.12162
-0.296791
-0.539988
-0.799933
-0.549744
-0.514828
-0.448827
-0.363348
-0.267628
-0.165465
-0.0579769
0.0539884
0.169443
0.287288
0.390463
0.46283
0.474183
0.365535
0.177368
-0.0303649
-0.230514
-0.391737
-0.467354
-0.573305
-0.574571
-0.539526
-0.473213
-0.387449
-0.29164
-0.189699
-0.0828564
0.027825
0.14101
0.254957
0.352085
0.41357
0.400537
0.25779
0.0757288
-0.115512
-0.279774
-0.369175
-0.391907
-0.408094
-0.60097
-0.56577
-0.49924
-0.41335
-0.317636
-0.216083
-0.110123
-0.00102448
0.10947
0.218862
0.309494
0.356953
0.326283
0.157281
-0.0168458
-0.183517
-0.308844
-0.346486
-0.358332
-0.35955
-0.629154
-0.593723
-0.526966
-0.441043
-0.34556
-0.244618
-0.139791
-0.032607
0.0747549
0.178986
0.262254
0.295107
0.243751
0.0647645
-0.100552
-0.248276
-0.322447
-0.339853
-0.340746
-0.340501
-0.659181
-0.623443
-0.556402
-0.470519
-0.375422
-0.275285
-0.171859
-0.0669338
0.0368715
0.135387
0.210276
0.231258
0.144831
-0.0198308
-0.177028
-0.296898
-0.33377
-0.330971
-0.330206
-0.329575
-0.690754
-0.654756
-0.587444
-0.501685
-0.407124
-0.308022
-0.206289
-0.103974
-0.00414223
0.0881417
0.15439
0.1586
0.0546627
-0.0988627
-0.237496
-0.309519
-0.320605
-0.323644
-0.324221
-0.323874
-0.723315
-0.687178
-0.619839
-0.534299
-0.44047
-0.342657
-0.242914
-0.14359
-0.0480958
0.0375673
0.0949976
0.0843163
-0.0277764
-0.166074
-0.278877
-0.317368
-0.320683
-0.32094
-0.320803
-0.320568
-0.756378
-0.720119
-0.653135
-0.567948
-0.475101
-0.378852
-0.281431
-0.185483
-0.0946999
-0.0156471
0.030835
0.0117945
-0.104471
-0.219715
-0.307988
-0.316402
-0.317051
-0.317918
-0.318292
-0.318249
-0.78906
-0.752871
-0.686368
-0.602043
-0.51045
-0.416106
-0.321357
-0.229143
-0.143488
-0.0708761
-0.0350662
-0.0588261
-0.174954
-0.26067
-0.308802
-0.322971
-0.32057
-0.319001
-0.318435
-0.318298
-0.819732
-0.784309
-0.71858
-0.635614
-0.545718
-0.453689
-0.361995
-0.273809
-0.19364
-0.127563
-0.0962022
-0.138987
-0.241026
-0.30239
-0.304452
-0.321121
-0.325365
-0.324485
-0.323891
-0.323357
-0.846781
-0.812464
-0.748679
-0.667424
-0.579822
-0.49062
-0.402424
-0.318514
-0.243903
-0.184733
-0.155627
-0.217462
-0.31452
-0.350275
-0.352315
-0.351685
-0.344612
-0.340329
-0.339201
-0.338559
-0.868071
-0.835474
-0.77453
-0.696063
-0.611458
-0.525681
-0.44148
-0.362094
-0.292859
-0.240708
-0.21727
-0.285823
-0.395819
-0.466165
-0.458107
-0.425226
-0.396631
-0.383129
-0.378015
-0.37518
-0.881346
-0.851461
-0.794167
-0.719619
-0.639078
-0.557501
-0.477832
-0.4032
-0.339015
-0.293018
-0.274934
-0.340575
-0.466299
-0.606061
-0.551924
-0.49528
-0.471685
-0.457502
-0.445983
-0.442563
-0.883918
-0.858075
-0.80568
-0.736247
-0.660935
-0.584635
-0.510056
-0.440387
-0.380779
-0.338984
-0.317498
-0.361508
-0.446145
-0.649741
-0.577736
-0.489928
-0.454441
-0.440261
-0.435789
-0.434778
-0.873736
-0.852799
-0.806897
-0.74432
-0.675557
-0.605571
-0.536785
-0.472224
-0.416416
-0.376339
-0.340518
-0.319335
-0.263951
-0.313007
-0.330886
-0.349333
-0.369906
-0.376539
-0.379152
-0.379421
-0.848427
-0.832618
-0.796005
-0.742662
-0.682
-0.619297
-0.556867
-0.497501
-0.444886
-0.405427
-0.355307
-0.242256
-0.00296191
0.275805
0.047102
-0.205874
-0.31035
-0.347647
-0.361511
-0.364607
-0.810602
-0.800324
-0.773706
-0.731449
-0.680291
-0.625644
-0.569854
-0.515338
-0.466273
-0.426241
-0.378016
-0.306927
-0.175721
-0.0730953
-0.204556
-0.368596
-0.476253
-0.509478
-0.514084
-0.517745
-0.766917
-0.761056
-0.744821
-0.713461
-0.672349
-0.625451
-0.575984
-0.52597
-0.479451
-0.444128
-0.422434
-0.539545
-0.828995
-1.02692
-1.01686
-1.01292
-0.935908
-0.846487
-0.782012
-0.790526
-0.727021
-0.723549
-0.715531
-0.694183
-0.661162
-0.62075
-0.576158
-0.529119
-0.482706
-0.44766
-0.428304
-0.609628
-1.07149
-1.76597
-2.19834
-2.21931
-2.04072
-1.7611
-1.51628
-1.39313
-0.698113
-0.695961
-0.691993
-0.678255
-0.65123
-0.614545
-0.572265
-0.524897
-0.475435
-0.426278
-0.411793
-0.466179
-0.643337
-0.768826
-0.78737
-0.67431
-0.593374
-0.492808
-0.387569
-0.328169
-0.676423
-0.675646
-0.674477
-0.66733
-0.645433
-0.610336
-0.566569
-0.516447
-0.459661
-0.40065
-0.353728
-0.32742
-0.217905
0.0523699
0.347375
0.592057
0.722715
0.803695
0.844709
0.860379
-0.663657
-0.663289
-0.6628
-0.659686
-0.643022
-0.608191
-0.560872
-0.504937
-0.440985
-0.36539
-0.280051
-0.175892
0.0462261
0.435429
0.829293
1.18021
1.4097
1.52478
1.56962
1.58204
-0.655551
-0.655359
-0.654926
-0.654331
-0.642571
-0.607946
-0.55657
-0.494033
-0.418775
-0.326091
-0.223652
-0.106546
0.149314
0.54973
0.975855
1.35774
1.62261
1.76021
1.81872
1.83635
-0.649994
-0.650143
-0.650213
-0.650162
-0.641842
-0.610069
-0.556635
-0.486791
-0.401055
-0.301729
-0.191467
-0.0852546
0.147459
0.532631
0.92069
1.26854
1.52803
1.67262
1.73502
1.75322
-0.648337
-0.647136
-0.643319
-0.638929
-0.636953
-0.616337
-0.563704
-0.486514
-0.392811
-0.28955
-0.183676
-0.0862808
0.0760044
0.414094
0.755662
1.04601
1.26974
1.39969
1.45671
1.47261
-0.67103
-0.666341
-0.654441
-0.644897
-0.648762
-0.64073
-0.581439
-0.491718
-0.389073
-0.281701
-0.181937
-0.0915667
0.0284648
0.301504
0.57453
0.794046
0.96518
1.06651
1.11147
1.12365
-0.737914
-0.736312
-0.738596
-0.746066
-0.747942
-0.711477
-0.611973
-0.497062
-0.383011
-0.272706
-0.180489
-0.100655
-0.00686541
0.202618
0.406854
0.568485
0.691706
0.764146
0.795297
0.802688
-0.82722
-0.840772
-0.868301
-0.884194
-0.868567
-0.78258
-0.634626
-0.492291
-0.370566
-0.262068
-0.176541
-0.107024
-0.0424962
0.1007
0.25538
0.375363
0.464133
0.515737
0.538322
0.543558
-0.818886
-0.836036
-0.865224
-0.881522
-0.858359
-0.755468
-0.599945
-0.459562
-0.343605
-0.245393
-0.168415
-0.106282
-0.0501433
0.0531207
0.163588
0.245339
0.307148
0.342186
0.356523
0.35904
-0.627718
-0.643816
-0.667856
-0.683169
-0.662626
-0.584343
-0.482616
-0.384171
-0.296368
-0.217848
-0.152421
-0.098412
-0.0474979
0.01738
0.0928578
0.151099
0.194274
0.218818
0.228401
0.228932
-0.337914
-0.346413
-0.361324
-0.377094
-0.379436
-0.358821
-0.323583
-0.279994
-0.232798
-0.181113
-0.131582
-0.0885804
-0.0509009
-0.00824152
0.0406762
0.0814711
0.113438
0.131542
0.138746
0.13854
-0.0949041
-0.0985264
-0.108623
-0.127508
-0.151857
-0.172684
-0.183432
-0.182282
-0.168694
-0.143681
-0.11307
-0.0830122
-0.0576525
-0.0312044
0.00225645
0.0322929
0.0532401
0.0650756
0.0683825
0.0673209
0.0377557
0.0357256
0.0274907
0.0076987
-0.0245281
-0.0605154
-0.0906146
-0.11014
-0.117153
-0.111103
-0.0956199
-0.0773814
-0.0630048
-0.0522513
-0.0334644
-0.0127787
0.00273918
0.0104156
0.0122969
0.0110004
0.0847099
0.0831589
0.0764137
0.0594483
0.0308975
-0.00318637
-0.0361186
-0.0627546
-0.0797529
-0.085906
-0.0827575
-0.0756508
-0.0696068
-0.0654344
-0.0558413
-0.0449231
-0.0371313
-0.0338826
-0.0334327
-0.0347247
0.0883607
0.0871825
0.0821808
0.0695709
0.0479353
0.0206467
-0.00813751
-0.0344752
-0.055463
-0.0695393
-0.0763537
-0.0793356
-0.0817888
-0.0825773
-0.0767769
-0.0708622
-0.0679534
-0.0680757
-0.0690001
-0.0700334
0.0755281
0.0747039
0.0712364
0.0624506
0.0470477
0.0266268
0.00340518
-0.0197928
-0.0408265
-0.0587426
-0.0730217
-0.0855297
-0.0945844
-0.0975609
-0.0947577
-0.0922268
-0.091846
-0.0929891
-0.0939817
-0.0947515
0.0586898
0.0581443
0.0558225
0.0498892
0.03923
0.0244593
0.00660484
-0.0126715
-0.0321982
-0.0518034
-0.0712296
-0.0907009
-0.10517
-0.106868
-0.104281
-0.103726
-0.105173
-0.107741
-0.108979
-0.109526
0.0428128
0.042466
0.0409494
0.0370136
0.0297485
0.0192459
0.00588109
-0.00958243
-0.0267731
-0.0461554
-0.067994
-0.0918542
-0.108687
-0.10852
-0.105585
-0.106255
-0.109109
-0.111933
-0.113092
-0.113442
0.0295292
0.029298
0.0283513
0.0258056
0.0209569
0.0136437
0.00390125
-0.0080023
-0.0221371
-0.0393604
-0.0602828
-0.0836139
-0.0989161
-0.0970281
-0.0956065
-0.0975221
-0.101726
-0.104872
-0.105932
-0.106152
0.0192163
0.0190668
0.0184778
0.0168946
0.0137837
0.00887979
0.0020679
-0.00665754
-0.0174305
-0.0308396
-0.0473389
-0.0652789
-0.0752241
-0.073028
-0.0741783
-0.0789408
-0.084025
-0.0872095
-0.088143
-0.0883227
0.0114964
0.0114118
0.0110732
0.0102025
0.00837312
0.00529962
0.000834798
-0.00505209
-0.0123916
-0.0212211
-0.0307282
-0.039922
-0.044046
-0.0429139
-0.0469924
-0.0535862
-0.0589731
-0.0618013
-0.0625809
-0.0628041
0.00607283
0.00602054
0.00585983
0.00547036
0.00456144
0.00286731
0.000239187
-0.0032793
-0.00745001
-0.0114035
-0.0131877
-0.012244
-0.00701966
-0.00842899
-0.0169663
-0.0255209
-0.0308043
-0.0330401
-0.0337502
-0.0341015
0.00253887
0.00250103
0.00245412
0.00238354
0.00209112
0.00135383
6.32546e-05
-0.00166118
-0.00331383
-0.00332496
0.00156783
0.0126374
0.023536
0.0193167
0.00781846
-0.00103737
-0.00537306
-0.0067805
-0.00754482
-0.00811636
0.000541729
0.000509501
0.000510048
0.000602194
0.000665788
0.000503664
6.73602e-05
-0.000509409
-0.000634091
0.00149556
0.00966929
0.0246649
0.0376331
0.0311873
0.0199539
0.013533
0.0115005
0.0106051
0.00989499
0.00921374
-0.000242387
-0.00027655
-0.000263366
-0.00014242
3.05314e-05
0.000125003
7.59553e-05
4.42822e-05
0.00041355
0.00258765
0.00963962
0.0223849
0.0328088
0.0261057
0.0185394
0.015539
0.0159235
0.0163926
0.0154957
0.0145363
-8.98643e-05
-9.70569e-05
-0.000103711
-0.000113903
-6.19394e-05
2.81346e-05
5.33926e-05
4.92108e-05
7.68053e-05
0.000349379
0.00148665
0.00426701
0.00764974
0.00783532
0.00635932
0.00595494
0.00535309
0.0040066
0.00299974
0.00299362
-0.105782
0.0814282
0.281378
0.449383
0.583552
0.689427
0.777517
0.851611
0.882
0.865809
0.218545
0.341486
0.470193
0.581362
0.675013
0.752659
0.815185
0.859014
0.881761
0.894623
0.437595
0.520971
0.608533
0.68642
0.753254
0.809102
0.853348
0.885932
0.909873
0.927767
0.597083
0.656373
0.71773
0.774635
0.823941
0.865722
0.900066
0.927824
0.950389
0.968664
0.722038
0.764519
0.811495
0.854602
0.893096
0.926718
0.955542
0.979841
0.99966
1.01761
0.825695
0.858701
0.897112
0.932474
0.964904
0.994085
1.01967
1.04136
1.05841
1.07601
0.918138
0.946986
0.980976
1.01313
1.04301
1.07017
1.09399
1.11384
1.12845
1.1459
1.00665
1.03604
1.06998
1.1021
1.13168
1.15827
1.18118
1.19961
1.21226
1.22972
1.10192
1.13548
1.17187
1.20556
1.23557
1.2617
1.28359
1.30067
1.3121
1.3299
1.21677
1.25531
1.29351
1.3277
1.35693
1.38158
1.40185
1.41754
1.42886
1.4472
1.36144
1.40091
1.43645
1.46683
1.49238
1.51442
1.53341
1.54893
1.56157
1.57969
1.53615
1.56819
1.59397
1.61629
1.63633
1.65506
1.67268
1.68922
1.70496
1.72315
1.72374
1.74129
1.75681
1.77339
1.78954
1.80408
1.8171
1.83106
1.84814
1.86782
1.90532
1.91628
1.92842
1.93921
1.94846
1.95802
1.96889
1.98048
1.99042
2.00559
2.11633
2.11834
2.10318
2.08795
2.08157
2.08723
2.10583
2.13624
2.16838
2.19913
2.42224
2.28519
2.20889
2.16679
2.14934
2.15338
2.18073
2.23688
2.34033
2.55561
0.726721
0.723345
0.717418
0.707611
0.694667
0.682243
0.671929
0.663982
0.658326
0.655043
0.654671
0.65741
0.662531
0.669783
0.679223
0.690912
0.704044
0.716036
0.723492
0.728213
0.644735
0.65062
0.657523
0.662761
0.665605
0.665275
0.662368
0.658443
0.654874
0.652582
0.652418
0.654615
0.658301
0.662657
0.666604
0.668605
0.667492
0.663401
0.657508
0.650464
0.637077
0.639424
0.642773
0.645678
0.647892
0.649689
0.650644
0.650384
0.649348
0.648445
0.648603
0.650021
0.651831
0.653107
0.65315
0.651976
0.650166
0.647822
0.644666
0.641702
0.631933
0.633019
0.634883
0.637262
0.639218
0.640605
0.641695
0.642547
0.643008
0.643244
0.643722
0.644496
0.645032
0.644993
0.644465
0.643588
0.642181
0.640121
0.638008
0.636593
0.626836
0.627491
0.628597
0.630314
0.632114
0.633724
0.634982
0.635999
0.63691
0.637719
0.638435
0.638941
0.639074
0.638861
0.638293
0.637257
0.635813
0.634236
0.63291
0.632127
0.621909
0.622364
0.623145
0.624436
0.625923
0.627448
0.628905
0.630178
0.631297
0.632342
0.633236
0.633767
0.633882
0.633595
0.632888
0.631873
0.630724
0.62958
0.628665
0.628144
0.617113
0.617453
0.61806
0.619121
0.620402
0.62177
0.623206
0.624639
0.625988
0.627239
0.628317
0.628975
0.629126
0.628826
0.628197
0.627394
0.626528
0.625655
0.624979
0.624597
0.612406
0.612671
0.61316
0.614061
0.615218
0.616501
0.617883
0.619358
0.620876
0.622363
0.623669
0.624496
0.624758
0.624599
0.624174
0.62359
0.622924
0.622273
0.621776
0.621485
0.607713
0.607924
0.60833
0.60912
0.610196
0.611429
0.612795
0.614309
0.615954
0.617673
0.619255
0.620326
0.62081
0.620882
0.620681
0.62031
0.619843
0.619379
0.619019
0.61879
0.602948
0.603118
0.603466
0.604183
0.605211
0.60642
0.607811
0.609402
0.611194
0.613156
0.615065
0.616474
0.617266
0.617611
0.61765
0.617498
0.617233
0.616935
0.61669
0.616507
0.598028
0.598166
0.598472
0.599143
0.600153
0.601384
0.602838
0.604548
0.606538
0.608796
0.611104
0.612936
0.614098
0.61476
0.615069
0.615147
0.615082
0.614943
0.614793
0.614646
0.592866
0.592977
0.593255
0.593907
0.594933
0.59623
0.59779
0.599673
0.60193
0.604562
0.607364
0.609706
0.611301
0.612327
0.61294
0.613266
0.613403
0.613425
0.613358
0.613238
0.587369
0.587458
0.58772
0.588376
0.589456
0.590861
0.592582
0.594705
0.597308
0.600421
0.603832
0.606784
0.608889
0.610332
0.611285
0.611901
0.612262
0.612429
0.612435
0.612338
0.581436
0.581503
0.581759
0.582443
0.583613
0.585173
0.587119
0.589563
0.592606
0.596324
0.600481
0.604166
0.606876
0.608809
0.610152
0.611087
0.611692
0.612018
0.612093
0.612013
0.574941
0.574989
0.575246
0.575979
0.577281
0.579053
0.581296
0.584149
0.587751
0.592214
0.597281
0.601853
0.605287
0.607799
0.609597
0.610887
0.611774
0.61227
0.612414
0.612349
0.567738
0.567768
0.568029
0.568836
0.570313
0.572361
0.574984
0.578357
0.58266
0.588043
0.594218
0.599859
0.604156
0.607354
0.609691
0.611401
0.61261
0.613288
0.6135
0.613446
0.559641
0.559659
0.559922
0.560827
0.562532
0.564921
0.568035
0.572073
0.577258
0.583778
0.591302
0.598224
0.603545
0.607546
0.610519
0.612736
0.614304
0.615183
0.615464
0.61542
0.550347
0.550335
0.55066
0.551699
0.553687
0.556527
0.560272
0.56515
0.571441
0.579375
0.58854
0.596986
0.603513
0.60846
0.612179
0.61499
0.616975
0.618077
0.61843
0.618393
0.53958
0.539541
0.539911
0.541142
0.543497
0.54692
0.551465
0.557408
0.565082
0.574754
0.585906
0.596172
0.604124
0.61019
0.614787
0.618285
0.620751
0.622096
0.622522
0.622489
0.526866
0.526802
0.527248
0.528727
0.531563
0.535745
0.541326
0.548637
0.558063
0.569888
0.583439
0.595858
0.605467
0.612829
0.618456
0.622745
0.625758
0.627365
0.627862
0.627828
0.511575
0.511483
0.51205
0.513877
0.517357
0.522553
0.529512
0.538615
0.550287
0.564785
0.581211
0.596141
0.607654
0.616492
0.623307
0.62849
0.632109
0.633986
0.634547
0.634507
0.492779
0.49266
0.493425
0.495758
0.500144
0.506751
0.515594
0.52709
0.541658
0.559468
0.579304
0.597111
0.610781
0.621285
0.629412
0.635613
0.639879
0.642021
0.642629
0.642576
0.46908
0.468947
0.47004
0.473158
0.478908
0.487577
0.499089
0.513839
0.53214
0.553992
0.577816
0.598882
0.614942
0.627285
0.636849
0.644162
0.649091
0.651466
0.652093
0.652018
0.438183
0.438073
0.439769
0.444246
0.452273
0.464151
0.479589
0.49882
0.521931
0.548676
0.577052
0.60167
0.62027
0.634564
0.645678
0.654152
0.659683
0.662214
0.662819
0.662712
0.395979
0.396034
0.399052
0.40636
0.418623
0.435756
0.457003
0.482268
0.511345
0.54378
0.577187
0.605601
0.626854
0.643162
0.655857
0.665478
0.671468
0.674014
0.67454
0.674395
0.334782
0.335963
0.343338
0.357038
0.377033
0.402512
0.431921
0.464853
0.500988
0.539783
0.578533
0.610816
0.634717
0.653
0.667205
0.677796
0.684052
0.686396
0.68675
0.686573
0.261753
0.263783
0.278016
0.30161
0.332363
0.367702
0.406032
0.447167
0.490907
0.53676
0.58176
0.618893
0.64631
0.667214
0.683342
0.695112
0.701608
0.703869
0.704203
0.704116
0.186527
0.192853
0.214035
0.247728
0.288837
0.333783
0.381011
0.430408
0.481849
0.534887
0.586342
0.628521
0.659578
0.683287
0.701561
0.714311
0.720693
0.72262
0.722876
0.722849
0.125118
0.133566
0.159274
0.200002
0.249202
0.302334
0.357611
0.41477
0.473587
0.533555
0.59119
0.63812
0.67253
0.698679
0.718602
0.732099
0.738518
0.740325
0.740713
0.74075
0.0750332
0.0840929
0.113339
0.15928
0.214587
0.274302
0.336383
0.400389
0.465933
0.532386
0.59587
0.647288
0.684823
0.713224
0.734686
0.749115
0.755844
0.758087
0.758582
0.758655
0.0330485
0.0423855
0.0740767
0.124027
0.184337
0.249517
0.317348
0.387324
0.458909
0.531336
0.600303
0.655953
0.696437
0.727015
0.750077
0.765461
0.772915
0.775503
0.776074
0.776171
-0.00321952
0.00623719
0.0397762
0.0929385
0.157389
0.227239
0.300084
0.375342
0.452379
0.530297
0.604382
0.664004
0.707264
0.739868
0.764415
0.780778
0.788912
0.791733
0.79239
0.792484
-0.0354261
-0.0259152
0.00905206
0.0649332
0.132857
0.206732
0.284013
0.364024
0.446047
0.529059
0.607953
0.67131
0.717155
0.751556
0.777355
0.794569
0.803352
0.806453
0.807134
0.807218
-0.0648215
-0.0552464
-0.0191077
0.0391227
0.110032
0.187432
0.268656
0.352982
0.439605
0.527404
0.610862
0.677771
0.726015
0.762065
0.788899
0.806785
0.816038
0.819365
0.820095
0.820167
-0.0922502
-0.0826088
-0.0454092
0.0148183
0.0883916
0.168917
0.253665
0.341914
0.432805
0.525129
0.612987
0.683341
0.733879
0.771446
0.799219
0.817595
0.827108
0.830605
0.831378
0.831432
-0.118266
-0.108534
-0.0703324
-0.00842908
0.0675625
0.150867
0.238787
0.330614
0.425469
0.522096
0.614254
0.688026
0.74083
0.779841
0.808476
0.827196
0.836832
0.840414
0.8412
0.84121
-0.143341
-0.133416
-0.0943691
-0.0308489
0.0472857
0.133067
0.223853
0.318944
0.417487
0.518216
0.614601
0.691834
0.746946
0.787406
0.816803
0.835778
0.84544
0.849
0.849764
0.849756
-0.16771
-0.157553
-0.117742
-0.0526227
0.0273913
0.115385
0.208755
0.306826
0.408784
0.51342
0.613985
0.694769
0.752316
0.794302
0.824422
0.843546
0.853178
0.856683
0.857394
0.857358
-0.191471
-0.181092
-0.140429
-0.0739204
0.00778139
0.0977631
0.193448
0.29422
0.399327
0.507659
0.612357
0.696834
0.757018
0.800658
0.83148
0.85068
0.860213
0.863594
0.864223
0.86416
-0.214751
-0.204064
-0.162618
-0.0948063
-0.0115818
0.080171
0.177923
0.281128
0.389118
0.500921
0.609666
0.698
0.761101
0.806582
0.83812
0.857312
0.866632
0.869803
0.870313
0.870203
-0.237532
-0.226552
-0.184333
-0.115304
-0.0306987
0.062627
0.162218
0.267592
0.378186
0.493201
0.605872
0.698214
0.764571
0.812168
0.844494
0.863563
0.872482
0.875322
0.875684
0.875538
-0.259858
-0.248546
-0.205511
-0.135387
-0.0495442
0.045169
0.146379
0.253674
0.366587
0.484525
0.600943
0.697405
0.76737
0.817476
0.850814
0.869672
0.877911
0.880228
0.880406
0.880232
-0.281535
-0.269971
-0.226139
-0.155014
-0.0680655
0.0278714
0.130474
0.239448
0.3544
0.474956
0.594865
0.695486
0.769389
0.822507
0.857327
0.876031
0.883214
0.884636
0.884518
0.884326
-0.302699
-0.290778
-0.246195
-0.174157
-0.086227
0.010776
0.114601
0.225002
0.341714
0.464577
0.587651
0.692357
0.770463
0.82714
0.864195
0.883216
0.889064
0.88891
0.8881
0.887894
-0.323188
-0.310936
-0.26565
-0.192765
-0.103947
-0.00602968
0.0988433
0.210456
0.328642
0.45346
0.579347
0.687922
0.770392
0.831111
0.871309
0.891802
0.896791
0.894351
0.891731
0.89077
-0.343049
-0.330488
-0.284444
-0.210781
-0.121187
-0.0224748
0.0832877
0.195893
0.315298
0.441745
0.570029
0.682089
0.768958
0.834023
0.878092
0.901729
0.907897
0.904177
0.897693
0.88862
-0.362204
-0.349396
-0.302659
-0.228365
-0.138161
-0.0388381
0.0675971