/*--------------------------------*- C++ -*----------------------------------*\
| =========                 |                                                 |
| \\      /  F ield         | OpenFOAM: The Open Source CFD Toolbox           |
|  \\    /   O peration     | Version:  2306                                  |
|   \\  /    A nd           | Website:  www.openfoam.com                      |
|    \\/     M anipulation  |                                                 |
\*---------------------------------------------------------------------------*/
FoamFile
{
    version     2.0;
    format      ascii;
    arch        "LSB;label=32;scalar=64";
    class       surfaceScalarField;
    location    "52";
    object      phi;
}
// * * * * * * * * * * * * * * * * * * * * * * * * * * * * * * * * * * * * * //

dimensions      [0 3 -1 0 0 0 0];

oriented        oriented;

internalField   nonuniform List<scalar> 
17370
(
-0.0910991
0.0935458
0.286564
-0.0749555
0.0569559
0.364775
-0.0409396
0.0299562
0.427152
-0.0212022
0.0156029
0.504851
-0.011354
0.00865517
0.602101
-0.0065232
0.00507079
0.72051
-0.0038522
0.00298091
0.863778
-0.00221305
0.00163737
1.03603
-0.00110745
0.000687523
1.24292
-0.000277587
-0.000114808
1.49158
0.000499902
-0.000911695
1.4916
0.00131362
-0.0018154
1.24319
0.002363
-0.00310174
1.03638
0.00395204
-0.00515574
0.86411
0.00660051
-0.00872656
0.721184
0.0114191
-0.0156594
0.603455
0.0212499
-0.0299941
0.508183
0.0409682
-0.0569763
0.432176
0.0749715
-0.0935551
0.365359
0.0911117
0.197899
-0.127346
0.0881427
0.0392036
-0.364736
0.353788
-0.0726315
0.0835798
-0.446565
0.454368
-0.0817154
0.073913
-0.520971
0.529523
-0.0658053
0.0572535
-0.61285
0.621015
-0.0495035
0.0413383
-0.727001
0.733789
-0.0344113
0.0276228
-0.867514
0.872451
-0.0222804
0.0173436
-1.03855
1.0419
-0.0136232
0.0102694
-1.24471
1.24712
-0.00771335
0.00530128
-1.49284
1.49485
-0.00333391
0.00131726
-1.49269
1.49451
0.000503648
-0.00232458
-1.2441
1.24602
0.00430025
-0.0062144
-1.0376
1.04008
0.00855665
-0.0110427
-0.866159
0.869812
0.0143172
-0.0179694
-0.724479
0.729774
0.0228423
-0.0281369
-0.608888
0.615775
0.03488
-0.041767
-0.51499
0.522697
0.0498875
-0.057595
-0.439772
0.447831
0.0660953
-0.0741537
-0.375156
0.377
0.0818962
-0.0837397
-0.256917
0.223421
0.0727429
-0.0392465
-0.0686515
0.0589205
0.00973093
-0.052082
0.0587797
-0.374541
0.367843
-0.0578954
0.0540701
-0.453828
0.457654
-0.0487137
0.044376
-0.527744
0.532081
-0.0401541
0.0363722
-0.621103
0.624885
-0.0321486
0.0280763
-0.734877
0.738949
-0.023602
0.0196073
-0.874048
0.878043
-0.0154682
0.0119501
-1.0434
1.04692
-0.00838116
0.0053157
-1.24866
1.25173
-0.00207923
-0.000922755
-1.49695
1.49995
0.00390387
-0.00707993
-1.49743
1.50061
0.0100578
-0.013509
-1.2501
1.25355
0.0169092
-0.020914
-1.04573
1.04973
0.0247903
-0.0291469
-0.87732
0.881676
0.0331249
-0.037257
-0.739313
0.743445
0.0409616
-0.0451056
-0.626344
0.630488
0.0493773
-0.0546697
-0.534937
0.54023
0.058425
-0.0592207
-0.457921
0.458716
0.0524117
-0.0320375
-0.336397
0.316023
0.00978624
-0.068504
0.0587178
-0.053161
0.0491108
0.00405024
-0.0331725
0.0436679
-0.358371
0.347875
-0.0473874
0.0468023
-0.459511
0.460096
-0.0438273
0.0405589
-0.536025
0.539294
-0.036849
0.0335134
-0.628445
0.631781
-0.0299469
0.0267941
-0.742259
0.745412
-0.0234411
0.0202704
-0.881578
0.884749
-0.0166698
0.0132885
-1.0504
1.05378
-0.00955082
0.00610981
-1.25503
1.25847
-0.00228091
-0.00137087
-1.50333
1.50698
0.00499182
-0.00873114
-1.50414
1.50788
0.0120505
-0.015624
-1.25716
1.26074
0.018839
-0.022249
-1.0535
1.05691
0.0252503
-0.0284332
-0.885287
0.88847
0.0314489
-0.0348813
-0.746937
0.750369
0.0381048
-0.0416989
-0.634503
0.638097
0.0448674
-0.0477297
-0.544459
0.547321
0.0481972
-0.0443123
-0.456886
0.453001
0.0336184
-0.0162598
-0.296655
0.279296
0.00411729
-0.0528982
0.048781
-0.0459886
0.0434626
0.00252601
-0.0229327
0.0333027
-0.337234
0.326864
-0.0390874
0.0400748
-0.459808
0.45882
-0.0388596
0.0365611
-0.541967
0.544266
-0.0339207
0.0313579
-0.634777
0.63734
-0.0283505
0.0254908
-0.748476
0.751335
-0.0222552
0.0192583
-0.887749
0.890746
-0.0159397
0.0128291
-1.05695
1.06006
-0.00928192
0.00587405
-1.26189
1.2653
-0.00194446
-0.00187724
-1.51075
1.51457
0.00565958
-0.0094693
-1.51169
1.5155
0.0127165
-0.0160489
-1.26421
1.26754
0.0189429
-0.0220133
-1.06007
1.06314
0.0247867
-0.027793
-0.891616
0.894622
0.0304639
-0.0332865
-0.753558
0.756381
0.0356955
-0.0381805
-0.641101
0.643586
0.0403464
-0.0413861
-0.54914
0.55018
0.0402162
-0.034165
-0.447806
0.441754
0.0235037
-0.0102872
-0.264116
0.2509
0.00260842
-0.0455843
0.0429759
-0.0413637
0.0395764
0.00178733
-0.0168685
0.0261496
-0.316994
0.307713
-0.0327646
0.0349038
-0.457237
0.455097
-0.0344836
0.0328024
-0.546269
0.54795
-0.0306015
0.0284962
-0.639639
0.641744
-0.0260721
0.023692
-0.753949
0.756329
-0.0208631
0.0181063
-0.893603
0.89636
-0.0149154
0.0118825
-1.06309
1.06612
-0.00842418
0.00511573
-1.26861
1.27192
-0.00128072
-0.00246838
-1.51835
1.5221
0.00616668
-0.00985182
-1.51925
1.52294
0.0129574
-0.0161435
-1.2708
1.27399
0.0189011
-0.021775
-1.06616
1.06903
0.0242435
-0.026774
-0.897424
0.899955
0.0289089
-0.0310943
-0.758833
0.761019
0.0330033
-0.0350046
-0.645781
0.647782
0.0364923
-0.0366741
-0.55074
0.550921
0.0342548
-0.0272509
-0.435139
0.428135
0.0175793
-0.00742837
-0.239363
0.229212
0.00188787
-0.0407862
0.0388984
-0.0380364
0.0366917
0.00134475
-0.0128965
0.0208854
-0.299083
0.291094
-0.0276622
0.0305975
-0.452531
0.449596
-0.0308139
0.029699
-0.54938
0.550495
-0.0277095
0.0257945
-0.643786
0.645701
-0.0235968
0.0214672
-0.758558
0.760688
-0.0189688
0.0165033
-0.898911
0.901377
-0.0135807
0.0107227
-1.06902
1.07188
-0.00739113
0.00417635
-1.27515
1.27836
-0.000449122
-0.00317394
-1.52576
1.52938
0.00673384
-0.0102733
-1.52655
1.53009
0.0132349
-0.0162262
-1.27711
1.2801
0.0187383
-0.0212625
-1.07176
1.07428
0.0233668
-0.0254911
-0.902267
0.904392
0.0273103
-0.0292035
-0.763044
0.764937
0.0308704
-0.0326212
-0.649635
0.651386
0.0334535
-0.0329036
-0.550742
0.550192
0.0295683
-0.0222599
-0.420922
0.413614
0.0137706
-0.00574393
-0.220224
0.212198
0.00146712
-0.0372478
0.0357807
-0.0355162
0.0344789
0.00103734
-0.0100898
0.0168536
-0.283744
0.27698
-0.0233758
0.0267717
-0.446411
0.443015
-0.0275688
0.0268843
-0.551387
0.552072
-0.0251324
0.0233597
-0.647587
0.64936
-0.0213074
0.0193091
-0.76275
0.764748
-0.0169573
0.0146485
-0.903694
0.906002
-0.0119311
0.00926324
-1.07457
1.07724
-0.00612079
0.00305172
-1.28146
1.28453
0.000534649
-0.00402211
-1.53291
1.5364
0.00743269
-0.0107866
-1.53353
1.53688
0.0135421
-0.0162633
-1.28297
1.28569
0.0185044
-0.0207303
-1.07667
1.0789
0.0225918
-0.0244789
-0.90641
0.908297
0.0260916
-0.0277659
-0.766723
0.768398
0.0292313
-0.0306538
-0.652989
0.654411
0.0309854
-0.0297183
-0.549294
0.548027
0.0257716
-0.0185511
-0.406325
0.399104
0.0111596
-0.00462373
-0.204987
0.198451
0.00118617
-0.0344711
0.033285
-0.0335669
0.0327571
0.000809792
-0.00801036
0.0137037
-0.270781
0.265087
-0.0197491
0.0233505
-0.439507
0.435905
-0.0246325
0.0242001
-0.552665
0.553097
-0.0227231
0.0210644
-0.65113
0.652789
-0.0191123
0.0172062
-0.766698
0.768604
-0.0149565
0.0127445
-0.908196
0.910408
-0.0101388
0.00759078
-1.07977
1.08232
-0.00460365
0.00168512
-1.28747
1.29039
0.00172879
-0.00504749
-1.53977
1.54309
0.00827267
-0.0114032
-1.54012
1.54325
0.0139382
-0.0164114
-1.2883
1.29078
0.0184366
-0.0204379
-1.08104
1.08304
0.0220988
-0.0237755
-0.910102
0.911779
0.0252065
-0.0266918
-0.769984
0.771469
0.027968
-0.0290222
-0.655623
0.656678
0.0289897
-0.0270646
-0.546433
0.544508
0.0227302
-0.0157906
-0.39202
0.38508
0.00931809
-0.00384566
-0.192498
0.187026
0.000990763
-0.0322101
0.0312193
-0.0320446
0.0314106
0.000634071
-0.00640893
0.0111884
-0.259879
0.255099
-0.0166511
0.0202621
-0.432298
0.428688
-0.0218778
0.0216786
-0.553453
0.553652
-0.0204425
0.0188488
-0.654469
0.656062
-0.0169586
0.0151078
-0.770477
0.772328
-0.0129244
0.0107788
-0.912509
0.914654
-0.00825205
0.00578451
-1.08475
1.08721
-0.00290093
0.000104151
-1.29319
1.29599
0.0031542
-0.0062967
-1.54628
1.54943
0.00932248
-0.0122312
-1.54625
1.54916
0.014568
-0.0168287
-1.29316
1.29542
0.0186606
-0.0204503
-1.08497
1.08676
0.0219207
-0.0234007
-0.913385
0.914865
0.0246673
-0.025981
-0.77288
0.774194
0.0271129
-0.0277612
-0.657508
0.658157
0.0273674
-0.0248964
-0.542323
0.539852
0.0203324
-0.0137435
-0.378327
0.371738
0.00800364
-0.00329774
-0.181976
0.177271
0.000853818
-0.0303089
0.0294551
-0.0308559
0.0303639
0.00049202
-0.00512194
0.00911418
-0.250739
0.246747
-0.0139499
0.0174223
-0.425154
0.421682
-0.019233
0.0192334
-0.5538
0.553799
-0.0182016
0.0166487
-0.657707
0.65926
-0.0147877
0.0129586
-0.774158
0.775987
-0.0108019
0.00868889
-0.916694
0.918807
-0.00621059
0.00380042
-1.08956
1.09197
-0.000992334
-0.0017148
-1.29868
1.30138
0.00483776
-0.00782055
-1.55244
1.55543
0.0106622
-0.0133643
-1.55194
1.55464
0.0155094
-0.0175576
-1.29759
1.29964
0.0191958
-0.020777
-1.0885
1.09008
0.0220665
-0.0233673
-0.916287
0.917588
0.0244881
-0.0256466
-0.775441
0.7766
0.0265915
-0.0268769
-0.658599
0.658885
0.0261001
-0.0231738
-0.537164
0.534237
0.0184838
-0.0122431
-0.365343
0.359103
0.00706956
-0.00291511
-0.172875
0.168721
0.000759698
-0.02866
0.0279003
-0.0299393
0.0295671
0.00037218
-0.0040457
0.00734733
-0.243124
0.239822
-0.0115448
0.0147696
-0.41835
0.415125
-0.0166498
0.0168144
-0.553774
0.553609
-0.0158727
0.0144003
-0.660853
0.662325
-0.0125427
0.0107052
-0.777805
0.779642
-0.00854017
0.00642741
-0.920817
0.92293
-0.0039624
0.00157751
-1.09427
1.09665
0.00117718
-0.00381719
-1.30399
1.30663
0.00683389
-0.00967968
-1.55829
1.56114
0.0123546
-0.0148604
-1.55722
1.55973
0.0168187
-0.0186594
-1.3016
1.30344
0.0201097
-0.0214881
-1.09162
1.093
0.0225991
-0.0237219
-0.918839
0.919962
0.0246951
-0.0256883
-0.777693
0.778686
0.0263882
-0.0263762
-0.659026
0.659014
0.0252029
-0.0218807
-0.531123
0.527801
0.0171154
-0.011175
-0.353041
0.347101
0.0064233
-0.00265687
-0.164793
0.161027
0.000698133
-0.0271835
0.0264853
-0.029255
0.0289894
0.000265599
-0.00310442
0.00578363
-0.236854
0.234175
-0.0093432
0.0122371
-0.412089
0.409196
-0.0140737
0.0143316
-0.553462
0.553204
-0.0134445
0.0120264
-0.663858
0.665276
-0.0101537
0.00828201
-0.781473
0.783345
-0.00607636
0.00393164
-0.924942
0.927087
-0.00144164
-0.000943386
-1.09893
1.10131
0.00368567
-0.00628727
-1.30917
1.31177
0.00922408
-0.0119546
-1.56387
1.5666
0.0144777
-0.0167947
-1.56211
1.56443
0.0185688
-0.0202017
-1.30519
1.30683
0.0214616
-0.0226324
-1.09434
1.09552
0.0235602
-0.0245032
-0.921045
0.921988
0.0253303
-0.0261531
-0.779599
0.780422
0.0265824
-0.0263166
-0.658869
0.658603
0.0247087
-0.0210097
-0.524312
0.520613
0.0161774
-0.0104627
-0.341313
0.335598
0.00600556
-0.00249682
-0.157423
0.153914
0.000662421
-0.0258181
0.0251557
-0.0287806
0.028616
0.000164583
-0.00223389
0.00432888
-0.231809
0.229714
-0.00724498
0.00973763
-0.40653
0.404037
-0.011423
0.0116967
-0.553013
0.55274
-0.0108318
0.0094307
-0.666789
0.66819
-0.00751611
0.0055814
-0.785214
0.787149
-0.00330083
0.00109269
-0.929127
0.931335
0.00145302
-0.00387793
-1.1036
1.10603
0.00663527
-0.00922259
-1.31428
1.31687
0.0121019
-0.0147306
-1.56923
1.57185
0.0171086
-0.019239
-1.56662
1.56875
0.0208287
-0.0222496
-1.30837
1.30979
0.0233116
-0.0242604
-1.09667
1.09762
0.0249873
-0.0257324
-0.922889
0.923634
0.0264016
-0.0270759
-0.781154
0.781828
0.0272066
-0.0265929
-0.658111
0.657497
0.0245712
-0.0205199
-0.516782
0.512731
0.0156096
-0.0100395
-0.330005
0.324435
0.005769
-0.00241413
-0.150518
0.147163
0.000647124
-0.0245151
0.023868
-0.0285078
0.0284451
6.27067e-05
-0.00138481
0.00290961
-0.227924
0.2264
-0.0051679
0.00719617
-0.401808
0.399779
-0.00862868
0.00883857
-0.552589
0.552379
-0.0079525
0.0065346
-0.669722
0.67114
-0.00454179
0.00251498
-0.789082
0.791109
-0.000125274
-0.00218114
-0.933436
0.935742
0.00482195
-0.00732
-1.10835
1.11085
0.0101304
-0.0127326
-1.31936
1.32197
0.0155787
-0.0181197
-1.57438
1.57692
0.0203575
-0.022298
-1.57075
1.57269
0.0236958
-0.0248944
-1.31111
1.3123
0.0257488
-0.0264627
-1.09856
1.09928
0.0269711
-0.0274972
-0.924347
0.924874
0.0280007
-0.0284781
-0.782349
0.782826
0.0283252
-0.02731
-0.656627
0.655612
0.0248494
-0.0204235
-0.508561
0.504135
0.0153916
-0.00987237
-0.318953
0.313433
0.00568887
-0.00239813
-0.14388
0.140589
0.000649632
-0.023236
0.0225863
-0.0284393
0.0284854
-4.61721e-05
-0.000509898
0.00145865
-0.225181
0.224233
-0.00303112
0.00452963
-0.398048
0.39655
-0.0056062
0.00566872
-0.552355
0.552293
-0.00470705
0.00322015
-0.672734
0.674221
-0.00112013
-0.00103589
-0.793134
0.79529
0.0035786
-0.00601822
-0.937941
0.940381
0.00879581
-0.0114004
-1.11326
1.11586
0.0142997
-0.0169465
-1.32448
1.32713
0.0197864
-0.0222557
-1.57935
1.58182
0.0243583
-0.0261025
-1.57449
1.57623
0.0272945
-0.0282503
-1.31339
1.31434
0.0288768
-0.0293379
-1.09999
1.10045
0.029614
-0.0299027
-0.925379
0.925668
0.0302142
-0.030425
-0.783033
0.783244
0.0300067
-0.0285061
-0.654319
0.652818
0.0255652
-0.0207285
-0.49961
0.494773
0.0155147
-0.00994561
-0.307965
0.302396
0.0057533
-0.00244357
-0.137334
0.134025
0.000668547
-0.0219455
0.021277
-0.0285868
0.0287484
-0.000161584
0.000412491
-7.14983e-05
-0.223605
0.223264
-0.000765237
0.00165126
-0.39538
0.394494
-0.0022667
0.0020962
-0.552488
0.552659
-0.00099949
-0.000623055
-0.675938
0.677561
0.00288749
-0.00521871
-0.797449
0.79978
0.00795985
-0.0105757
-0.942716
0.945332
0.0135347
-0.0162859
-1.11837
1.12113
0.0193135
-0.0220338
-1.32969
1.33241
0.0248893
-0.0272947
-1.58418
1.58658
0.0292567
-0.0307876
-1.57783
1.57936
0.0317555
-0.03244
-1.31516
1.31584
0.0328135
-0.0330014
-1.10091
1.1011
0.0330283
-0.0330583
-0.925934
0.925964
0.0331592
-0.0330465
-0.783091
0.782978
0.0322975
-0.0302233
-0.65107
0.648996
0.0267549
-0.0214475
-0.489846
0.484538
0.0159724
-0.0102453
-0.296837
0.29111
0.00595111
-0.00254492
-0.130717
0.127311
0.000702195
-0.0206118
0.0199097
-0.0289893
0.0292908
-0.000301542
0.00140868
-0.00171768
-0.223282
0.223591
0.00172248
-0.00155352
-0.393931
0.393762
0.00152783
-0.00203699
-0.5532
0.553709
0.00335225
-0.0051614
-0.679471
0.68128
0.0076395
-0.0101912
-0.802107
0.804659
0.0131851
-0.0160292
-0.947846
0.95069
0.0192258
-0.0221707
-1.12379
1.12674
0.0253694
-0.0281927
-1.33505
1.33787
0.0310826
-0.0334278
-1.58887
1.59121
0.0352385
-0.0365268
-1.58071
1.582
0.0372457
-0.0376225
-1.31637
1.31675
0.0377146
-0.0375996
-1.10124
1.10112
0.0373496
-0.0370948
-0.925943
0.925689
0.0369764
-0.0364328
-0.782405
0.781861
0.0352606
-0.0325384
-0.646737
0.644015
0.0284683
-0.0226042
-0.479139
0.473275
0.0167705
-0.0107686
-0.285351
0.279349
0.00627797
-0.0026995
-0.123875
0.120297
0.000749617
-0.0192061
0.0184565
-0.029665
0.0301422
-0.000477198
0.00268967
-0.00374394
-0.224285
0.225339
0.00461601
-0.00524127
-0.393931
0.394556
0.00593668
-0.00689477
-0.554724
0.555682
0.00850813
-0.0105665
-0.683428
0.685486
0.013334
-0.016174
-0.807208
0.810048
0.0194927
-0.0226271
-0.953438
0.956573
0.026123
-0.0293102
-1.12961
1.13279
0.032723
-0.0356748
-1.34061
1.34356
0.0386075
-0.040879
-1.59342
1.5957
0.0425065
-0.0435142
-1.58308
1.58409
0.0439258
-0.0439669
-1.31693
1.31697
0.0437425
-0.0432871
-1.1009
1.10044
0.042727
-0.0421514
-0.925326
0.92475
0.0417226
-0.0407234
-0.780813
0.779814
0.0390119
-0.0355411
-0.64116
0.637689
0.0307696
-0.0242321
-0.467306
0.460769
0.017922
-0.0115168
-0.273268
0.266863
0.00673202
-0.00290554
-0.116658
0.112831
0.000810116
-0.0177013
0.0168912
-0.030692
0.0313853
-0.000693322
0.00417055
-0.00610932
-0.226818
0.228757
0.00805645
-0.00957725
-0.395594
0.397114
0.011093
-0.0126282
-0.557314
0.558849
0.0146834
-0.0170889
-0.687966
0.690372
0.0202578
-0.0234662
-0.812889
0.816098
0.0271895
-0.0306808
-0.959618
0.963109
0.034541
-0.0380194
-1.13591
1.13939
0.0416837
-0.0447802
-1.34643
1.34952
0.0477504
-0.0499197
-1.59781
1.59998
0.051318
-0.0519903
-1.58486
1.58553
0.0520305
-0.0516841
-1.31676
1.31642
0.0510939
-0.0502497
-1.0998
1.09896
0.04934
-0.0483935
-0.924001
0.923054
0.0475506
-0.0460573
-0.778276
0.776782
0.0436736
-0.0393267
-0.634123
0.629776
0.0337238
-0.026363
-0.454106
0.446745
0.0194374
-0.0124882
-0.260331
0.253381
0.00730777
-0.00315841
-0.108915
0.104765
0.00088161
-0.0160725
0.0151909
-0.0321492
0.0331289
-0.000979685
0.00604713
-0.00904869
-0.231135
0.234137
0.012236
-0.0148131
-0.399178
0.401756
0.0172974
-0.0195366
-0.561246
0.563486
0.0221759
-0.025054
-0.693288
0.696166
0.0287366
-0.0324143
-0.819314
0.822991
0.0366428
-0.0405738
-0.966523
0.970454
0.044875
-0.048696
-1.1428
1.14662
0.0526422
-0.0558833
-1.35251
1.35575
0.0588598
-0.0608692
-1.60195
1.60396
0.0619634
-0.0622095
-1.58592
1.58616
0.0618222
-0.0609926
-1.31573
1.3149
0.0599722
-0.0586728
-1.09782
1.09653
0.0573612
-0.0560164
-0.92186
0.920516
0.0546549
-0.0525655
-0.774712
0.772623
0.0493862
-0.0439908
-0.625349
0.619954
0.0373878
-0.0290188
-0.439236
0.430867
0.0213166
-0.0136712
-0.246256
0.238611
0.00799205
-0.00344927
-0.1005
0.0959574
0.00096069
-0.0142995
0.0133388
-0.0341669
0.035539
-0.0013721
0.00849854
-0.0128477
-0.237567
0.241916
0.0175185
-0.0213255
-0.405058
0.408865
0.0249401
-0.0280313
-0.56685
0.569941
0.0314305
-0.0349344
-0.699655
0.703159
0.0392917
-0.0435647
-0.826684
0.830957
0.0484156
-0.052872
-0.974323
0.97878
0.0576788
-0.0618687
-1.15036
1.15455
0.0660875
-0.0694312
-1.35885
1.3622
0.0723314
-0.0740775
-1.60572
1.60746
0.0747502
-0.074446
-1.58606
1.58575
0.0735409
-0.0721089
-1.3136
1.31217
0.0705941
-0.0687743
-1.09482
1.093
0.0670146
-0.0652052
-0.91881
0.917001
0.0632338
-0.0604266
-0.769913
0.767106
0.0562739
-0.0496116
-0.614487
0.607825
0.0417981
-0.0321972
-0.42233
0.412729
0.023536
-0.0150341
-0.230746
0.222244
0.00875735
-0.00376215
-0.09128
0.0862848
0.00104174
-0.01237
0.0113282
-0.0369401
0.0388733
-0.00193321
0.0119113
-0.017962
-0.246629
0.252679
0.0244261
-0.029675
-0.413718
0.418967
0.0346285
-0.0387628
-0.574513
0.578648
0.0431419
-0.0474801
-0.707397
0.711736
0.0527145
-0.0577253
-0.835249
0.84026
0.0633118
-0.0683561
-0.983182
0.988226
0.0736887
-0.0782196
-1.15863
1.16317
0.0826299
-0.0859585
-1.36532
1.36865
0.0886119
-0.0899093
-1.60884
1.61014
0.0899781
-0.08895
-1.585
1.58397
0.0873723
-0.0852409
-1.31019
1.30806
0.0831368
-0.0807536
-1.09064
1.08826
0.0785153
-0.0760954
-0.914694
0.912274
0.0735106
-0.0697626
-0.763562
0.759814
0.0644219
-0.0562244
-0.601081
0.592884
0.0469465
-0.0358527
-0.402948
0.391854
0.0260312
-0.0165121
-0.213493
0.203974
0.00955323
-0.00406994
-0.0811506
0.0756673
0.00111583
-0.0102842
0.00916838
-0.0407912
0.0435967
-0.00280543
0.0168562
-0.025156
-0.259032
0.267332
0.0338424
-0.040824
-0.425825
0.432807
0.0474033
-0.0528105
-0.584721
0.590128
0.0584291
-0.06385
-0.716943
0.722364
0.070183
-0.0760541
-0.845277
0.851148
0.0824319
-0.0880455
-0.993193
0.998806
0.0938149
-0.098549
-1.16751
1.17224
0.102946
-0.106036
-1.37164
1.37473
0.10817
-0.108758
-1.61093
1.61152
0.10798
-0.106005
-1.58238
1.5804
0.103589
-0.100597
-1.30528
1.30229
0.0977961
-0.0947665
-1.08514
1.08211
0.0919927
-0.0888842
-0.909172
0.906063
0.0856215
-0.0807059
-0.755191
0.750275
0.0738916
-0.0638193
-0.58456
0.574487
0.0527716
-0.0398841
-0.380587
0.3677
0.0286844
-0.0179964
-0.194211
0.183523
0.0102988
-0.00433079
-0.0700675
0.0640996
0.00116939
-0.00806261
0.00689322
-0.0462918
0.0505668
-0.00427498
0.0245226
-0.0358786
-0.275943
0.287299
0.0474402
-0.0567246
-0.442395
0.451679
0.0652962
-0.0721782
-0.598066
0.604948
0.0793156
-0.0861996
-0.728684
0.735568
0.0936848
-0.100344
-0.856966
0.863624
0.107356
-0.11333
-1.00424
1.01022
0.119232
-0.12384
-1.17662
1.18123
0.127818
-0.130279
-1.37728
1.37974
0.131456
-0.130947
-1.6114
1.61089
0.128984
-0.125786
-1.57771
1.57452
0.122347
-0.118341
-1.29856
1.29455
0.114733
-0.110964
-1.07813
1.07437
0.107615
-0.103711
-0.902018
0.898115
0.0996019
-0.0931894
-0.744287
0.737874
0.0845544
-0.0722146
-0.564191
0.551851
0.0590672
-0.0440834
-0.354682
0.339698
0.0312984
-0.0193249
-0.172676
0.160702
0.0108788
-0.00448695
-0.0580872
0.0516954
0.00118327
-0.00575375
0.00457047
-0.0545023
0.061841
-0.00733872
0.0379535
-0.0537676
-0.299494
0.315309
0.0693597
-0.0818166
-0.465067
0.477524
0.0925436
-0.100787
-0.614976
0.62322
0.109443
-0.117562
-0.742991
0.751111
0.125926
-0.132959
-0.870039
0.877072
0.140028
-0.145763
-1.01575
1.02148
0.151124
-0.154971
-1.18516
1.18901
0.15787
-0.159097
-1.38134
1.38257
0.158741
-0.156662
-1.60939
1.60731
0.153145
-0.148436
-1.57044
1.56573
0.143749
-0.138546
-1.28972
1.28451
0.133997
-0.129398
-1.06946
1.06487
0.125391
-0.120681
-0.892999
0.888289
0.115349
-0.107019
-0.730135
0.721805
0.0961137
-0.0810085
-0.539048
0.523942
0.0654178
-0.0481312
-0.324651
0.307365
0.0336434
-0.0203655
-0.148813
0.135535
0.0112161
-0.00450435
-0.0454287
0.0387169
0.00113979
-0.00344232
0.00230253
-0.0686913
0.0727652
-0.00407394
0.0290269
-0.0427632
-0.333649
0.347385
0.0566024
-0.0680239
-0.495256
0.506678
0.0781834
-0.0876495
-0.635055
0.644521
0.098154
-0.1077
-0.758745
0.768291
0.118231
-0.127542
-0.883208
0.892518
0.137382
-0.146042
-1.02627
1.03493
0.154948
-0.162408
-1.19174
1.1992
0.169555
-0.174919
-1.38259
1.38795
0.179151
-0.181146
-1.60396
1.60596
0.180859
-0.178828
-1.55991
1.55788
0.175774
-0.171671
-1.27838
1.27428
0.167907
-0.163515
-1.0589
1.05451
0.159765
-0.154912
-0.881741
0.876889
0.147912
-0.135986
-0.711725
0.699799
0.120033
-0.0987446
-0.508082
0.486794
0.0777149
-0.0551577
-0.289924
0.267367
0.0372282
-0.0216622
-0.12284
0.107274
0.0114786
-0.00443967
-0.0325564
0.0255175
0.00109242
-0.00124337
0.000150951
-0.0800352
0.0780714
0.00196379
0.00741896
-0.016481
-0.363887
0.372949
0.0270044
-0.0350893
-0.52278
0.530865
0.0431931
-0.0511582
-0.656422
0.664387
0.0608305
-0.0697626
-0.777445
0.786377
0.0792062
-0.0877726
-0.901272
0.909839
0.096788
-0.104378
-1.04329
1.05088
0.112348
-0.118638
-1.20644
1.21273
0.124564
-0.128658
-1.39293
1.39703
0.131197
-0.131657
-1.60701
1.60747
0.129821
-0.126204
-1.55495
1.55133
0.121568
-0.115797
-1.26949
1.26372
0.110423
-0.104463
-1.04846
1.0425
0.0989513
-0.092489
-0.867362
0.860899
0.085374
-0.0750222
-0.683966
0.673614
0.0631364
-0.0488705
-0.463998
0.449732
0.036136
-0.024059
-0.244974
0.232897
0.0154243
-0.00859886
-0.0924996
0.0856742
0.00443596
-0.00169303
-0.0188516
0.0161087
0.000379773
0.000942011
-0.00132178
-0.081456
0.078553
0.00290301
-0.00167173
-0.00357238
-0.384334
0.389578
0.0107193
-0.0166004
-0.543078
0.54896
0.0226298
-0.0295738
-0.674473
0.681417
0.0379471
-0.0457039
-0.794404
0.802161
0.0541236
-0.0616011
-0.917661
0.925139
0.0692201
-0.075983
-1.05828
1.06505
0.0828577
-0.0883421
-1.21855
1.22404
0.0930145
-0.0959462
-1.4004
1.40333
0.0975098
-0.0968482
-1.60711
1.60645
0.0939102
-0.0892014
-1.54695
1.54224
0.0837089
-0.0772411
-1.2576
1.25113
0.0708467
-0.0639655
-1.03531
1.02843
0.0575637
-0.0502935
-0.851437
0.844167
0.0434266
-0.0348012
-0.659748
0.651122
0.0261892
-0.0172126
-0.433628
0.424652
0.0107823
-0.00602191
-0.22007
0.215309
0.00336735
-0.00176056
-0.0786491
0.0770423
0.000943689
-0.000431128
-0.0131927
0.0126801
5.16212e-05
0.00188437
-0.00193599
-0.080222
0.0774887
0.00273335
-0.00523828
0.00270773
-0.397997
0.400527
0.00189038
-0.00636419
-0.558105
0.562579
0.0114878
-0.0173165
-0.689374
0.695203
0.0244912
-0.0311479
-0.809263
0.81592
0.0383545
-0.0447783
-0.932093
0.938517
0.0516975
-0.0574272
-1.07138
1.07711
0.0634183
-0.0677211
-1.22909
1.23339
0.0716208
-0.0738911
-1.406
1.40827
0.0746046
-0.0730235
-1.60528
1.6037
0.0696311
-0.0645243
-1.53692
1.53181
0.0586853
-0.0514795
-1.2443
1.2371
0.0446988
-0.037292
-1.02058
1.01317
0.0302585
-0.0229154
-0.834541
0.827198
0.0162855
-0.00927917
-0.639378
0.632371
0.0032773
0.00137368
-0.414328
0.409677
-0.00344892
0.0038921
-0.208517
0.208074
-0.00340645
0.00228672
-0.0743709
0.0754906
-0.00133042
0.000498021
-0.0117241
0.0125565
-0.000211931
0.00228023
-0.0020683
-0.0787585
0.0763519
0.00240654
-0.00630985
0.00536325
-0.40713
0.408076
-0.00199651
-0.00124735
-0.570199
0.573442
0.00544608
-0.0107588
-0.701882
0.707195
0.0168119
-0.0226721
-0.82186
0.82772
0.0289305
-0.0345225
-0.944496
0.950088
0.0404632
-0.0455648
-1.0827
1.0878
0.0506215
-0.054558
-1.23755
1.24148
0.0578314
-0.0595989
-1.41015
1.41192
0.0598447
-0.0579115
-1.60191
1.59998
0.0542552
-0.0487449
-1.52599
1.52048
0.042769
-0.0355888
-1.22979
1.22261
0.0287079
-0.021002
-1.00509
0.997382
0.0139528
-0.00650395
-0.817854
0.810405
0.000261891
0.00524085
-0.622539
0.617036
-0.00923237
0.0114221
-0.402561
0.400371
-0.0113379
0.00967209
-0.205001
0.206667
-0.00757387
0.00508215
-0.0756524
0.0781441
-0.00302676
0.00125871
-0.01303
0.014798
-0.000379661
0.00210785
-0.00172819
-0.0774212
0.0753682
0.00205299
-0.0061591
0.00569729
-0.41343
0.413892
-0.0036899
0.00108991
-0.579548
0.582148
0.00302957
-0.00759078
-0.712514
0.717075
0.012818
-0.017922
-0.832774
0.837878
0.023508
-0.028524
-0.955336
0.960352
0.0339763
-0.0384554
-1.09263
1.09711
0.043013
-0.0465532
-1.24513
1.24867
0.0494057
-0.0508605
-1.41342
1.41487
0.0508261
-0.0490885
-1.59794
1.5962
0.0453207
-0.0399668
-1.51453
1.50918
0.0340538
-0.0269923
-1.21525
1.20819
0.020488
-0.0128645
-0.989389
0.981765
0.00596045
0.00111024
-0.801805
0.794735
-0.00678667
0.0114849
-0.608578
0.603879
-0.0145067
0.0158706
-0.395264
0.3939
-0.0147925
0.0122226
-0.205709
0.208278
-0.00957159
0.00648697
-0.0797568
0.0828415
-0.00390619
0.00169036
-0.0161888
0.0184046
-0.000475916
0.00147842
-0.0010025
-0.0764257
0.0748326
0.00159309
-0.0052676
0.00512536
-0.418161
0.418303
-0.00349803
0.00152097
-0.587712
0.589689
0.00234656
-0.00648373
-0.721745
0.725882
0.0114593
-0.0158705
-0.842568
0.846979
0.0207958
-0.0252593
-0.965338
0.969802
0.0304535
-0.0345431
-1.10163
1.10572
0.0386123
-0.0419833
-1.25203
1.2554
0.0450128
-0.0463422
-1.41635
1.41768
0.0463907
-0.0446369
-1.59408
1.59233
0.0413323
-0.0360163
-1.50366
1.49835
0.0306024
-0.0241273
-1.20107
1.1946
0.0179073
-0.010932
-0.974197
0.967222
0.00438459
0.00244424
-0.786677
0.779848
-0.00755189
0.0119981
-0.596105
0.591658
-0.0147027
0.0157861
-0.38991
0.388827
-0.0149517
0.0125872
-0.208069
0.210434
-0.00993143
0.00678944
-0.0850013
0.0881433
-0.00413206
0.00182321
-0.0200984
0.0224073
-0.000501283
0.000625305
-0.000124022
-0.0759373
0.0746941
0.00124324
-0.00419162
0.00416903
-0.421959
0.421982
-0.00272547
0.000845365
-0.594849
0.596729
0.00290517
-0.00661992
-0.730061
0.733775
0.0109004
-0.0151648
-0.851316
0.85558
0.0197279
-0.0243402
-0.974072
0.978684
0.0288284
-0.032757
-1.10991
1.11384
0.0369814
-0.0401411
-1.25866
1.26182
0.0427373
-0.0445188
-1.41893
1.42071
0.0448043
-0.043415
-1.59066
1.58927
0.0403961
-0.0358215
-1.49333
1.48875
0.0308965
-0.0249293
-1.18795
1.18199
0.0192406
-0.0127173
-0.960148
0.953624
0.00661443
-0.000347636
-0.772534
0.766268
-0.00472143
0.00895619
-0.584575
0.58034
-0.0113541
0.0127198
-0.385275
0.38391
-0.0124649
0.0106271
-0.210209
0.212046
-0.00850531
0.00589356
-0.0899768
0.0925886
-0.00364611
0.00164935
-0.0239718
0.0259686
-0.00047794
-0.000278265
0.000756205
-0.0759745
0.0749461
0.00102839
-0.0029262
0.00266841
-0.425392
0.425649
-0.00144008
-0.000486679
-0.601389
0.603315
0.00399279
-0.00758901
-0.73782
0.741416
0.0117029
-0.0155711
-0.859612
0.863481
0.0202585
-0.0240985
-0.982721
0.986561
0.0285738
-0.0323446
-1.11792
1.12169
0.0364826
-0.0398655
-1.26497
1.26836
0.0427859
-0.0443994
-1.42227
1.42388
0.045096
-0.0442004
-1.58786
1.58696
0.0419321
-0.0377906
-1.48416
1.48002
0.0333963
-0.0279156
-1.17621
1.17073
0.0226992
-0.0166345
-0.946948
0.940884
0.0111535
-0.00529039
-0.759498
0.753635
0.000316629
0.00400646
-0.573969
0.569646
-0.00666506
0.0080622
-0.38016
0.378763
-0.00841902
0.0074518
-0.211361
0.212329
-0.00611177
0.00431076
-0.0937955
0.0955966
-0.00271516
0.00127658
-0.0270991
0.0285377
-0.000390269
-0.00105017
0.00144044
-0.0762944
0.0755894
0.000705017
-0.00179371
0.00112661
-0.428933
0.4296
-0.000126627
-0.00215225
-0.607112
0.609391
0.00528311
-0.0087343
-0.745074
0.748525
0.0126793
-0.0166802
-0.867191
0.871192
0.0207632
-0.0247757
-0.990607
0.994619
0.0292325
-0.0328181
-1.12589
1.12948
0.0370731
-0.0404408
-1.27155
1.27492
0.0434599
-0.045647
-1.42592
1.42811
0.0469003
-0.0463694
-1.58615
1.58562
0.0444211
-0.0410412
-1.4761
1.47272
0.0372197
-0.0321598
-1.1652
1.16014
0.0273005
-0.0219875
-0.934835
0.929522
0.0166796
-0.011435
-0.747334
0.74209
0.00671256
-0.00205356
-0.56384
0.559181
-0.000988818
0.00298138
-0.374529
0.372536
-0.00377702
0.00375835
-0.211211
0.21123
-0.0031947
0.00232513
-0.0959493
0.0968188
-0.00154627
0.000773853
-0.029101
0.0298734
-0.000256429
-0.001609
0.00186542
-0.0770336
0.076491
0.000542582
-0.000839043
0.000289097
-0.432706
0.433256
0.00151345
-0.0035584
-0.613139
0.615184
0.00682285
-0.0101489
-0.751819
0.755145
0.0139452
-0.0175522
-0.874845
0.878452
0.0217684
-0.0254814
-0.998635
1.00235
0.0299066
-0.0339451
-1.13352
1.13756
0.0378683
-0.0415908
-1.27833
1.28206
0.0450668
-0.0473915
-1.43021
1.43253
0.0490774
-0.0493777
-1.58534
1.58564
0.0479088
-0.0451716
-1.46925
1.46651
0.0416013
-0.037111
-1.15519
1.1507
0.0328498
-0.0279669
-0.923935
0.919052
0.0232627
-0.0182344
-0.736157
0.731128
0.0135547
-0.00862069
-0.553316
0.548382
0.00501615
-0.0024361
-0.368112
0.365532
0.000885307
-4.99456e-05
-0.209376
0.208541
-0.00031825
0.000438306
-0.0962764
0.0961563
-0.000412312
0.000281065
-0.0298161
0.0299474
-0.000120787
-0.00189916
0.00201994
-0.0780436
0.0776954
0.000348185
0.000204426
-0.00105715
-0.436563
0.437415
0.00267909
-0.00503152
-0.618719
0.621071
0.00822913
-0.0114014
-0.758334
0.761506
0.0152805
-0.0187425
-0.882023
0.885485
0.0228118
-0.0266591
-1.00654
1.01038
0.0310058
-0.0350269
-1.14145
1.14547
0.0391925
-0.0429666
-1.28571
1.28948
0.0466624
-0.0497687
-1.43516
1.43826
0.0519416
-0.05257
-1.58589
1.58652
0.0518087
-0.0494342
-1.46369
1.46132
0.0465069
-0.0427257
-1.14627
1.14249
0.038744
-0.034311
-0.914023
0.90959
0.0298964
-0.0247897
-0.725496
0.720389
0.0200592
-0.0147681
-0.542608