0.490941 	0.754431 	0.00738767 	3.00165 	0
0.561075 	0.754431 	0.00738767 	3.00165 	0
0.63121 	0.754431 	0.00738767 	3.00165 	0
0.701344 	0.754431 	0.00738767 	3.00165 	0
0.771478 	0.754431 	0.00738767 	3.00165 	0
0.841613 	0.754431 	0.00738767 	3.00165 	0
0.911747 	0.754431 	0.00738767 	3.00165 	0
0.981881 	0.754431 	0.00738767 	3.00165 	0
1.05202 	0.754431 	0.00738767 	3.00165 	0
1.12215 	0.754431 	0.00738767 	3.00165 	0
1.19228 	0.754431 	0.00738767 	3.00165 	0
1.26242 	0.728482 	0.0137771 	3.00793 	0
1.33255 	0.728482 	0.0137771 	3.00793 	0
1.40269 	0.728482 	0.0137771 	3.00793 	0
1.47282 	0.728482 	0.0137771 	3.00793 	0
1.54296 	0.728482 	0.0137771 	3.00793 	0
1.61309 	0.728482 	0.0137771 	3.00793 	0
1.68323 	0.728482 	0.0137771 	3.00793 	0
1.75336 	0.728482 	0.0137771 	3.00793 	0
1.82349 	0.681844 	0.014264 	3.02281 	2.61903e-19
1.89363 	0.681844 	0.014264 	3.02281 	2.61903e-19
1.96376 	0.681844 	0.014264 	3.02281 	2.61903e-19
2.0339 	0.681844 	0.014264 	3.02281 	2.61903e-19
2.10403 	0.681844 	0.014264 	3.02281 	2.61903e-19
2.17417 	0.681844 	0.014264 	3.02281 	2.61903e-19
2.2443 	0.681844 	0.014264 	3.02281 	2.61903e-19
2.31443 	0.681844 	0.014264 	3.02281 	2.61903e-19
2.38457 	0.681844 	0.014264 	3.02281 	2.61903e-19
2.4547 	0.681844 	0.014264 	3.02281 	2.61903e-19
2.52484 	0.681844 	0.014264 	3.02281 	2.61903e-19
2.59497 	0.656292 	0.00929712 	3.03088 	-4.38989e-19
2.66511 	0.656292 	0.00929712 	3.03088 	-4.38989e-19
2.73524 	0.656292 	0.00929712 	3.03088 	-4.38989e-19
2.80538 	0.656292 	0.00929712 	3.03088 	-4.38989e-19
2.87551 	0.656292 	0.00929712 	3.03088 	-4.38989e-19
2.94564 	0.656292 	0.00929712 	3.03088 	-4.38989e-19
3.01578 	0.656292 	0.00929712 	3.03088 	-4.38989e-19
3.08591 	0.656292 	0.00929712 	3.03088 	-4.38989e-19
3.15605 	0.656292 	0.00929712 	3.03088 	-4.38989e-19
3.22618 	0.656292 	0.00929712 	3.03088 	-4.38989e-19
3.29632 	0.620858 	0.0132282 	3.0356 	4.36112e-19
3.36645 	0.620858 	0.0132282 	3.0356 	4.36112e-19
3.43659 	0.620858 	0.0132282 	3.0356 	4.36112e-19
3.50672 	0.620858 	0.0132282 	3.0356 	4.36112e-19
3.57685 	0.620858 	0.0132282 	3.0356 	4.36112e-19
3.64699 	0.620858 	0.0132282 	3.0356 	4.36112e-19
3.71712 	0.620858 	0.0132282 	3.0356 	4.36112e-19
3.78726 	0.620858 	0.0132282 	3.0356 	4.36112e-19
3.85739 	0.620858 	0.0132282 	3.0356 	4.36112e-19
3.92753 	0.620858 	0.0132282 	3.0356 	4.36112e-19
3.99766 	0.620858 	0.0132282 	3.0356 	4.36112e-19
4.06779 	0.583452 	0.00443542 	3.05163 	-1.09161e-20
4.13793 	0.583452 	0.00443542 	3.05163 	-1.09161e-20
4.20806 	0.583452 	0.00443542 	3.05163 	-1.09161e-20
4.2782 	0.583452 	0.00443542 	3.05163 	-1.09161e-20
4.34833 	0.583452 	0.00443542 	3.05163 	-1.09161e-20
4.41847 	0.583452 	0.00443542 	3.05163 	-1.09161e-20
4.4886 	0.568688 	0.0197023 	3.05507 	0
4.55874 	0.568688 	0.0197023 	3.05507 	0
4.62887 	0.568688 	0.0197023 	3.05507 	0
4.699 	0.568688 	0.0197023 	3.05507 	0
4.76914 	0.568688 	0.0197023 	3.05507 	0
4.83927 	0.568688 	0.0197023 	3.05507 	0
4.90941 	0.568688 	0.0197023 	3.05507 	0
4.97954 	0.568688 	0.0197023 	3.05507 	0
5.04968 	0.568688 	0.0197023 	3.05507 	0
5.11981 	0.568688 	0.0197023 	3.05507 	0
5.18994 	0.554032 	0.0188422 	3.05332 	-4.62884e-21
5.26008 	0.554032 	0.0188422 	3.05332 	-4.62884e-21
5.33021 	0.554032 	0.0188422 	3.05332 	-4.62884e-21
5.40035 	0.554032 	0.0188422 	3.05332 	-4.62884e-21
5.47048 	0.554032 	0.0188422 	3.05332 	-4.62884e-21
5.54062 	0.554032 	0.0188422 	3.05332 	-4.62884e-21
5.61075 	0.554032 	0.0188422 	3.05332 	-4.62884e-21
5.68089 	0.5239 	0.031133 	3.06422 	0
5.75102 	0.5239 	0.031133 	3.06422 	0
5.82115 	0.5239 	0.031133 	3.06422 	0
5.89129 	0.5239 	0.031133 	3.06422 	0
5.96142 	0.5239 	0.031133 	3.06422 	0
6.03156 	0.5239 	0.031133 	3.06422 	0
6.10169 	0.5239 	0.031133 	3.06422 	0
6.17183 	0.5239 	0.031133 	3.06422 	0
6.24196 	0.5239 	0.031133 	3.06422 	0
6.3121 	0.479343 	0.0314377 	3.07394 	0
6.38223 	0.479343 	0.0314377 	3.07394 	0
6.45236 	0.479343 	0.0314377 	3.07394 	0
6.5225 	0.479343 	0.0314377 	3.07394 	0
6.59263 	0.479343 	0.0314377 	3.07394 	0
6.66277 	0.479343 	0.0314377 	3.07394 	0
6.7329 	0.479343 	0.0314377 	3.07394 	0
6.80304 	0.479343 	0.0314377 	3.07394 	0
6.87317 	0.441206 	0.0337874 	3.08353 	1.35805e-19
6.9433 	0.441206 	0.0337874 	3.08353 	1.35805e-19
7.01344 	0.441206 	0.0337874 	3.08353 	1.35805e-19
7.08357 	0.441206 	0.0337874 	3.08353 	1.35805e-19
7.15371 	0.441206 	0.0337874 	3.08353 	1.35805e-19
7.22384 	0.441206 	0.0337874 	3.08353 	1.35805e-19
7.29398 	0.441206 	0.0337874 	3.08353 	1.35805e-19
7.36411 	0.441206 	0.0337874 	3.08353 	1.35805e-19
7.43425 	0.441206 	0.0337874 	3.08353 	1.35805e-19
7.50438 	0.437103 	0.0292065 	3.079 	-1.00879e-18
7.57451 	0.437103 	0.0292065 	3.079 	-1.00879e-18
7.64465 	0.437103 	0.0292065 	3.079 	-1.00879e-18
7.71478 	0.437103 	0.0292065 	3.079 	-1.00879e-18
7.78492 	0.437103 	0.0292065 	3.079 	-1.00879e-18
7.85505 	0.437103 	0.0292065 	3.079 	-1.00879e-18
7.92519 	0.437103 	0.0292065 	3.079 	-1.00879e-18
7.99532 	0.437103 	0.0292065 	3.079 	-1.00879e-18
8.06545 	0.39798 	0.0269604 	3.0945 	1.15661e-18
8.13559 	0.39798 	0.0269604 	3.0945 	1.15661e-18
8.20572 	0.39798 	0.0269604 	3.0945 	1.15661e-18
8.27586 	0.39798 	0.0269604 	3.0945 	1.15661e-18
8.34599 	0.39798 	0.0269604 	3.0945 	1.15661e-18
8.41613 	0.39798 	0.0269604 	3.0945 	1.15661e-18
8.48626 	0.39798 	0.0269604 	3.0945 	1.15661e-18
8.5564 	0.39798 	0.0269604 	3.0945 	1.15661e-18
8.62653 	0.39798 	0.0269604 	3.0945 	1.15661e-18
8.69666 	0.372829 	0.0329728 	3.10467 	9.05397e-19
8.7668 	0.372829 	0.0329728 	3.10467 	9.05397e-19
8.83693 	0.372829 	0.0329728 	3.10467 	9.05397e-19
8.90707 	0.372829 	0.0329728 	3.10467 	9.05397e-19
8.9772 	0.372829 	0.0329728 	3.10467 	9.05397e-19
9.04734 	0.372829 	0.0329728 	3.10467 	9.05397e-19
9.11747 	0.372829 	0.0329728 	3.10467 	9.05397e-19
9.18761 	0.372829 	0.0329728 	3.10467 	9.05397e-19
9.25774 	0.373448 	0.0269492 	3.09776 	-8.08327e-19
9.32787 	0.373448 	0.0269492 	3.09776 	-8.08327e-19
9.39801 	0.373448 	0.0269492 	3.09776 	-8.08327e-19
9.46814 	0.373448 	0.0269492 	3.09776 	-8.08327e-19
9.53828 	0.373448 	0.0269492 	3.09776 	-8.08327e-19
9.60841 	0.373448 	0.0269492 	3.09776 	-8.08327e-19
9.67855 	0.373448 	0.0269492 	3.09776 	-8.08327e-19
9.74868 	0.373448 	0.0269492 	3.09776 	-8.08327e-19
9.81881 	0.335745 	0.0360451 	3.12347 	-2.59687e-19
9.88895 	0.335745 	0.0360451 	3.12347 	-2.59687e-19
9.95908 	0.335745 	0.0360451 	3.12347 	-2.59687e-19
10.0292 	0.335745 	0.0360451 	3.12347 	-2.59687e-19
10.0994 	0.335745 	0.0360451 	3.12347 	-2.59687e-19
10.1695 	0.335745 	0.0360451 	3.12347 	-2.59687e-19
10.2396 	0.335745 	0.0360451 	3.12347 	-2.59687e-19
10.3098 	0.335745 	0.0360451 	3.12347 	-2.59687e-19
10.3799 	0.335745 	0.0360451 	3.12347 	-2.59687e-19
10.45 	0.335745 	0.0360451 	3.12347 	-2.59687e-19
10.5202 	0.335745 	0.0360451 	3.12347 	-2.59687e-19
10.5903 	0.335745 	0.0360451 	3.12347 	-2.59687e-19
10.6604 	0.344694 	0.0352399 	3.11686 	3.82394e-19
10.7306 	0.300061 	0.0473215 	3.14218 	0
10.8007 	0.300061 	0.0473215 	3.14218 	0
10.8708 	0.300061 	0.0473215 	3.14218 	0
10.941 	0.300061 	0.0473215 	3.14218 	0
11.0111 	0.300061 	0.0473215 	3.14218 	0
11.0812 	0.300061 	0.0473215 	3.14218 	0
11.1514 	0.300061 	0.0473215 	3.14218 	0
11.2215 	0.300061 	0.0473215 	3.14218 	0
11.2916 	0.300061 	0.0473215 	3.14218 	0
11.3618 	0.300061 	0.0473215 	3.14218 	0
11.4319 	0.300061 	0.0473215 	3.14218 	0
11.502 	0.300061 	0.0473215 	3.14218 	0
11.5722 	0.300061 	0.0473215 	3.14218 	0
11.6423 	0.300061 	0.0473215 	3.14218 	0
11.7124 	0.325914 	0.0766306 	3.11422 	0
11.7826 	0.21683 	0.0776182 	3.16238 	3.01083e-19
11.8527 	0.21683 	0.0776182 	3.16238 	3.01083e-19
11.9228 	0.21683 	0.0776182 	3.16238 	3.01083e-19
11.993 	0.21683 	0.0776182 	3.16238 	3.01083e-19
12.0631 	0.21683 	0.0776182 	3.16238 	3.01083e-19
12.1332 	0.21683 	0.0776182 	3.16238 	3.01083e-19
12.2034 	0.0283634 	0.085308 	3.21586 	-6.78212e-20
12.2735 	0.0283634 	0.085308 	3.21586 	-6.78212e-20
12.3437 	0.0283634 	0.085308 	3.21586 	-6.78212e-20
12.4138 	0.0283634 	0.085308 	3.21586 	-6.78212e-20
12.4839 	0.0283634 	0.085308 	3.21586 	-6.78212e-20
12.5541 	0.0283634 	0.085308 	3.21586 	-6.78212e-20
12.6242 	0.0283634 	0.085308 	3.21586 	-6.78212e-20
12.6943 	0.0283634 	0.085308 	3.21586 	-6.78212e-20
12.7645 	0.0283634 	0.085308 	3.21586 	-6.78212e-20
12.8346 	-0.128078 	0.0680369 	3.21856 	-1.7053e-19
12.9047 	-0.20376 	0.104246 	3.25105 	1.4777e-19
12.9749 	-0.20376 	0.104246 	3.25105 	1.4777e-19
13.045 	-0.20376 	0.104246 	3.25105 	1.4777e-19
13.1151 	-0.20376 	0.104246 	3.25105 	1.4777e-19
13.1853 	-0.20376 	0.104246 	3.25105 	1.4777e-19
13.2554 	-0.20376 	0.104246 	3.25105 	1.4777e-19
13.3255 	-0.20376 	0.104246 	3.25105 	1.4777e-19
13.3957 	-0.0382977 	0.123191 	3.252 	-1.45691e-19
13.4658 	-0.0382977 	0.123191 	3.252 	-1.45691e-19
13.5359 	-0.0382977 	0.123191 	3.252 	-1.45691e-19
13.6061 	-0.0382977 	0.123191 	3.252 	-1.45691e-19
13.6762 	-0.0382977 	0.123191 	3.252 	-1.45691e-19
13.7463 	-0.0382977 	0.123191 	3.252 	-1.45691e-19
13.8165 	-0.209617 	0.240373 	3.01608 	-1.18192e-20
13.8866 	-0.42969 	0.149203 	3.22154 	-6.52448e-19
13.9567 	-0.42969 	0.149203 	3.22154 	-6.52448e-19
14.0269 	-0.524142 	0.112161 	3.22613 	1.35595e-18
14.097 	-0.524142 	0.112161 	3.22613 	1.35595e-18
14.1671 	-0.524142 	0.112161 	3.22613 	1.35595e-18
14.2373 	-0.524142 	0.112161 	3.22613 	1.35595e-18
14.3074 	-0.524142 	0.112161 	3.22613 	1.35595e-18
14.3776 	-0.524142 	0.112161 	3.22613 	1.35595e-18
14.4477 	-0.524142 	0.112161 	3.22613 	1.35595e-18
14.5178 	-0.524142 	0.112161 	3.22613 	1.35595e-18
14.588 	-0.524142 	0.112161 	3.22613 	1.35595e-18
14.6581 	-0.524142 	0.112161 	3.22613 	1.35595e-18
14.7282 	-0.524142 	0.112161 	3.22613 	1.35595e-18
14.7984 	-0.524142 	0.112161 	3.22613 	1.35595e-18
14.8685 	-0.524142 	0.112161 	3.22613 	1.35595e-18
14.9386 	-0.542123 	0.14113 	3.26193 	0
15.0088 	-0.542123 	0.14113 	3.26193 	0
15.0789 	-0.542123 	0.14113 	3.26193 	0
15.149 	-0.542123 	0.14113 	3.26193 	0
15.2192 	-0.542123 	0.14113 	3.26193 	0
15.2893 	-0.906343 	0.126145 	3.34707 	-5.58554e-19
15.3594 	-0.906343 	0.126145 	3.34707 	-5.58554e-19
15.4296 	-0.906343 	0.126145 	3.34707 	-5.58554e-19
15.4997 	-0.906343 	0.126145 	3.34707 	-5.58554e-19
15.5698 	-0.906343 	0.126145 	3.34707 	-5.58554e-19
15.64 	-0.906343 	0.126145 	3.34707 	-5.58554e-19
15.7101 	-1.21078 	0.200398 	3.35554 	0
15.7802 	-1.21078 	0.200398 	3.35554 	0
15.8504 	-1.17732 	0.210964 	3.29712 	1.32774e-18
15.9205 	-1.17732 	0.210964 	3.29712 	1.32774e-18
15.9906 	-1.17732 	0.210964 	3.29712 	1.32774e-18
16.0608 	-1.17732 	0.210964 	3.29712 	1.32774e-18
16.1309 	-1.17732 	0.210964 	3.29712 	1.32774e-18
16.201 	-1.17732 	0.210964 	3.29712 	1.32774e-18
16.2712 	-1.17732 	0.210964 	3.29712 	1.32774e-18
16.3413 	-1.17732 	0.210964 	3.29712 	1.32774e-18
16.4114 	-1.17732 	0.210964 	3.29712 	1.32774e-18
16.4816 	-1.17732 	0.210964 	3.29712 	1.32774e-18
16.5517 	-1.17732 	0.210964 	3.29712 	1.32774e-18
16.6219 	-1.17732 	0.210964 	3.29712 	1.32774e-18
16.692 	-1.17732 	0.210964 	3.29712 	1.32774e-18
16.7621 	-1.17732 	0.210964 	3.29712 	1.32774e-18
16.8323 	-0.729189 	0.220013 	3.02214 	5.01295e-19
16.9024 	-0.729189 	0.220013 	3.02214 	5.01295e-19
16.9725 	-0.729189 	0.220013 	3.02214 	5.01295e-19
17.0427 	-0.729189 	0.220013 	3.02214 	5.01295e-19
17.1128 	-0.729189 	0.220013 	3.02214 	5.01295e-19
17.1829 	-0.729189 	0.220013 	3.02214 	5.01295e-19
17.2531 	-0.729189 	0.220013 	3.02214 	5.01295e-19
17.3232 	-0.729189 	0.220013 	3.02214 	5.01295e-19
17.3933 	-0.729189 	0.220013 	3.02214 	5.01295e-19
17.4635 	-0.729189 	0.220013 	3.02214 	5.01295e-19
17.5336 	-0.321831 	0.263628 	2.88941 	-2.27011e-19
17.6037 	-0.321831 	0.263628 	2.88941 	-2.27011e-19
17.6739 	-0.321831 	0.263628 	2.88941 	-2.27011e-19
17.744 	-0.228754 	0.40451 	2.65437 	1.10212e-19
17.8141 	-0.228754 	0.40451 	2.65437 	1.10212e-19
17.8843 	-0.228754 	0.40451 	2.65437 	1.10212e-19
17.9544 	-0.228754 	0.40451 	2.65437 	1.10212e-19
18.0245 	-0.228754 	0.40451 	2.65437 	1.10212e-19
18.0947 	-0.228754 	0.40451 	2.65437 	1.10212e-19
18.1648 	-0.228754 	0.40451 	2.65437 	1.10212e-19
18.2349 	-0.228754 	0.40451 	2.65437 	1.10212e-19
18.3051 	-0.228754 	0.40451 	2.65437 	1.10212e-19
18.3752 	0.0375867 	0.355148 	2.51036 	-8.19931e-20
18.4453 	0.0375867 	0.355148 	2.51036 	-8.19931e-20
18.5155 	0.0375867 	0.355148 	2.51036 	-8.19931e-20
18.5856 	0.0375867 	0.355148 	2.51036 	-8.19931e-20
18.6557 	0.0375867 	0.355148 	2.51036 	-8.19931e-20
18.7259 	0.0375867 	0.355148 	2.51036 	-8.19931e-20
18.796 	0.0375867 	0.355148 	2.51036 	-8.19931e-20
18.8662 	0.0823996 	0.427422 	2.26521 	-1.96228e-19
18.9363 	0.0823996 	0.427422 	2.26521 	-1.96228e-19
19.0064 	0.0823996 	0.427422 	2.26521 	-1.96228e-19
19.0766 	0.0823996 	0.427422 	2.26521 	-1.96228e-19
19.1467 	0.0823996 	0.427422 	2.26521 	-1.96228e-19
19.2168 	0.0823996 	0.427422 	2.26521 	-1.96228e-19
19.287 	0.0823996 	0.427422 	2.26521 	-1.96228e-19
19.3571 	0.0823996 	0.427422 	2.26521 	-1.96228e-19
19.4272 	0.0823996 	0.427422 	2.26521 	-1.96228e-19
19.4974 	0.0823996 	0.427422 	2.26521 	-1.96228e-19
19.5675 	0.0823996 	0.427422 	2.26521 	-1.96228e-19
19.6376 	0.0823996 	0.427422 	2.26521 	-1.96228e-19
19.7078 	0.0823996 	0.427422 	2.26521 	-1.96228e-19
19.7779 	0.302767 	0.530963 	2.10174 	-1.99503e-19
19.848 	0.302767 	0.530963 	2.10174 	-1.99503e-19
19.9182 	0.302767 	0.530963 	2.10174 	-1.99503e-19
19.9883 	0.302767 	0.530963 	2.10174 	-1.99503e-19
20.0584 	0.302767 	0.530963 	2.10174 	-1.99503e-19
20.1286 	0.302767 	0.530963 	2.10174 	-1.99503e-19
20.1987 	0.302767 	0.530963 	2.10174 	-1.99503e-19
20.2688 	0.376599 	0.591448 	1.85456 	4.59688e-19
20.339 	0.376599 	0.591448 	1.85456 	4.59688e-19
20.4091 	0.376599 	0.591448 	1.85456 	4.59688e-19
20.4792 	0.376599 	0.591448 	1.85456 	4.59688e-19
20.5494 	0.376599 	0.591448 	1.85456 	4.59688e-19
20.6195 	0.376599 	0.591448 	1.85456 	4.59688e-19
20.6896 	0.376599 	0.591448 	1.85456 	4.59688e-19
20.7598 	0.376599 	0.591448 	1.85456 	4.59688e-19
20.8299 	0.376599 	0.591448 	1.85456 	4.59688e-19
20.9 	0.376599 	0.591448 	1.85456 	4.59688e-19
20.9702 	0.376599 	0.591448 	1.85456 	4.59688e-19
21.0403 	0.376599 	0.591448 	1.85456 	4.59688e-19
21.1105 	0.376599 	0.591448 	1.85456 	4.59688e-19
21.1806 	0.376599 	0.591448 	1.85456 	4.59688e-19
21.2507 	0.376599 	0.591448 	1.85456 	4.59688e-19
21.3209 	0.376599 	0.591448 	1.85456 	4.59688e-19
21.391 	0.376599 	0.591448 	1.85456 	4.59688e-19
21.4611 	0.450058 	0.488965 	1.96202 	-6.91465e-19
21.5313 	0.450058 	0.488965 	1.96202 	-6.91465e-19
21.6014 	0.450058 	0.488965 	1.96202 	-6.91465e-19
21.6715 	0.496374 	0.514814 	1.81091 	-3.15825e-19
21.7417 	0.496374 	0.514814 	1.81091 	-3.15825e-19
21.8118 	0.496374 	0.514814 	1.81091 	-3.15825e-19
21.8819 	0.496374 	0.514814 	1.81091 	-3.15825e-19
21.9521 	0.496374 	0.514814 	1.81091 	-3.15825e-19
22.0222 	0.451733 	0.656098 	1.75243 	5.40152e-19
22.0923 	0.451733 	0.656098 	1.75243 	5.40152e-19
22.1625 	0.451733 	0.656098 	1.75243 	5.40152e-19
22.2326 	0.451733 	0.656098 	1.75243 	5.40152e-19
22.3027 	0.451733 	0.656098 	1.75243 	5.40152e-19
22.3729 	0.451733 	0.656098 	1.75243 	5.40152e-19
22.443 	0.451733 	0.656098 	1.75243 	5.40152e-19
22.5131 	0.451733 	0.656098 	1.75243 	5.40152e-19
22.5833 	0.451733 	0.656098 	1.75243 	5.40152e-19
22.6534 	0.451733 	0.656098 	1.75243 	5.40152e-19
22.7235 	0.451733 	0.656098 	1.75243 	5.40152e-19
22.7937 	0.451733 	0.656098 	1.75243 	5.40152e-19
22.8638 	0.451733 	0.656098 	1.75243 	5.40152e-19
22.9339 	0.451733 	0.656098 	1.75243 	5.40152e-19
23.0041 	0.451733 	0.656098 	1.75243 	5.40152e-19
23.0742 	0.451733 	0.656098 	1.75243 	5.40152e-19
23.1443 	0.451733 	0.656098 	1.75243 	5.40152e-19
23.2145 	0.451733 	0.656098 	1.75243 	5.40152e-19
23.2846 	0.451733 	0.656098 	1.75243 	5.40152e-19
23.3548 	0.451733 	0.656098 	1.75243 	5.40152e-19
23.4249 	0.451733 	0.656098 	1.75243 	5.40152e-19
23.495 	0.441517 	0.668296 	1.7006 	-1.68207e-19
23.5652 	0.441517 	0.668296 	1.7006 	-1.68207e-19
23.6353 	0.441517 	0.668296 	1.7006 	-1.68207e-19
23.7054 	0.441517 	0.668296 	1.7006 	-1.68207e-19
23.7756 	0.441517 	0.668296 	1.7006 	-1.68207e-19
23.8457 	0.441517 	0.668296 	1.7006 	-1.68207e-19
23.9158 	0.441517 	0.668296 	1.7006 	-1.68207e-19
23.986 	0.439431 	0.623109 	1.63656 	6.88535e-21
24.0561 	0.439431 	0.623109 	1.63656 	6.88535e-21
24.1262 	0.439431 	0.623109 	1.63656 	6.88535e-21
24.1964 	0.439431 	0.623109 	1.63656 	6.88535e-21
24.2665 	0.439431 	0.623109 	1.63656 	6.88535e-21
24.3366 	0.439431 	0.623109 	1.63656 	6.88535e-21
24.4068 	0.439431 	0.623109 	1.63656 	6.88535e-21
24.4769 	0.439431 	0.623109 	1.63656 	6.88535e-21
24.547 	0.439431 	0.623109 	1.63656 	6.88535e-21
24.6172 	0.439431 	0.623109 	1.63656 	6.88535e-21
24.6873 	0.439431 	0.623109 	1.63656 	6.88535e-21
24.7574 	0.439431 	0.623109 	1.63656 	6.88535e-21
24.8276 	0.439431 	0.623109 	1.63656 	6.88535e-21
24.8977 	0.439431 	0.623109 	1.63656 	6.88535e-21
24.9678 	0.439431 	0.623109 	1.63656 	6.88535e-21
25.038 	0.439431 	0.623109 	1.63656 	6.88535e-21
25.1081 	0.439431 	0.623109 	1.63656 	6.88535e-21
25.1782 	0.367394 	0.572937 	1.62052 	0
25.2484 	0.367394 	0.572937 	1.62052 	0
25.3185 	0.367394 	0.572937 	1.62052 	0
25.3886 	0.367394 	0.572937 	1.62052 	0
25.4588 	0.367394 	0.572937 	1.62052 	0
25.5289 	0.367394 	0.572937 	1.62052 	0
25.5991 	0.367394 	0.572937 	1.62052 	0
25.6692 	0.367394 	0.572937 	1.62052 	0
25.7393 	0.367394 	0.572937 	1.62052 	0
25.8095 	0.367394 	0.572937 	1.62052 	0
25.8796 	0.367394 	0.572937 	1.62052 	0
25.9497 	0.367394 	0.572937 	1.62052 	0
26.0199 	0.367394 	0.572937 	1.62052 	0
26.09 	0.367394 	0.572937 	1.62052 	0
26.1601 	0.367394 	0.572937 	1.62052 	0
26.2303 	0.335099 	0.519049 	1.611 	-6.78614e-19
26.3004 	0.335099 	0.519049 	1.611 	-6.78614e-19
26.3705 	0.335099 	0.519049 	1.611 	-6.78614e-19
26.4407 	0.335099 	0.519049 	1.611 	-6.78614e-19
26.5108 	0.335099 	0.519049 	1.611 	-6.78614e-19
26.5809 	0.335099 	0.519049 	1.611 	-6.78614e-19
26.6511 	0.335099 	0.519049 	1.611 	-6.78614e-19
26.7212 	0.335099 	0.519049 	1.611 	-6.78614e-19
26.7913 	0.335099 	0.519049 	1.611 	-6.78614e-19
26.8615 	0.335099 	0.519049 	1.611 	-6.78614e-19
26.9316 	0.335099 	0.519049 	1.611 	-6.78614e-19
27.0017 	0.335099 	0.519049 	1.611 	-6.78614e-19
27.0719 	0.335099 	0.519049 	1.611 	-6.78614e-19
27.142 	0.335099 	0.519049 	1.611 	-6.78614e-19
27.2121 	0.335099 	0.519049 	1.611 	-6.78614e-19
27.2823 	0.335099 	0.519049 	1.611 	-6.78614e-19
27.3524 	0.337421 	0.486677 	1.62772 	7.2801e-19
27.4225 	0.337421 	0.486677 	1.62772 	7.2801e-19
27.4927 	0.337421 	0.486677 	1.62772 	7.2801e-19
27.5628 	0.337421 	0.486677 	1.62772 	7.2801e-19
27.6329 	0.337421 	0.486677 	1.62772 	7.2801e-19
27.7031 	0.337421 	0.486677 	1.62772 	7.2801e-19
27.7732 	0.337421 	0.486677 	1.62772 	7.2801e-19
27.8434 	0.337421 	0.486677 	1.62772 	7.2801e-19
27.9135 	0.337421 	0.486677 	1.62772 	7.2801e-19
27.9836 	0.337421 	0.486677 	1.62772 	7.2801e-19
28.0538 	0.337421 	0.486677 	1.62772 	7.2801e-19
28.1239 	0.337421 	0.486677 	1.62772 	7.2801e-19
28.194 	0.337421 	0.486677 	1.62772 	7.2801e-19
28.2642 	0.337421 	0.486677 	1.62772 	7.2801e-19
28.3343 	0.337421 	0.486677 	1.62772 	7.2801e-19
28.4044 	0.337421 	0.486677 	1.62772 	7.2801e-19
28.4746 	0.337421 	0.486677 	1.62772 	7.2801e-19
28.5447 	0.337421 	0.486677 	1.62772 	7.2801e-19
28.6148 	0.337421 	0.486677 	1.62772 	7.2801e-19
28.685 	0.337421 	0.486677 	1.62772 	7.2801e-19
28.7551 	0.337421 	0.486677 	1.62772 	7.2801e-19
28.8252 	0.337421 	0.486677 	1.62772 	7.2801e-19
28.8954 	0.337421 	0.486677 	1.62772 	7.2801e-19
28.9655 	0.250382 	0.480148 	1.66417 	2.87104e-20
29.0356 	0.250382 	0.480148 	1.66417 	2.87104e-20
29.1058 	0.250382 	0.480148 	1.66417 	2.87104e-20
29.1759 	0.250382 	0.480148 	1.66417 	2.87104e-20
29.246 	0.250382 	0.480148 	1.66417 	2.87104e-20
29.3162 	0.250382 	0.480148 	1.66417 	2.87104e-20
29.3863 	0.250382 	0.480148 	1.66417 	2.87104e-20
29.4564 	0.250382 	0.480148 	1.66417 	2.87104e-20
29.5266 	0.250382 	0.480148 	1.66417 	2.87104e-20
29.5967 	0.250382 	0.480148 	1.66417 	2.87104e-20
29.6668 	0.250382 	0.480148 	1.66417 	2.87104e-20
29.737 	0.250382 	0.480148 	1.66417 	2.87104e-20
29.8071 	0.250382 	0.480148 	1.66417 	2.87104e-20
29.8773 	0.250382 	0.480148 	1.66417 	2.87104e-20
29.9474 	0.250382 	0.480148 	1.66417 	2.87104e-20
30.0175 	0.250382 	0.480148 	1.66417 	2.87104e-20
30.0877 	0.250382 	0.480148 	1.66417 	2.87104e-20
30.1578 	0.250382 	0.480148 	1.66417 	2.87104e-20
30.2279 	0.250382 	0.480148 	1.66417 	2.87104e-20
30.2981 	0.250382 	0.480148 	1.66417 	2.87104e-20
30.3682 	0.250382 	0.480148 	1.66417 	2.87104e-20
30.4383 	0.250382 	0.480148 	1.66417 	2.87104e-20
30.5085 	0.250382 	0.480148 	1.66417 	2.87104e-20
30.5786 	0.250382 	0.480148 	1.66417 	2.87104e-20
30.6487 	0.250382 	0.480148 	1.66417 	2.87104e-20
30.7189 	0.250382 	0.480148 	1.66417 	2.87104e-20
30.789 	0.166299 	0.331987 	1.72649 	-2.62504e-19
30.8591 	0.166299 	0.331987 	1.72649 	-2.62504e-19
30.9293 	0.166299 	0.331987 	1.72649 	-2.62504e-19
30.9994 	0.166299 	0.331987 	1.72649 	-2.62504e-19
31.0695 	0.166299 	0.331987 	1.72649 	-2.62504e-19
31.1397 	0.166299 	0.331987 	1.72649 	-2.62504e-19
31.2098 	0.166299 	0.331987 	1.72649 	-2.62504e-19
31.2799 	0.166299 	0.331987 	1.72649 	-2.62504e-19
31.3501 	0.166299 	0.331987 	1.72649 	-2.62504e-19
31.4202 	0.166299 	0.331987 	1.72649 	-2.62504e-19
31.4903 	0.166299 	0.331987 	1.72649 	-2.62504e-19
31.5605 	0.166299 	0.331987 	1.72649 	-2.62504e-19
31.6306 	0.166299 	0.331987 	1.72649 	-2.62504e-19
31.7007 	0.166299 	0.331987 	1.72649 	-2.62504e-19
31.7709 	0.166299 	0.331987 	1.72649 	-2.62504e-19
31.841 	0.166299 	0.331987 	1.72649 	-2.62504e-19
31.9111 	0.166299 	0.331987 	1.72649 	-2.62504e-19
31.9813 	0.166299 	0.331987 	1.72649 	-2.62504e-19
32.0514 	0.166299 	0.331987 	1.72649 	-2.62504e-19
32.1216 	0.166299 	0.331987 	1.72649 	-2.62504e-19
32.1917 	0.166299 	0.331987 	1.72649 	-2.62504e-19
32.2618 	0.166299 	0.331987 	1.72649 	-2.62504e-19
32.332 	0.166299 	0.331987 	1.72649 	-2.62504e-19
32.4021 	0.166299 	0.331987 	1.72649 	-2.62504e-19
32.4722 	0.166299 	0.331987 	1.72649 	-2.62504e-19
32.5424 	0.166299 	0.331987 	1.72649 	-2.62504e-19
32.6125 	0.166299 	0.331987 	1.72649 	-2.62504e-19
32.6826 	0.166299 	0.331987 	1.72649 	-2.62504e-19
32.7528 	0.166299 	0.331987 	1.72649 	-2.62504e-19
32.8229 	0.166299 	0.331987 	1.72649 	-2.62504e-19
32.893 	0.166299 	0.331987 	1.72649 	-2.62504e-19
32.9632 	0.166299 	0.331987 	1.72649 	-2.62504e-19
33.0333 	0.166299 	0.331987 	1.72649 	-2.62504e-19
33.1034 	0.166299 	0.331987 	1.72649 	-2.62504e-19
33.1736 	0.166299 	0.331987 	1.72649 	-2.62504e-19
33.2437 	0.166299 	0.331987 	1.72649 	-2.62504e-19
33.3138 	0.166299 	0.331987 	1.72649 	-2.62504e-19
33.384 	0.166299 	0.331987 	1.72649 	-2.62504e-19
33.4541 	0.166299 	0.331987 	1.72649 	-2.62504e-19
33.5242 	0.166299 	0.331987 	1.72649 	-2.62504e-19
33.5944 	0.166299 	0.331987 	1.72649 	-2.62504e-19
33.6645 	0.166299 	0.331987 	1.72649 	-2.62504e-19
33.7346 	0.0524221 	0.345881 	1.77466 	1.20522e-19
33.8048 	0.0524221 	0.345881 	1.77466 	1.20522e-19
33.8749 	0.0524221 	0.345881 	1.77466 	1.20522e-19
33.945 	0.0524221 	0.345881 	1.77466 	1.20522e-19
34.0152 	0.0524221 	0.345881 	1.77466 	1.20522e-19
34.0853 	0.0524221 	0.345881 	1.77466 	1.20522e-19
34.1554 	0.0303391 	0.341718 	1.76925 	-9.71476e-20
34.2256 	0.0303391 	0.341718 	1.76925 	-9.71476e-20
34.2957 	0.0303391 	0.341718 	1.76925 	-9.71476e-20
34.3659 	0.0303391 	0.341718 	1.76925 	-9.71476e-20
34.436 	0.0303391 	0.341718 	1.76925 	-9.71476e-20
34.5061 	0.0303391 	0.341718 	1.76925 	-9.71476e-20
34.5763 	0.0303391 	0.341718 	1.76925 	-9.71476e-20
34.6464 	0.0303391 	0.341718 	1.76925 	-9.71476e-20
34.7165 	0.145332 	0.282994 	1.73237 	8.91516e-20
34.7867 	0.145332 	0.282994 	1.73237 	8.91516e-20
34.8568 	0.145332 	0.282994 	1.73237 	8.91516e-20
34.9269 	0.145332 	0.282994 	1.73237 	8.91516e-20
34.9971 	0.145332 	0.282994 	1.73237 	8.91516e-20
35.0672 	0.145332 	0.282994 	1.73237 	8.91516e-20
35.1373 	0.145332 	0.282994 	1.73237 	8.91516e-20
35.2075 	0.145332 	0.282994 	1.73237 	8.91516e-20
35.2776 	0.145332 	0.282994 	1.73237 	8.91516e-20
35.3477 	0.145332 	0.282994 	1.73237 	8.91516e-20
35.4179 	0.145332 	0.282994 	1.73237 	8.91516e-20
35.488 	0.145332 	0.282994 	1.73237 	8.91516e-20
35.5581 	0.145332 	0.282994 	1.73237 	8.91516e-20
35.6283 	0.145332 	0.282994 	1.73237 	8.91516e-20
35.6984 	0.145332 	0.282994 	1.73237 	8.91516e-20
35.7685 	0.145332 	0.282994 	1.73237 	8.91516e-20
35.8387 	0.145332 	0.282994 	1.73237 	8.91516e-20
35.9088 	0.145332 	0.282994 	1.73237 	8.91516e-20
35.9789 	0.145332 	0.282994 	1.73237 	8.91516e-20
36.0491 	0.166923 	0.252416 	1.72278 	0
36.1192 	0.166923 	0.252416 	1.72278 	0
36.1893 	0.166923 	0.252416 	1.72278 	0
36.2595 	0.166923 	0.252416 	1.72278 	0
36.3296 	0.166923 	0.252416 	1.72278 	0
36.3997 	0.166923 	0.252416 	1.72278 	0
36.4699 	0.166923 	0.252416 	1.72278 	0
36.54 	0.166923 	0.252416 	1.72278 	0
36.6102 	0.166923 	0.252416 	1.72278 	0
36.6803 	0.166923 	0.252416 	1.72278 	0
36.7504 	0.166923 	0.252416 	1.72278 	0
36.8206 	0.166923 	0.252416 	1.72278 	0
36.8907 	0.0809106 	0.168013 	1.76679 	8.77422e-20
36.9608 	0.0809106 	0.168013 	1.76679 	8.77422e-20
37.031 	0.0809106 	0.168013 	1.76679 	8.77422e-20
37.1011 	0.0809106 	0.168013 	1.76679 	8.77422e-20
37.1712 	0.0809106 	0.168013 	1.76679 	8.77422e-20
37.2414 	0.0809106 	0.168013 	1.76679 	8.77422e-20
37.3115 	0.0809106 	0.168013 	1.76679 	8.77422e-20
37.3816 	0.0809106 	0.168013 	1.76679 	8.77422e-20
37.4518 	0.0809106 	0.168013 	1.76679 	8.77422e-20
37.5219 	0.0809106 	0.168013 	1.76679 	8.77422e-20
37.592 	0.0809106 	0.168013 	1.76679 	8.77422e-20
37.6622 	0.0809106 	0.168013 	1.76679 	8.77422e-20
37.7323 	0.0809106 	0.168013 	1.76679 	8.77422e-20
37.8024 	0.0809106 	0.168013 	1.76679 	8.77422e-20
37.8726 	0.0809106 	0.168013 	1.76679 	8.77422e-20
37.9427 	0.0809106 	0.168013 	1.76679 	8.77422e-20
38.0128 	0.0809106 	0.168013 	1.76679 	8.77422e-20
38.083 	0.0809106 	0.168013 	1.76679 	8.77422e-20
38.1531 	0.0809106 	0.168013 	1.76679 	8.77422e-20
38.2232 	0.101086 	0.147246 	1.7563 	-1.01123e-19
38.2934 	0.101086 	0.147246 	1.7563 	-1.01123e-19
38.3635 	0.101086 	0.147246 	1.7563 	-1.01123e-19
38.4336 	0.101086 	0.147246 	1.7563 	-1.01123e-19
38.5038 	0.101086 	0.147246 	1.7563 	-1.01123e-19
38.5739 	0.101086 	0.147246 	1.7563 	-1.01123e-19
38.644 	0.101086 	0.147246 	1.7563 	-1.01123e-19
38.7142 	0.101086 	0.147246 	1.7563 	-1.01123e-19
38.7843 	0.101086 	0.147246 	1.7563 	-1.01123e-19
38.8545 	0.101086 	0.147246 	1.7563 	-1.01123e-19
38.9246 	0.101086 	0.147246 	1.7563 	-1.01123e-19
38.9947 	0.101086 	0.147246 	1.7563 	-1.01123e-19
39.0649 	0.101086 	0.147246 	1.7563 	-1.01123e-19
39.135 	0.101086 	0.147246 	1.7563 	-1.01123e-19
39.2051 	0.0412212 	0.135391 	1.79254 	0
39.2753 	0.0412212 	0.135391 	1.79254 	0
39.3454 	0.0412212 	0.135391 	1.79254 	0
39.4155 	0.0412212 	0.135391 	1.79254 	0
39.4857 	0.0412212 	0.135391 	1.79254 	0
39.5558 	0.0412212 	0.135391 	1.79254 	0
39.6259 	0.0412212 	0.135391 	1.79254 	0
39.6961 	0.0412212 	0.135391 	1.79254 	0
39.7662 	0.0412212 	0.135391 	1.79254 	0
39.8363 	0.0412212 	0.135391 	1.79254 	0
39.9065 	0.0412212 	0.135391 	1.79254 	0
39.9766 	0.0412212 	0.135391 	1.79254 	0
40.0467 	0.0412212 	0.135391 	1.79254 	0
40.1169 	0.0412212 	0.135391 	1.79254 	0
40.187 	0.0412212 	0.135391 	1.79254 	0
40.2571 	0.0412212 	0.135391 	1.79254 	0
40.3273 	0.0412212 	0.135391 	1.79254 	0
40.3974 	0.0412212 	0.135391 	1.79254 	0
40.4675 	0.0412212 	0.135391 	1.79254 	0
40.5377 	0.0412212 	0.135391 	1.79254 	0
40.6078 	0.0412212 	0.135391 	1.79254 	0
40.6779 	-0.0196532 	0.0881049 	1.78216 	-2.022e-20
40.7481 	-0.0196532 	0.0881049 	1.78216 	-2.022e-20
40.8182 	-0.0196532 	0.0881049 	1.78216 	-2.022e-20
40.8883 	-0.0196532 	0.0881049 	1.78216 	-2.022e-20
40.9585 	-0.0196532 	0.0881049 	1.78216 	-2.022e-20
41.0286 	-0.0196532 	0.0881049 	1.78216 	-2.022e-20
41.0988 	-0.0196532 	0.0881049 	1.78216 	-2.022e-20
41.1689 	-0.0196532 	0.0881049 	1.78216 	-2.022e-20
41.239 	0.0658201 	0.0555814 	1.73046 	3.7545e-20
41.3092 	0.0658201 	0.0555814 	1.73046 	3.7545e-20
41.3793 	0.0658201 	0.0555814 	1.73046 	3.7545e-20
41.4494 	0.0658201 	0.0555814 	1.73046 	3.7545e-20
41.5196 	0.0658201 	0.0555814 	1.73046 	3.7545e-20
41.5897 	0.0658201 	0.0555814 	1.73046 	3.7545e-20
41.6598 	0.0658201 	0.0555814 	1.73046 	3.7545e-20
41.73 	0.0658201 	0.0555814 	1.73046 	3.7545e-20
41.8001 	0.0658201 	0.0555814 	1.73046 	3.7545e-20
41.8702 	0.0658201 	0.0555814 	1.73046 	3.7545e-20
41.9404 	0.0658201 	0.0555814 	1.73046 	3.7545e-20
42.0105 	0.0658201 	0.0555814 	1.73046 	3.7545e-20
42.0806 	0.0658201 	0.0555814 	1.73046 	3.7545e-20
42.1508 	0.0658201 	0.0555814 	1.73046 	3.7545e-20
42.2209 	0.0658201 	0.0555814 	1.73046 	3.7545e-20
42.291 	0.0658201 	0.0555814 	1.73046 	3.7545e-20
42.3612 	0.0658201 	0.0555814 	1.73046 	3.7545e-20
42.4313 	0.0658201 	0.0555814 	1.73046 	3.7545e-20
42.5014 	0.0658201 	0.0555814 	1.73046 	3.7545e-20
42.5716 	0.0658201 	0.0555814 	1.73046 	3.7545e-20
42.6417 	0.0658201 	0.0555814 	1.73046 	3.7545e-20
42.7118 	0.0858449 	0.037189 	1.70617 	0
42.782 	0.0858449 	0.037189 	1.70617 	0
42.8521 	0.0858449 	0.037189 	1.70617 	0
42.9222 	0.0858449 	0.037189 	1.70617 	0
42.9924 	0.087441 	0.0313082 	1.73497 	0
43.0625 	0.087441 	0.0313082 	1.73497 	0
43.1327 	0.087441 	0.0313082 	1.73497 	0
43.2028 	0.087441 	0.0313082 	1.73497 	0
43.2729 	0.087441 	0.0313082 	1.73497 	0
43.3431 	0.087441 	0.0313082 	1.73497 	0
43.4132 	0.087441 	0.0313082 	1.73497 	0
43.4833 	0.087441 	0.0313082 	1.73497 	0
43.5535 	0.087441 	0.0313082 	1.73497 	0
43.6236 	0.087441 	0.0313082 	1.73497 	0
43.6937 	0.087441 	0.0313082 	1.73497 	0
43.7639 	0.087441 	0.0313082 	1.73497 	0
43.834 	0.087441 	0.0313082 	1.73497 	0
43.9041 	0.087441 	0.0313082 	1.73497 	0