0.490941 	1.13427 	0.00610775 	3.00276 	0
0.561075 	1.13427 	0.00610775 	3.00276 	0
0.63121 	1.13427 	0.00610775 	3.00276 	0
0.701344 	1.13427 	0.00610775 	3.00276 	0
0.771478 	1.13427 	0.00610775 	3.00276 	0
0.841613 	1.13427 	0.00610775 	3.00276 	0
0.911747 	1.13427 	0.00610775 	3.00276 	0
0.981881 	1.13427 	0.00610775 	3.00276 	0
1.05202 	1.13427 	0.00610775 	3.00276 	0
1.12215 	1.13427 	0.00610775 	3.00276 	0
1.19228 	1.13427 	0.00610775 	3.00276 	0
1.26242 	1.10814 	0.0114988 	3.00807 	0
1.33255 	1.10814 	0.0114988 	3.00807 	0
1.40269 	1.10814 	0.0114988 	3.00807 	0
1.47282 	1.10814 	0.0114988 	3.00807 	0
1.54296 	1.10814 	0.0114988 	3.00807 	0
1.61309 	1.10814 	0.0114988 	3.00807 	0
1.68323 	1.10814 	0.0114988 	3.00807 	0
1.75336 	1.10814 	0.0114988 	3.00807 	0
1.82349 	1.05829 	0.0149218 	3.02367 	4.06046e-19
1.89363 	1.05829 	0.0149218 	3.02367 	4.06046e-19
1.96376 	1.05829 	0.0149218 	3.02367 	4.06046e-19
2.0339 	1.05829 	0.0149218 	3.02367 	4.06046e-19
2.10403 	1.05829 	0.0149218 	3.02367 	4.06046e-19
2.17417 	1.05829 	0.0149218 	3.02367 	4.06046e-19
2.2443 	1.05829 	0.0149218 	3.02367 	4.06046e-19
2.31443 	1.05829 	0.0149218 	3.02367 	4.06046e-19
2.38457 	1.05829 	0.0149218 	3.02367 	4.06046e-19
2.4547 	1.05829 	0.0149218 	3.02367 	4.06046e-19
2.52484 	1.05829 	0.0149218 	3.02367 	4.06046e-19
2.59497 	1.0236 	0.00742796 	3.03693 	-6.43691e-19
2.66511 	1.0236 	0.00742796 	3.03693 	-6.43691e-19
2.73524 	1.0236 	0.00742796 	3.03693 	-6.43691e-19
2.80538 	1.0236 	0.00742796 	3.03693 	-6.43691e-19
2.87551 	1.0236 	0.00742796 	3.03693 	-6.43691e-19
2.94564 	1.0236 	0.00742796 	3.03693 	-6.43691e-19
3.01578 	1.0236 	0.00742796 	3.03693 	-6.43691e-19
3.08591 	1.0236 	0.00742796 	3.03693 	-6.43691e-19
3.15605 	1.0236 	0.00742796 	3.03693 	-6.43691e-19
3.22618 	1.0236 	0.00742796 	3.03693 	-6.43691e-19
3.29632 	0.991297 	0.0201657 	3.04333 	6.49073e-19
3.36645 	0.991297 	0.0201657 	3.04333 	6.49073e-19
3.43659 	0.991297 	0.0201657 	3.04333 	6.49073e-19
3.50672 	0.991297 	0.0201657 	3.04333 	6.49073e-19
3.57685 	0.991297 	0.0201657 	3.04333 	6.49073e-19
3.64699 	0.991297 	0.0201657 	3.04333 	6.49073e-19
3.71712 	0.991297 	0.0201657 	3.04333 	6.49073e-19
3.78726 	0.991297 	0.0201657 	3.04333 	6.49073e-19
3.85739 	0.991297 	0.0201657 	3.04333 	6.49073e-19
3.92753 	0.991297 	0.0201657 	3.04333 	6.49073e-19
3.99766 	0.991297 	0.0201657 	3.04333 	6.49073e-19
4.06779 	0.973176 	0.00364547 	3.05028 	-1.82579e-20
4.13793 	0.973176 	0.00364547 	3.05028 	-1.82579e-20
4.20806 	0.973176 	0.00364547 	3.05028 	-1.82579e-20
4.2782 	0.973176 	0.00364547 	3.05028 	-1.82579e-20
4.34833 	0.973176 	0.00364547 	3.05028 	-1.82579e-20
4.41847 	0.973176 	0.00364547 	3.05028 	-1.82579e-20
4.4886 	0.948273 	0.0165938 	3.05775 	0
4.55874 	0.948273 	0.0165938 	3.05775 	0
4.62887 	0.948273 	0.0165938 	3.05775 	0
4.699 	0.948273 	0.0165938 	3.05775 	0
4.76914 	0.948273 	0.0165938 	3.05775 	0
4.83927 	0.948273 	0.0165938 	3.05775 	0
4.90941 	0.948273 	0.0165938 	3.05775 	0
4.97954 	0.948273 	0.0165938 	3.05775 	0
5.04968 	0.948273 	0.0165938 	3.05775 	0
5.11981 	0.948273 	0.0165938 	3.05775 	0
5.18994 	0.925847 	0.0056056 	3.06474 	-8.62659e-21
5.26008 	0.925847 	0.0056056 	3.06474 	-8.62659e-21
5.33021 	0.925847 	0.0056056 	3.06474 	-8.62659e-21
5.40035 	0.925847 	0.0056056 	3.06474 	-8.62659e-21
5.47048 	0.925847 	0.0056056 	3.06474 	-8.62659e-21
5.54062 	0.925847 	0.0056056 	3.06474 	-8.62659e-21
5.61075 	0.925847 	0.0056056 	3.06474 	-8.62659e-21
5.68089 	0.897057 	0.0114158 	3.07452 	0
5.75102 	0.897057 	0.0114158 	3.07452 	0
5.82115 	0.897057 	0.0114158 	3.07452 	0
5.89129 	0.897057 	0.0114158 	3.07452 	0
5.96142 	0.897057 	0.0114158 	3.07452 	0
6.03156 	0.897057 	0.0114158 	3.07452 	0
6.10169 	0.897057 	0.0114158 	3.07452 	0
6.17183 	0.897057 	0.0114158 	3.07452 	0
6.24196 	0.897057 	0.0114158 	3.07452 	0
6.3121 	0.868559 	0.0070615 	3.0822 	0
6.38223 	0.868559 	0.0070615 	3.0822 	0
6.45236 	0.868559 	0.0070615 	3.0822 	0
6.5225 	0.868559 	0.0070615 	3.0822 	0
6.59263 	0.868559 	0.0070615 	3.0822 	0
6.66277 	0.868559 	0.0070615 	3.0822 	0
6.7329 	0.868559 	0.0070615 	3.0822 	0
6.80304 	0.868559 	0.0070615 	3.0822 	0
6.87317 	0.84221 	0.00623274 	3.09117 	2.89013e-19
6.9433 	0.84221 	0.00623274 	3.09117 	2.89013e-19
7.01344 	0.84221 	0.00623274 	3.09117 	2.89013e-19
7.08357 	0.84221 	0.00623274 	3.09117 	2.89013e-19
7.15371 	0.84221 	0.00623274 	3.09117 	2.89013e-19
7.22384 	0.84221 	0.00623274 	3.09117 	2.89013e-19
7.29398 	0.84221 	0.00623274 	3.09117 	2.89013e-19
7.36411 	0.84221 	0.00623274 	3.09117 	2.89013e-19
7.43425 	0.84221 	0.00623274 	3.09117 	2.89013e-19
7.50438 	0.811077 	0.00848189 	3.10023 	-2.15047e-18
7.57451 	0.811077 	0.00848189 	3.10023 	-2.15047e-18
7.64465 	0.811077 	0.00848189 	3.10023 	-2.15047e-18
7.71478 	0.811077 	0.00848189 	3.10023 	-2.15047e-18
7.78492 	0.811077 	0.00848189 	3.10023 	-2.15047e-18
7.85505 	0.811077 	0.00848189 	3.10023 	-2.15047e-18
7.92519 	0.811077 	0.00848189 	3.10023 	-2.15047e-18
7.99532 	0.811077 	0.00848189 	3.10023 	-2.15047e-18
8.06545 	0.792032 	0.00210908 	3.10479 	2.14529e-18
8.13559 	0.792032 	0.00210908 	3.10479 	2.14529e-18
8.20572 	0.792032 	0.00210908 	3.10479 	2.14529e-18
8.27586 	0.792032 	0.00210908 	3.10479 	2.14529e-18
8.34599 	0.792032 	0.00210908 	3.10479 	2.14529e-18
8.41613 	0.792032 	0.00210908 	3.10479 	2.14529e-18
8.48626 	0.792032 	0.00210908 	3.10479 	2.14529e-18
8.5564 	0.792032 	0.00210908 	3.10479 	2.14529e-18
8.62653 	0.792032 	0.00210908 	3.10479 	2.14529e-18
8.69666 	0.758108 	0.0118851 	3.11931 	1.96843e-18
8.7668 	0.758108 	0.0118851 	3.11931 	1.96843e-18
8.83693 	0.758108 	0.0118851 	3.11931 	1.96843e-18
8.90707 	0.758108 	0.0118851 	3.11931 	1.96843e-18
8.9772 	0.758108 	0.0118851 	3.11931 	1.96843e-18
9.04734 	0.758108 	0.0118851 	3.11931 	1.96843e-18
9.11747 	0.758108 	0.0118851 	3.11931 	1.96843e-18
9.18761 	0.758108 	0.0118851 	3.11931 	1.96843e-18
9.25774 	0.727836 	0.00303222 	3.11911 	-1.79777e-18
9.32787 	0.727836 	0.00303222 	3.11911 	-1.79777e-18
9.39801 	0.727836 	0.00303222 	3.11911 	-1.79777e-18
9.46814 	0.727836 	0.00303222 	3.11911 	-1.79777e-18
9.53828 	0.727836 	0.00303222 	3.11911 	-1.79777e-18
9.60841 	0.727836 	0.00303222 	3.11911 	-1.79777e-18
9.67855 	0.727836 	0.00303222 	3.11911 	-1.79777e-18
9.74868 	0.727836 	0.00303222 	3.11911 	-1.79777e-18
9.81881 	0.711749 	0.0170938 	3.12969 	-5.51045e-19
9.88895 	0.711749 	0.0170938 	3.12969 	-5.51045e-19
9.95908 	0.711749 	0.0170938 	3.12969 	-5.51045e-19
10.0292 	0.711749 	0.0170938 	3.12969 	-5.51045e-19
10.0994 	0.711749 	0.0170938 	3.12969 	-5.51045e-19
10.1695 	0.711749 	0.0170938 	3.12969 	-5.51045e-19
10.2396 	0.711749 	0.0170938 	3.12969 	-5.51045e-19
10.3098 	0.711749 	0.0170938 	3.12969 	-5.51045e-19
10.3799 	0.711749 	0.0170938 	3.12969 	-5.51045e-19
10.45 	0.711749 	0.0170938 	3.12969 	-5.51045e-19
10.5202 	0.711749 	0.0170938 	3.12969 	-5.51045e-19
10.5903 	0.711749 	0.0170938 	3.12969 	-5.51045e-19
10.6604 	0.732341 	0.0156056 	3.12576 	8.11051e-19
10.7306 	0.680666 	0.0353253 	3.13958 	0
10.8007 	0.680666 	0.0353253 	3.13958 	0
10.8708 	0.680666 	0.0353253 	3.13958 	0
10.941 	0.680666 	0.0353253 	3.13958 	0
11.0111 	0.680666 	0.0353253 	3.13958 	0
11.0812 	0.680666 	0.0353253 	3.13958 	0
11.1514 	0.680666 	0.0353253 	3.13958 	0
11.2215 	0.680666 	0.0353253 	3.13958 	0
11.2916 	0.680666 	0.0353253 	3.13958 	0
11.3618 	0.680666 	0.0353253 	3.13958 	0
11.4319 	0.680666 	0.0353253 	3.13958 	0
11.502 	0.680666 	0.0353253 	3.13958 	0
11.5722 	0.680666 	0.0353253 	3.13958 	0
11.6423 	0.680666 	0.0353253 	3.13958 	0
11.7124 	0.688171 	0.0223172 	3.12952 	0
11.7826 	0.628873 	0.075006 	3.1598 	9.17436e-19
11.8527 	0.628873 	0.075006 	3.1598 	9.17436e-19
11.9228 	0.628873 	0.075006 	3.1598 	9.17436e-19
11.993 	0.628873 	0.075006 	3.1598 	9.17436e-19
12.0631 	0.628873 	0.075006 	3.1598 	9.17436e-19
12.1332 	0.628873 	0.075006 	3.1598 	9.17436e-19
12.2034 	0.533945 	0.0675038 	3.18549 	-4.52899e-19
12.2735 	0.533945 	0.0675038 	3.18549 	-4.52899e-19
12.3437 	0.533945 	0.0675038 	3.18549 	-4.52899e-19
12.4138 	0.533945 	0.0675038 	3.18549 	-4.52899e-19
12.4839 	0.533945 	0.0675038 	3.18549 	-4.52899e-19
12.5541 	0.533945 	0.0675038 	3.18549 	-4.52899e-19
12.6242 	0.533945 	0.0675038 	3.18549 	-4.52899e-19
12.6943 	0.533945 	0.0675038 	3.18549 	-4.52899e-19
12.7645 	0.533945 	0.0675038 	3.18549 	-4.52899e-19
12.8346 	0.421416 	0.0345262 	3.17755 	4.18143e-19
12.9047 	0.408753 	0.134487 	3.22041 	-2.03877e-19
12.9749 	0.408753 	0.134487 	3.22041 	-2.03877e-19
13.045 	0.408753 	0.134487 	3.22041 	-2.03877e-19
13.1151 	0.408753 	0.134487 	3.22041 	-2.03877e-19
13.1853 	0.408753 	0.134487 	3.22041 	-2.03877e-19
13.2554 	0.408753 	0.134487 	3.22041 	-2.03877e-19
13.3255 	0.408753 	0.134487 	3.22041 	-2.03877e-19
13.3957 	0.634199 	0.13953 	3.19205 	1.42568e-18
13.4658 	0.634199 	0.13953 	3.19205 	1.42568e-18
13.5359 	0.634199 	0.13953 	3.19205 	1.42568e-18
13.6061 	0.634199 	0.13953 	3.19205 	1.42568e-18
13.6762 	0.634199 	0.13953 	3.19205 	1.42568e-18
13.7463 	0.634199 	0.13953 	3.19205 	1.42568e-18
13.8165 	0.714964 	0.108394 	2.86507 	-1.18111e-18
13.8866 	0.928064 	0.131573 	2.95922 	5.43883e-19
13.9567 	0.928064 	0.131573 	2.95922 	5.43883e-19
14.0269 	0.344286 	0.241873 	3.03211 	-1.80814e-18
14.097 	0.344286 	0.241873 	3.03211 	-1.80814e-18
14.1671 	0.344286 	0.241873 	3.03211 	-1.80814e-18
14.2373 	0.344286 	0.241873 	3.03211 	-1.80814e-18
14.3074 	0.344286 	0.241873 	3.03211 	-1.80814e-18
14.3776 	0.344286 	0.241873 	3.03211 	-1.80814e-18
14.4477 	0.344286 	0.241873 	3.03211 	-1.80814e-18
14.5178 	0.344286 	0.241873 	3.03211 	-1.80814e-18
14.588 	0.344286 	0.241873 	3.03211 	-1.80814e-18
14.6581 	0.344286 	0.241873 	3.03211 	-1.80814e-18
14.7282 	0.344286 	0.241873 	3.03211 	-1.80814e-18
14.7984 	0.344286 	0.241873 	3.03211 	-1.80814e-18
14.8685 	0.344286 	0.241873 	3.03211 	-1.80814e-18
14.9386 	0.168348 	0.336063 	3.19098 	0
15.0088 	0.168348 	0.336063 	3.19098 	0
15.0789 	0.168348 	0.336063 	3.19098 	0
15.149 	0.168348 	0.336063 	3.19098 	0
15.2192 	0.168348 	0.336063 	3.19098 	0
15.2893 	-0.338822 	0.337934 	3.41656 	-2.11729e-19
15.3594 	-0.338822 	0.337934 	3.41656 	-2.11729e-19
15.4296 	-0.338822 	0.337934 	3.41656 	-2.11729e-19
15.4997 	-0.338822 	0.337934 	3.41656 	-2.11729e-19
15.5698 	-0.338822 	0.337934 	3.41656 	-2.11729e-19
15.64 	-0.338822 	0.337934 	3.41656 	-2.11729e-19
15.7101 	-0.830376 	0.392964 	3.48693 	0
15.7802 	-0.830376 	0.392964 	3.48693 	0
15.8504 	-0.722484 	0.64448 	3.54333 	1.26474e-18
15.9205 	-0.722484 	0.64448 	3.54333 	1.26474e-18
15.9906 	-0.722484 	0.64448 	3.54333 	1.26474e-18
16.0608 	-0.722484 	0.64448 	3.54333 	1.26474e-18
16.1309 	-0.722484 	0.64448 	3.54333 	1.26474e-18
16.201 	-0.722484 	0.64448 	3.54333 	1.26474e-18
16.2712 	-0.722484 	0.64448 	3.54333 	1.26474e-18
16.3413 	-0.722484 	0.64448 	3.54333 	1.26474e-18
16.4114 	-0.722484 	0.64448 	3.54333 	1.26474e-18
16.4816 	-0.722484 	0.64448 	3.54333 	1.26474e-18
16.5517 	-0.722484 	0.64448 	3.54333 	1.26474e-18
16.6219 	-0.722484 	0.64448 	3.54333 	1.26474e-18
16.692 	-0.722484 	0.64448 	3.54333 	1.26474e-18
16.7621 	-0.722484 	0.64448 	3.54333 	1.26474e-18
16.8323 	-0.269394 	0.867554 	3.11164 	7.29124e-20
16.9024 	-0.269394 	0.867554 	3.11164 	7.29124e-20
16.9725 	-0.269394 	0.867554 	3.11164 	7.29124e-20
17.0427 	-0.269394 	0.867554 	3.11164 	7.29124e-20
17.1128 	-0.269394 	0.867554 	3.11164 	7.29124e-20
17.1829 	-0.269394 	0.867554 	3.11164 	7.29124e-20
17.2531 	-0.269394 	0.867554 	3.11164 	7.29124e-20
17.3232 	-0.269394 	0.867554 	3.11164 	7.29124e-20
17.3933 	-0.269394 	0.867554 	3.11164 	7.29124e-20
17.4635 	-0.269394 	0.867554 	3.11164 	7.29124e-20
17.5336 	-0.174091 	0.910611 	3.02797 	-3.80466e-20
17.6037 	-0.174091 	0.910611 	3.02797 	-3.80466e-20
17.6739 	-0.174091 	0.910611 	3.02797 	-3.80466e-20
17.744 	-0.265311 	1.03962 	3.1576 	1.33816e-19
17.8141 	-0.265311 	1.03962 	3.1576 	1.33816e-19
17.8843 	-0.265311 	1.03962 	3.1576 	1.33816e-19
17.9544 	-0.265311 	1.03962 	3.1576 	1.33816e-19
18.0245 	-0.265311 	1.03962 	3.1576 	1.33816e-19
18.0947 	-0.265311 	1.03962 	3.1576 	1.33816e-19
18.1648 	-0.265311 	1.03962 	3.1576 	1.33816e-19
18.2349 	-0.265311 	1.03962 	3.1576 	1.33816e-19
18.3051 	-0.265311 	1.03962 	3.1576 	1.33816e-19
18.3752 	0.0229153 	1.00272 	2.75868 	-1.01763e-19
18.4453 	0.0229153 	1.00272 	2.75868 	-1.01763e-19
18.5155 	0.0229153 	1.00272 	2.75868 	-1.01763e-19
18.5856 	0.0229153 	1.00272 	2.75868 	-1.01763e-19
18.6557 	0.0229153 	1.00272 	2.75868 	-1.01763e-19
18.7259 	0.0229153 	1.00272 	2.75868 	-1.01763e-19
18.796 	0.0229153 	1.00272 	2.75868 	-1.01763e-19
18.8662 	0.0843867 	1.04221 	2.81742 	-1.63505e-19
18.9363 	0.0843867 	1.04221 	2.81742 	-1.63505e-19
19.0064 	0.0843867 	1.04221 	2.81742 	-1.63505e-19
19.0766 	0.0843867 	1.04221 	2.81742 	-1.63505e-19
19.1467 	0.0843867 	1.04221 	2.81742 	-1.63505e-19
19.2168 	0.0843867 	1.04221 	2.81742 	-1.63505e-19
19.287 	0.0843867 	1.04221 	2.81742 	-1.63505e-19
19.3571 	0.0843867 	1.04221 	2.81742 	-1.63505e-19
19.4272 	0.0843867 	1.04221 	2.81742 	-1.63505e-19
19.4974 	0.0843867 	1.04221 	2.81742 	-1.63505e-19
19.5675 	0.0843867 	1.04221 	2.81742 	-1.63505e-19
19.6376 	0.0843867 	1.04221 	2.81742 	-1.63505e-19
19.7078 	0.0843867 	1.04221 	2.81742 	-1.63505e-19
19.7779 	0.230699 	0.988936 	2.44219 	-1.13674e-19
19.848 	0.230699 	0.988936 	2.44219 	-1.13674e-19
19.9182 	0.230699 	0.988936 	2.44219 	-1.13674e-19
19.9883 	0.230699 	0.988936 	2.44219 	-1.13674e-19
20.0584 	0.230699 	0.988936 	2.44219 	-1.13674e-19
20.1286 	0.230699 	0.988936 	2.44219 	-1.13674e-19
20.1987 	0.230699 	0.988936 	2.44219 	-1.13674e-19
20.2688 	0.224809 	0.995131 	2.43476 	2.96246e-19
20.339 	0.224809 	0.995131 	2.43476 	2.96246e-19
20.4091 	0.224809 	0.995131 	2.43476 	2.96246e-19
20.4792 	0.224809 	0.995131 	2.43476 	2.96246e-19
20.5494 	0.224809 	0.995131 	2.43476 	2.96246e-19
20.6195 	0.224809 	0.995131 	2.43476 	2.96246e-19
20.6896 	0.224809 	0.995131 	2.43476 	2.96246e-19
20.7598 	0.224809 	0.995131 	2.43476 	2.96246e-19
20.8299 	0.224809 	0.995131 	2.43476 	2.96246e-19
20.9 	0.224809 	0.995131 	2.43476 	2.96246e-19
20.9702 	0.224809 	0.995131 	2.43476 	2.96246e-19
21.0403 	0.224809 	0.995131 	2.43476 	2.96246e-19
21.1105 	0.224809 	0.995131 	2.43476 	2.96246e-19
21.1806 	0.224809 	0.995131 	2.43476 	2.96246e-19
21.2507 	0.224809 	0.995131 	2.43476 	2.96246e-19
21.3209 	0.224809 	0.995131 	2.43476 	2.96246e-19
21.391 	0.224809 	0.995131 	2.43476 	2.96246e-19
21.4611 	0.239763 	0.69714 	1.89758 	-4.0578e-19
21.5313 	0.239763 	0.69714 	1.89758 	-4.0578e-19
21.6014 	0.239763 	0.69714 	1.89758 	-4.0578e-19
21.6715 	0.134571 	0.608733 	1.39391 	-4.20911e-20
21.7417 	0.134571 	0.608733 	1.39391 	-4.20911e-20
21.8118 	0.134571 	0.608733 	1.39391 	-4.20911e-20
21.8819 	0.134571 	0.608733 	1.39391 	-4.20911e-20
21.9521 	0.134571 	0.608733 	1.39391 	-4.20911e-20
22.0222 	0.000350894 	0.931464 	2.33582 	1.01817e-19
22.0923 	0.000350894 	0.931464 	2.33582 	1.01817e-19
22.1625 	0.000350894 	0.931464 	2.33582 	1.01817e-19
22.2326 	0.000350894 	0.931464 	2.33582 	1.01817e-19
22.3027 	0.000350894 	0.931464 	2.33582 	1.01817e-19
22.3729 	0.000350894 	0.931464 	2.33582 	1.01817e-19
22.443 	0.000350894 	0.931464 	2.33582 	1.01817e-19
22.5131 	0.000350894 	0.931464 	2.33582 	1.01817e-19
22.5833 	0.000350894 	0.931464 	2.33582 	1.01817e-19
22.6534 	0.000350894 	0.931464 	2.33582 	1.01817e-19
22.7235 	0.000350894 	0.931464 	2.33582 	1.01817e-19
22.7937 	0.000350894 	0.931464 	2.33582 	1.01817e-19
22.8638 	0.000350894 	0.931464 	2.33582 	1.01817e-19
22.9339 	0.000350894 	0.931464 	2.33582 	1.01817e-19
23.0041 	0.000350894 	0.931464 	2.33582 	1.01817e-19
23.0742 	0.000350894 	0.931464 	2.33582 	1.01817e-19
23.1443 	0.000350894 	0.931464 	2.33582 	1.01817e-19
23.2145 	0.000350894 	0.931464 	2.33582 	1.01817e-19
23.2846 	0.000350894 	0.931464 	2.33582 	1.01817e-19
23.3548 	0.000350894 	0.931464 	2.33582 	1.01817e-19
23.4249 	0.000350894 	0.931464 	2.33582 	1.01817e-19
23.495 	0.189909 	0.899319 	2.31546 	-8.37417e-20
23.5652 	0.189909 	0.899319 	2.31546 	-8.37417e-20
23.6353 	0.189909 	0.899319 	2.31546 	-8.37417e-20
23.7054 	0.189909 	0.899319 	2.31546 	-8.37417e-20
23.7756 	0.189909 	0.899319 	2.31546 	-8.37417e-20
23.8457 	0.189909 	0.899319 	2.31546 	-8.37417e-20
23.9158 	0.189909 	0.899319 	2.31546 	-8.37417e-20
23.986 	0.318863 	0.837419 	2.17297 	3.8402e-21
24.0561 	0.318863 	0.837419 	2.17297 	3.8402e-21
24.1262 	0.318863 	0.837419 	2.17297 	3.8402e-21
24.1964 	0.318863 	0.837419 	2.17297 	3.8402e-21
24.2665 	0.318863 	0.837419 	2.17297 	3.8402e-21
24.3366 	0.318863 	0.837419 	2.17297 	3.8402e-21
24.4068 	0.318863 	0.837419 	2.17297 	3.8402e-21
24.4769 	0.318863 	0.837419 	2.17297 	3.8402e-21
24.547 	0.318863 	0.837419 	2.17297 	3.8402e-21
24.6172 	0.318863 	0.837419 	2.17297 	3.8402e-21
24.6873 	0.318863 	0.837419 	2.17297 	3.8402e-21
24.7574 	0.318863 	0.837419 	2.17297 	3.8402e-21
24.8276 	0.318863 	0.837419 	2.17297 	3.8402e-21
24.8977 	0.318863 	0.837419 	2.17297 	3.8402e-21
24.9678 	0.318863 	0.837419 	2.17297 	3.8402e-21
25.038 	0.318863 	0.837419 	2.17297 	3.8402e-21
25.1081 	0.318863 	0.837419 	2.17297 	3.8402e-21
25.1782 	0.265901 	0.498092 	1.34394 	0
25.2484 	0.265901 	0.498092 	1.34394 	0
25.3185 	0.265901 	0.498092 	1.34394 	0
25.3886 	0.265901 	0.498092 	1.34394 	0
25.4588 	0.265901 	0.498092 	1.34394 	0
25.5289 	0.265901 	0.498092 	1.34394 	0
25.5991 	0.265901 	0.498092 	1.34394 	0
25.6692 	0.265901 	0.498092 	1.34394 	0
25.7393 	0.265901 	0.498092 	1.34394 	0
25.8095 	0.265901 	0.498092 	1.34394 	0
25.8796 	0.265901 	0.498092 	1.34394 	0
25.9497 	0.265901 	0.498092 	1.34394 	0
26.0199 	0.265901 	0.498092 	1.34394 	0
26.09 	0.265901 	0.498092 	1.34394 	0
26.1601 	0.265901 	0.498092 	1.34394 	0
26.2303 	0.170587 	0.49993 	1.36759 	-2.75581e-19
26.3004 	0.170587 	0.49993 	1.36759 	-2.75581e-19
26.3705 	0.170587 	0.49993 	1.36759 	-2.75581e-19
26.4407 	0.170587 	0.49993 	1.36759 	-2.75581e-19
26.5108 	0.170587 	0.49993 	1.36759 	-2.75581e-19
26.5809 	0.170587 	0.49993 	1.36759 	-2.75581e-19
26.6511 	0.170587 	0.49993 	1.36759 	-2.75581e-19
26.7212 	0.170587 	0.49993 	1.36759 	-2.75581e-19
26.7913 	0.170587 	0.49993 	1.36759 	-2.75581e-19
26.8615 	0.170587 	0.49993 	1.36759 	-2.75581e-19
26.9316 	0.170587 	0.49993 	1.36759 	-2.75581e-19
27.0017 	0.170587 	0.49993 	1.36759 	-2.75581e-19
27.0719 	0.170587 	0.49993 	1.36759 	-2.75581e-19
27.142 	0.170587 	0.49993 	1.36759 	-2.75581e-19
27.2121 	0.170587 	0.49993 	1.36759 	-2.75581e-19
27.2823 	0.170587 	0.49993 	1.36759 	-2.75581e-19
27.3524 	0.109687 	0.493406 	1.37056 	3.02664e-19
27.4225 	0.109687 	0.493406 	1.37056 	3.02664e-19
27.4927 	0.109687 	0.493406 	1.37056 	3.02664e-19
27.5628 	0.109687 	0.493406 	1.37056 	3.02664e-19
27.6329 	0.109687 	0.493406 	1.37056 	3.02664e-19
27.7031 	0.109687 	0.493406 	1.37056 	3.02664e-19
27.7732 	0.109687 	0.493406 	1.37056 	3.02664e-19
27.8434 	0.109687 	0.493406 	1.37056 	3.02664e-19
27.9135 	0.109687 	0.493406 	1.37056 	3.02664e-19
27.9836 	0.109687 	0.493406 	1.37056 	3.02664e-19
28.0538 	0.109687 	0.493406 	1.37056 	3.02664e-19
28.1239 	0.109687 	0.493406 	1.37056 	3.02664e-19
28.194 	0.109687 	0.493406 	1.37056 	3.02664e-19
28.2642 	0.109687 	0.493406 	1.37056 	3.02664e-19
28.3343 	0.109687 	0.493406 	1.37056 	3.02664e-19
28.4044 	0.109687 	0.493406 	1.37056 	3.02664e-19
28.4746 	0.109687 	0.493406 	1.37056 	3.02664e-19
28.5447 	0.109687 	0.493406 	1.37056 	3.02664e-19
28.6148 	0.109687 	0.493406 	1.37056 	3.02664e-19
28.685 	0.109687 	0.493406 	1.37056 	3.02664e-19
28.7551 	0.109687 	0.493406 	1.37056 	3.02664e-19
28.8252 	0.109687 	0.493406 	1.37056 	3.02664e-19
28.8954 	0.109687 	0.493406 	1.37056 	3.02664e-19
28.9655 	0.0595586 	0.439035 	1.29325 	7.83044e-21
29.0356 	0.0595586 	0.439035 	1.29325 	7.83044e-21
29.1058 	0.0595586 	0.439035 	1.29325 	7.83044e-21
29.1759 	0.0595586 	0.439035 	1.29325 	7.83044e-21
29.246 	0.0595586 	0.439035 	1.29325 	7.83044e-21
29.3162 	0.0595586 	0.439035 	1.29325 	7.83044e-21
29.3863 	0.0595586 	0.439035 	1.29325 	7.83044e-21
29.4564 	0.0595586 	0.439035 	1.29325 	7.83044e-21
29.5266 	0.0595586 	0.439035 	1.29325 	7.83044e-21
29.5967 	0.0595586 	0.439035 	1.29325 	7.83044e-21
29.6668 	0.0595586 	0.439035 	1.29325 	7.83044e-21
29.737 	0.0595586 	0.439035 	1.29325 	7.83044e-21
29.8071 	0.0595586 	0.439035 	1.29325 	7.83044e-21
29.8773 	0.0595586 	0.439035 	1.29325 	7.83044e-21
29.9474 	0.0595586 	0.439035 	1.29325 	7.83044e-21
30.0175 	0.0595586 	0.439035 	1.29325 	7.83044e-21
30.0877 	0.0595586 	0.439035 	1.29325 	7.83044e-21
30.1578 	0.0595586 	0.439035 	1.29325 	7.83044e-21
30.2279 	0.0595586 	0.439035 	1.29325 	7.83044e-21
30.2981 	0.0595586 	0.439035 	1.29325 	7.83044e-21
30.3682 	0.0595586 	0.439035 	1.29325 	7.83044e-21
30.4383 	0.0595586 	0.439035 	1.29325 	7.83044e-21
30.5085 	0.0595586 	0.439035 	1.29325 	7.83044e-21
30.5786 	0.0595586 	0.439035 	1.29325 	7.83044e-21
30.6487 	0.0595586 	0.439035 	1.29325 	7.83044e-21
30.7189 	0.0595586 	0.439035 	1.29325 	7.83044e-21
30.789 	0.0522531 	0.3711 	1.30646 	-6.98893e-20
30.8591 	0.0522531 	0.3711 	1.30646 	-6.98893e-20
30.9293 	0.0522531 	0.3711 	1.30646 	-6.98893e-20
30.9994 	0.0522531 	0.3711 	1.30646 	-6.98893e-20
31.0695 	0.0522531 	0.3711 	1.30646 	-6.98893e-20
31.1397 	0.0522531 	0.3711 	1.30646 	-6.98893e-20
31.2098 	0.0522531 	0.3711 	1.30646 	-6.98893e-20
31.2799 	0.0522531 	0.3711 	1.30646 	-6.98893e-20
31.3501 	0.0522531 	0.3711 	1.30646 	-6.98893e-20
31.4202 	0.0522531 	0.3711 	1.30646 	-6.98893e-20
31.4903 	0.0522531 	0.3711 	1.30646 	-6.98893e-20
31.5605 	0.0522531 	0.3711 	1.30646 	-6.98893e-20
31.6306 	0.0522531 	0.3711 	1.30646 	-6.98893e-20
31.7007 	0.0522531 	0.3711 	1.30646 	-6.98893e-20
31.7709 	0.0522531 	0.3711 	1.30646 	-6.98893e-20
31.841 	0.0522531 	0.3711 	1.30646 	-6.98893e-20
31.9111 	0.0522531 	0.3711 	1.30646 	-6.98893e-20
31.9813 	0.0522531 	0.3711 	1.30646 	-6.98893e-20
32.0514 	0.0522531 	0.3711 	1.30646 	-6.98893e-20
32.1216 	0.0522531 	0.3711 	1.30646 	-6.98893e-20
32.1917 	0.0522531 	0.3711 	1.30646 	-6.98893e-20
32.2618 	0.0522531 	0.3711 	1.30646 	-6.98893e-20
32.332 	0.0522531 	0.3711 	1.30646 	-6.98893e-20
32.4021 	0.0522531 	0.3711 	1.30646 	-6.98893e-20
32.4722 	0.0522531 	0.3711 	1.30646 	-6.98893e-20
32.5424 	0.0522531 	0.3711 	1.30646 	-6.98893e-20
32.6125 	0.0522531 	0.3711 	1.30646 	-6.98893e-20
32.6826 	0.0522531 	0.3711 	1.30646 	-6.98893e-20
32.7528 	0.0522531 	0.3711 	1.30646 	-6.98893e-20
32.8229 	0.0522531 	0.3711 	1.30646 	-6.98893e-20
32.893 	0.0522531 	0.3711 	1.30646 	-6.98893e-20
32.9632 	0.0522531 	0.3711 	1.30646 	-6.98893e-20
33.0333 	0.0522531 	0.3711 	1.30646 	-6.98893e-20
33.1034 	0.0522531 	0.3711 	1.30646 	-6.98893e-20
33.1736 	0.0522531 	0.3711 	1.30646 	-6.98893e-20
33.2437 	0.0522531 	0.3711 	1.30646 	-6.98893e-20
33.3138 	0.0522531 	0.3711 	1.30646 	-6.98893e-20
33.384 	0.0522531 	0.3711 	1.30646 	-6.98893e-20
33.4541 	0.0522531 	0.3711 	1.30646 	-6.98893e-20
33.5242 	0.0522531 	0.3711 	1.30646 	-6.98893e-20
33.5944 	0.0522531 	0.3711 	1.30646 	-6.98893e-20
33.6645 	0.0522531 	0.3711 	1.30646 	-6.98893e-20
33.7346 	0.0137424 	0.366929 	1.37746 	3.58292e-20
33.8048 	0.0137424 	0.366929 	1.37746 	3.58292e-20
33.8749 	0.0137424 	0.366929 	1.37746 	3.58292e-20
33.945 	0.0137424 	0.366929 	1.37746 	3.58292e-20
34.0152 	0.0137424 	0.366929 	1.37746 	3.58292e-20
34.0853 	0.0137424 	0.366929 	1.37746 	3.58292e-20
34.1554 	0.0118573 	0.273734 	1.33152 	-1.0355e-19
34.2256 	0.0118573 	0.273734 	1.33152 	-1.0355e-19
34.2957 	0.0118573 	0.273734 	1.33152 	-1.0355e-19
34.3659 	0.0118573 	0.273734 	1.33152 	-1.0355e-19
34.436 	0.0118573 	0.273734 	1.33152 	-1.0355e-19
34.5061 	0.0118573 	0.273734 	1.33152 	-1.0355e-19
34.5763 	0.0118573 	0.273734 	1.33152 	-1.0355e-19
34.6464 	0.0118573 	0.273734 	1.33152 	-1.0355e-19
34.7165 	0.208855 	0.264333 	1.61887 	1.1271e-19
34.7867 	0.208855 	0.264333 	1.61887 	1.1271e-19
34.8568 	0.208855 	0.264333 	1.61887 	1.1271e-19
34.9269 	0.208855 	0.264333 	1.61887 	1.1271e-19
34.9971 	0.208855 	0.264333 	1.61887 	1.1271e-19
35.0672 	0.208855 	0.264333 	1.61887 	1.1271e-19
35.1373 	0.208855 	0.264333 	1.61887 	1.1271e-19
35.2075 	0.208855 	0.264333 	1.61887 	1.1271e-19
35.2776 	0.208855 	0.264333 	1.61887 	1.1271e-19
35.3477 	0.208855 	0.264333 	1.61887 	1.1271e-19
35.4179 	0.208855 	0.264333 	1.61887 	1.1271e-19
35.488 	0.208855 	0.264333 	1.61887 	1.1271e-19
35.5581 	0.208855 	0.264333 	1.61887 	1.1271e-19
35.6283 	0.208855 	0.264333 	1.61887 	1.1271e-19
35.6984 	0.208855 	0.264333 	1.61887 	1.1271e-19
35.7685 	0.208855 	0.264333 	1.61887 	1.1271e-19
35.8387 	0.208855 	0.264333 	1.61887 	1.1271e-19
35.9088 	0.208855 	0.264333 	1.61887 	1.1271e-19
35.9789 	0.208855 	0.264333 	1.61887 	1.1271e-19
36.0491 	0.1829 	0.241196 	1.57997 	0
36.1192 	0.1829 	0.241196 	1.57997 	0
36.1893 	0.1829 	0.241196 	1.57997 	0
36.2595 	0.1829 	0.241196 	1.57997 	0
36.3296 	0.1829 	0.241196 	1.57997 	0
36.3997 	0.1829 	0.241196 	1.57997 	0
36.4699 	0.1829 	0.241196 	1.57997 	0
36.54 	0.1829 	0.241196 	1.57997 	0
36.6102 	0.1829 	0.241196 	1.57997 	0
36.6803 	0.1829 	0.241196 	1.57997 	0
36.7504 	0.1829 	0.241196 	1.57997 	0
36.8206 	0.1829 	0.241196 	1.57997 	0
36.8907 	0.0562124 	0.189449 	1.45614 	6.57241e-20
36.9608 	0.0562124 	0.189449 	1.45614 	6.57241e-20
37.031 	0.0562124 	0.189449 	1.45614 	6.57241e-20
37.1011 	0.0562124 	0.189449 	1.45614 	6.57241e-20
37.1712 	0.0562124 	0.189449 	1.45614 	6.57241e-20
37.2414 	0.0562124 	0.189449 	1.45614 	6.57241e-20
37.3115 	0.0562124 	0.189449 	1.45614 	6.57241e-20
37.3816 	0.0562124 	0.189449 	1.45614 	6.57241e-20
37.4518 	0.0562124 	0.189449 	1.45614 	6.57241e-20
37.5219 	0.0562124 	0.189449 	1.45614 	6.57241e-20
37.592 	0.0562124 	0.189449 	1.45614 	6.57241e-20
37.6622 	0.0562124 	0.189449 	1.45614 	6.57241e-20
37.7323 	0.0562124 	0.189449 	1.45614 	6.57241e-20
37.8024 	0.0562124 	0.189449 	1.45614 	6.57241e-20
37.8726 	0.0562124 	0.189449 	1.45614 	6.57241e-20
37.9427 	0.0562124 	0.189449 	1.45614 	6.57241e-20
38.0128 	0.0562124 	0.189449 	1.45614 	6.57241e-20
38.083 	0.0562124 	0.189449 	1.45614 	6.57241e-20
38.1531 	0.0562124 	0.189449 	1.45614 	6.57241e-20
38.2232 	0.079352 	0.132377 	1.59699 	-7.53859e-20
38.2934 	0.079352 	0.132377 	1.59699 	-7.53859e-20
38.3635 	0.079352 	0.132377 	1.59699 	-7.53859e-20
38.4336 	0.079352 	0.132377 	1.59699 	-7.53859e-20
38.5038 	0.079352 	0.132377 	1.59699 	-7.53859e-20
38.5739 	0.079352 	0.132377 	1.59699 	-7.53859e-20
38.644 	0.079352 	0.132377 	1.59699 	-7.53859e-20
38.7142 	0.079352 	0.132377 	1.59699 	-7.53859e-20
38.7843 	0.079352 	0.132377 	1.59699 	-7.53859e-20
38.8545 	0.079352 	0.132377 	1.59699 	-7.53859e-20
38.9246 	0.079352 	0.132377 	1.59699 	-7.53859e-20
38.9947 	0.079352 	0.132377 	1.59699 	-7.53859e-20
39.0649 	0.079352 	0.132377 	1.59699 	-7.53859e-20
39.135 	0.079352 	0.132377 	1.59699 	-7.53859e-20
39.2051 	0.0411434 	0.115812 	1.57188 	0
39.2753 	0.0411434 	0.115812 	1.57188 	0
39.3454 	0.0411434 	0.115812 	1.57188 	0
39.4155 	0.0411434 	0.115812 	1.57188 	0
39.4857 	0.0411434 	0.115812 	1.57188 	0
39.5558 	0.0411434 	0.115812 	1.57188 	0
39.6259 	0.0411434 	0.115812 	1.57188 	0
39.6961 	0.0411434 	0.115812 	1.57188 	0
39.7662 	0.0411434 	0.115812 	1.57188 	0
39.8363 	0.0411434 	0.115812 	1.57188 	0
39.9065 	0.0411434 	0.115812 	1.57188 	0
39.9766 	0.0411434 	0.115812 	1.57188 	0
40.0467 	0.0411434 	0.115812 	1.57188 	0
40.1169 	0.0411434 	0.115812 	1.57188 	0
40.187 	0.0411434 	0.115812 	1.57188 	0
40.2571 	0.0411434 	0.115812 	1.57188 	0
40.3273 	0.0411434 	0.115812 	1.57188 	0
40.3974 	0.0411434 	0.115812 	1.57188 	0
40.4675 	0.0411434 	0.115812 	1.57188 	0
40.5377 	0.0411434 	0.115812 	1.57188 	0
40.6078 	0.0411434 	0.115812 	1.57188 	0
40.6779 	0.0265777 	0.11231 	1.52391 	-1.58836e-20
40.7481 	0.0265777 	0.11231 	1.52391 	-1.58836e-20
40.8182 	0.0265777 	0.11231 	1.52391 	-1.58836e-20
40.8883 	0.0265777 	0.11231 	1.52391 	-1.58836e-20
40.9585 	0.0265777 	0.11231 	1.52391 	-1.58836e-20
41.0286 	0.0265777 	0.11231 	1.52391 	-1.58836e-20
41.0988 	0.0265777 	0.11231 	1.52391 	-1.58836e-20
41.1689 	0.0265777 	0.11231 	1.52391 	-1.58836e-20
41.239 	0.027723 	0.0881602 	1.53535 	2.97819e-20
41.3092 	0.027723 	0.0881602 	1.53535 	2.97819e-20
41.3793 	0.027723 	0.0881602 	1.53535 	2.97819e-20
41.4494 	0.027723 	0.0881602 	1.53535 	2.97819e-20
41.5196 	0.027723 	0.0881602 	1.53535 	2.97819e-20
41.5897 	0.027723 	0.0881602 	1.53535 	2.97819e-20
41.6598 	0.027723 	0.0881602 	1.53535 	2.97819e-20
41.73 	0.027723 	0.0881602 	1.53535 	2.97819e-20
41.8001 	0.027723 	0.0881602 	1.53535 	2.97819e-20
41.8702 	0.027723 	0.0881602 	1.53535 	2.97819e-20
41.9404 	0.027723 	0.0881602 	1.53535 	2.97819e-20
42.0105 	0.027723 	0.0881602 	1.53535 	2.97819e-20
42.0806 	0.027723 	0.0881602 	1.53535 	2.97819e-20
42.1508 	0.027723 	0.0881602 	1.53535 	2.97819e-20
42.2209 	0.027723 	0.0881602 	1.53535 	2.97819e-20
42.291 	0.027723 	0.0881602 	1.53535 	2.97819e-20
42.3612 	0.027723 	0.0881602 	1.53535 	2.97819e-20
42.4313 	0.027723 	0.0881602 	1.53535 	2.97819e-20
42.5014 	0.027723 	0.0881602 	1.53535 	2.97819e-20
42.5716 	0.027723 	0.0881602 	1.53535 	2.97819e-20
42.6417 	0.027723 	0.0881602 	1.53535 	2.97819e-20
42.7118 	0.0162258 	0.0865147 	1.52437 	0
42.782 	0.0162258 	0.0865147 	1.52437 	0
42.8521 	0.0162258 	0.0865147 	1.52437 	0
42.9222 	0.0162258 	0.0865147 	1.52437 	0
42.9924 	0.0344512 	0.0450329 	1.58001 	0
43.0625 	0.0344512 	0.0450329 	1.58001 	0
43.1327 	0.0344512 	0.0450329 	1.58001 	0
43.2028 	0.0344512 	0.0450329 	1.58001 	0
43.2729 	0.0344512 	0.0450329 	1.58001 	0
43.3431 	0.0344512 	0.0450329 	1.58001 	0
43.4132 	0.0344512 	0.0450329 	1.58001 	0
43.4833 	0.0344512 	0.0450329 	1.58001 	0
43.5535 	0.0344512 	0.0450329 	1.58001 	0
43.6236 	0.0344512 	0.0450329 	1.58001 	0
43.6937 	0.0344512 	0.0450329 	1.58001 	0
43.7639 	0.0344512 	0.0450329 	1.58001 	0