/*--------------------------------*- C++ -*----------------------------------*\
| =========                 |                                                 |
| \\      /  F ield         | OpenFOAM: The Open Source CFD Toolbox           |
|  \\    /   O peration     | Version:  2306                                  |
|   \\  /    A nd           | Website:  www.openfoam.com                      |
|    \\/     M anipulation  |                                                 |
\*---------------------------------------------------------------------------*/
FoamFile
{
    version     2.0;
    format      ascii;
    arch        "LSB;label=32;scalar=64";
    class       volVectorField;
    location    "1";
    object      U;
}
// * * * * * * * * * * * * * * * * * * * * * * * * * * * * * * * * * * * * * //

dimensions      [0 1 -1 0 0 0 0];

internalField   nonuniform List<vector> 
8800
(
(0.951837 -0.0697725 0)
(0.980436 -0.0467114 0)
(0.971325 -0.0299241 0)
(0.96634 -0.0196541 0)
(0.963744 -0.0132444 0)
(0.962318 -0.00902751 0)
(0.961492 -0.00603937 0)
(0.960997 -0.00379956 0)
(0.960714 -0.00193533 0)
(0.960558 -0.000237148 0)
(0.960587 0.00144285 0)
(0.960798 0.00314552 0)
(0.961158 0.00508982 0)
(0.961784 0.00759722 0)
(0.962859 0.0110674 0)
(0.964765 0.0162007 0)
(0.968342 0.0242449 0)
(0.975228 0.0373266 0)
(0.982708 0.0593031 0)
(0.746284 0.0387628 0)
(0.593935 -0.00849174 0)
(1.05506 -0.0192938 0)
(1.05548 -0.020459 0)
(1.04558 -0.0200986 0)
(1.0375 -0.0181493 0)
(1.03175 -0.0150418 0)
(1.02845 -0.0116274 0)
(1.0262 -0.00831853 0)
(1.02499 -0.00523487 0)
(1.02419 -0.00197672 0)
(1.0241 0.00131547 0)
(1.02445 0.0045202 0)
(1.02529 0.00760837 0)
(1.02687 0.0108479 0)
(1.0297 0.0141612 0)
(1.03429 0.017329 0)
(1.04109 0.0197654 0)
(1.05014 0.0207853 0)
(1.05973 0.020181 0)
(0.977113 0.0184112 0)
(0.528429 0.000342347 0)
(1.02235 -0.0053885 0)
(1.01986 -0.00831374 0)
(1.01606 -0.00979902 0)
(1.01223 -0.0101498 0)
(1.0079 -0.00923797 0)
(1.00505 -0.00782088 0)
(1.00289 -0.0058481 0)
(1.00228 -0.00359601 0)
(1.00158 -0.000215177 0)
(1.00161 0.00287371 0)
(1.00263 0.00573825 0)
(1.00386 0.00828946 0)
(1.00631 0.00975569 0)
(1.00954 0.0107772 0)
(1.01331 0.0108198 0)
(1.0172 0.00973881 0)
(1.02085 0.00753524 0)
(1.01265 0.0034675 0)
(0.527957 -0.000318474 0)
(0.530028 -9.51716e-05 0)
(1.01933 -0.00214113 0)
(1.01936 -0.00368339 0)
(1.01788 -0.00501607 0)
(1.01597 -0.00592789 0)
(1.01321 -0.00619585 0)
(1.01098 -0.00537714 0)
(1.00899 -0.00395941 0)
(1.00809 -0.00184788 0)
(1.0073 0.000166576 0)
(1.00736 0.00249258 0)
(1.00785 0.00453393 0)
(1.0095 0.00579852 0)
(1.01155 0.00666221 0)
(1.01378 0.00669805 0)
(1.01586 0.00599716 0)
(1.01757 0.00472479 0)
(1.0187 0.00303475 0)
(1.00825 0.00134414 0)
(0.529529 0.000104879 0)
(0.528633 -2.30573e-05 0)
(1.0155 -0.000415666 0)
(1.01587 -0.00140331 0)
(1.01527 -0.00226653 0)
(1.01433 -0.00293102 0)
(1.01298 -0.00324459 0)
(1.01153 -0.00297473 0)
(1.01015 -0.00215139 0)
(1.00925 -0.000827626 0)
(1.00865 0.00057185 0)
(1.00857 0.00207827 0)
(1.01009 0.00300662 0)
(1.00992 0.004164 0)
(1.01127 0.00422362 0)
(1.01254 0.00392212 0)
(1.01359 0.00328384 0)
(1.01434 0.00244273 0)
(1.01475 0.00156034 0)
(1.00413 0.0007135 0)
(0.527116 9.10263e-05 0)
(0.527661 -8.20362e-05 0)
(1.01372 -0.000704298 0)
(1.01432 -0.000935849 0)
(1.01409 -0.0012205 0)
(1.01363 -0.00147234 0)
(1.01293 -0.00159808 0)
(1.01203 -0.00146141 0)
(1.01105 -0.000974913 0)
(1.0102 -0.000142134 0)
(1.00958 0.000902685 0)
(1.00941 0.00198373 0)
(1.0103 0.00273809 0)
(1.0104 0.00264485 0)
(1.0111 0.00275432 0)
(1.01178 0.0024652 0)
(1.0123 0.00198499 0)
(1.01265 0.00144222 0)
(1.0128 0.000895935 0)
(1.0021 0.00041316 0)
(0.525952 4.98432e-05 0)
(0.526738 -2.07724e-05 0)
(1.01327 -0.000314941 0)
(1.01398 -0.000418458 0)
(1.01377 -0.000521546 0)
(1.01344 -0.000593377 0)
(1.01297 -0.000590988 0)
(1.01236 -0.000445084 0)
(1.01164 -9.23334e-05 0)
(1.01092 0.000486868 0)
(1.01032 0.00123087 0)
(1.01007 0.00191983 0)
(1.01033 0.00228683 0)
(1.0105 0.00221561 0)
(1.01082 0.00207118 0)
(1.01114 0.00176034 0)
(1.01138 0.00137569 0)
(1.01154 0.000971991 0)
(1.01158 0.000602591 0)
(1.00085 0.000271928 0)
(0.525209 3.46723e-05 0)
(0.526515 -8.4924e-07 0)
(1.01301 -3.40227e-05 0)
(1.01382 -4.25469e-05 0)
(1.01369 -3.22705e-05 0)
(1.01346 1.03853e-05 0)
(1.01313 0.00011097 0)
(1.01267 0.000303623 0)
(1.01209 0.000622539 0)
(1.01143 0.00107491 0)
(1.0108 0.00160898 0)
(1.01041 0.00202812 0)
(1.01032 0.00216521 0)
(1.01034 0.00202667 0)
(1.01044 0.00177835 0)
(1.01055 0.00145469 0)
(1.01064 0.00110531 0)
(1.0107 0.000775916 0)
(1.01069 0.000473705 0)
(0.999951 0.000218396 0)
(0.524668 2.82086e-05 0)
(0.526579 9.75808e-06 0)
(1.01312 0.000104091 0)
(1.01395 0.000192792 0)
(1.01385 0.000306477 0)
(1.01368 0.000456185 0)
(1.01341 0.000654467 0)
(1.01302 0.000918259 0)
(1.01249 0.00125891 0)
(1.01184 0.00166461 0)
(1.01114 0.00207176 0)
(1.01056 0.00230643 0)
(1.01023 0.00227651 0)
(1.01006 0.00205608 0)
(1.00999 0.0017399 0)
(1.00997 0.00138738 0)
(1.00996 0.00104163 0)
(1.00996 0.000721934 0)
(1.00991 0.00044215 0)
(0.999171 0.000200692 0)
(0.524203 2.57525e-05 0)
(0.526807 1.75688e-05 0)
(1.0135 0.000209158 0)
(1.01434 0.00038227 0)
(1.01425 0.000590731 0)
(1.01409 0.000840972 0)
(1.01383 0.00114036 0)
(1.01345 0.0014935 0)
(1.01291 0.00189283 0)
(1.01221 0.00230714 0)
(1.01137 0.00265138 0)
(1.01058 0.00276258 0)
(1.01003 0.00260733 0)
(1.00968 0.00228381 0)
(1.00946 0.00188973 0)
(1.00933 0.00148422 0)
(1.00926 0.00110277 0)
(1.00921 0.000758595 0)
(1.00914 0.000465026 0)
(0.998394 0.000210786 0)
(0.523749 2.67086e-05 0)
(0.527176 2.62282e-05 0)
(1.01412 0.000310638 0)
(1.01496 0.000565564 0)
(1.01486 0.000868713 0)
(1.01469 0.00122517 0)
(1.01442 0.00163828 0)
(1.014 0.00210088 0)
(1.01339 0.00259261 0)
(1.01257 0.00305793 0)
(1.01153 0.00338504 0)
(1.01051 0.00340576 0)
(1.00972 0.00313212 0)
(1.00919 0.00269793 0)
(1.00884 0.00220568 0)
(1.00861 0.0017186 0)
(1.00847 0.00126884 0)
(1.00839 0.000873962 0)
(1.0083 0.00053223 0)
(0.997547 0.000242707 0)
(0.523253 2.98929e-05 0)
(0.527694 3.47911e-05 0)
(1.01499 0.000421054 0)
(1.01582 0.000769429 0)
(1.01571 0.00117899 0)
(1.01551 0.00165728 0)
(1.01519 0.00220145 0)
(1.0147 0.00280035 0)
(1.01397 0.0034165 0)
(1.01297 0.00397074 0)
(1.01167 0.00431736 0)
(1.01034 0.0042681 0)
(1.00929 0.00387157 0)
(1.00855 0.00330072 0)
(1.00806 0.00267946 0)
(1.00773 0.00207894 0)
(1.00753 0.00153172 0)
(1.00741 0.00105438 0)
(1.0073 0.000640868 0)
(0.996544 0.00029378 0)
(0.522664 3.86145e-05 0)
(0.528386 4.66206e-05 0)
(1.01615 0.000555277 0)
(1.01697 0.0010104 0)
(1.01684 0.00154831 0)
(1.0166 0.00217208 0)
(1.0162 0.00288025 0)
(1.01559 0.00365027 0)
(1.01469 0.00442902 0)
(1.01344 0.00511096 0)
(1.0118 0.00550586 0)
(1.01009 0.00539241 0)
(1.00872 0.00485578 0)
(1.00774 0.00411971 0)
(1.00708 0.00333282 0)
(1.00665 0.00257828 0)
(1.00638 0.00189717 0)
(1.00622 0.00130124 0)
(1.00608 0.000793933 0)
(0.995316 0.000361438 0)
(0.521945 4.76026e-05 0)
(0.529289 5.98515e-05 0)
(1.01767 0.000718433 0)
(1.01847 0.00131051 0)
(1.0183 0.00200639 0)
(1.018 0.00281366 0)
(1.0175 0.00372446 0)
(1.01673 0.00471003 0)
(1.0156 0.00569928 0)
(1.01401 0.00655109 0)
(1.01193 0.00702252 0)
(1.00973 0.00684186 0)
(1.00797 0.00613516 0)
(1.00671 0.00518931 0)
(1.00585 0.00419067 0)
(1.00528 0.0032394 0)
(1.00493 0.00238257 0)
(1.00472 0.00163247 0)
(1.00456 0.000994881 0)
(0.993792 0.000450574 0)
(0.521056 5.63179e-05 0)
(0.530457 7.78373e-05 0)
(1.01963 0.000928128 0)
(1.02041 0.00168944 0)
(1.02019 0.00258591 0)
(1.0198 0.00362343 0)
(1.01917 0.00479317 0)
(1.01819 0.00605478 0)
(1.01675 0.00731298 0)
(1.01473 0.00838324 0)
(1.01206 0.00895766 0)
(1.00926 0.0086983 0)
(1.00701 0.00778029 0)
(1.00539 0.00656864 0)
(1.00429 0.00529675 0)
(1.00356 0.0040904 0)
(1.00311 0.00300663 0)
(1.00284 0.00206475 0)
(1.00265 0.00125743 0)
(0.99186 0.000573243 0)
(0.519929 7.1989e-05 0)
(0.531966 0.000100401 0)
(1.02215 0.00119497 0)
(1.0229 0.0021757 0)
(1.02261 0.00332834 0)
(1.02212 0.00466095 0)
(1.0213 0.00616115 0)
(1.02005 0.00777355 0)
(1.0182 0.00937373 0)
(1.01561 0.0107239 0)
(1.01221 0.011428 0)
(1.00864 0.0110682 0)
(1.00576 0.00987903 0)
(1.0037 0.00832846 0)
(1.0023 0.00671102 0)
(1.00137 0.00518133 0)
(1.0008 0.00380599 0)
(1.00045 0.00261136 0)
(1.00022 0.00158861 0)
(0.989421 0.000723975 0)
(0.518509 9.23877e-05 0)
(0.533912 0.000129267 0)
(1.0254 0.00153781 0)
(1.0261 0.00280198 0)
(1.02574 0.00428528 0)
(1.02509 0.00599879 0)
(1.02404 0.00792153 0)
(1.02242 0.00998232 0)
(1.02004 0.0120172 0)
(1.01672 0.0137188 0)
(1.01238 0.0145804 0)
(1.00782 0.0140854 0)
(1.00417 0.0125504 0)
(1.00156 0.0105686 0)
(0.999777 0.00850786 0)
(0.998608 0.00656239 0)
(0.997875 0.00481982 0)
(0.997439 0.003305 0)
(0.997154 0.0020135 0)
(0.986333 0.000916574 0)
(0.516713 0.000117827 0)
(0.536429 0.000167907 0)
(1.02959 0.00198875 0)
(1.03023 0.00361621 0)
(1.02975 0.00552741 0)
(1.02891 0.00773062 0)
(1.02754 0.0102002 0)
(1.02545 0.0128357 0)
(1.02237 0.0154204 0)
(1.01811 0.0175568 0)
(1.01255 0.0186019 0)
(1.00676 0.0179197 0)
(1.00213 0.0159331 0)
(0.998826 0.0134006 0)
(0.996572 0.0107813 0)
(0.995097 0.0083133 0)
(0.994171 0.00610479 0)
(0.993622 0.00418445 0)
(0.993275 0.00254815 0)
(0.982433 0.00115925 0)
(0.514443 0.000147915 0)
(0.539693 0.000218694 0)
(1.035 0.00257504 0)
(1.03557 0.00468366 0)
(1.03493 0.00715337 0)
(1.03382 0.00999657 0)
(1.03204 0.0131683 0)
(1.0293 0.0165363 0)
(1.02532 0.0198128 0)
(1.01982 0.0224811 0)
(1.01271 0.0237274 0)
(1.00536 0.0227812 0)
(0.99951 0.020213 0)
(0.99534 0.0169761 0)
(0.992498 0.013646 0)
(0.990638 0.0105184 0)
(0.989471 0.00772056 0)
(0.98878 0.00529224 0)
(0.988354 0.00322146 0)
(0.977486 0.00146595 0)
(0.511568 0.000186892 0)
(0.543953 0.000286802 0)
(1.04202 0.00335605 0)
(1.04248 0.00609474 0)
(1.04163 0.00929938 0)
(1.04016 0.0129765 0)
(1.0378 0.0170624 0)
(1.03421 0.0213661 0)
(1.02901 0.0255033 0)
(1.02191 0.0288059 0)
(1.01283 0.0302527 0)
(1.00351 0.0289281 0)
(0.99615 0.0256037 0)
(0.990912 0.0214793 0)
(0.987342 0.0172544 0)
(0.985004 0.0132936 0)
(0.983537 0.00975614 0)
(0.982668 0.00668772 0)
(0.982147 0.00406915 0)
(0.971249 0.00185103 0)
(0.507945 0.000235884 0)
(0.549552 0.000380495 0)
(1.05118 0.00440586 0)
(1.05149 0.00799228 0)
(1.05034 0.0121757 0)
(1.04837 0.0169534 0)
(1.0452 0.0222214 0)
(1.04043 0.0277127 0)
(1.03362 0.0329041 0)
(1.02443 0.0369341 0)
(1.01283 0.0385405 0)
(1.00109 0.0366731 0)
(0.991853 0.0323718 0)
(0.985293 0.0271251 0)
(0.980819 0.0217837 0)
(0.977884 0.0167849 0)
(0.97604 0.0123181 0)
(0.974945 0.00844224 0)
(0.974297 0.005139 0)
(0.963357 0.00233778 0)
(0.503369 0.000296841 0)
(0.557004 0.0005122 0)
(1.06326 0.00585646 0)
(1.06333 0.0105968 0)
(1.06174 0.0161011 0)
(1.05901 0.0223432 0)
(1.0547 0.0291524 0)
(1.04829 0.0361305 0)
(1.03929 0.0425723 0)
(1.02737 0.0473815 0)
(1.01261 0.0490296 0)
(0.997879 0.0463761 0)
(0.986373 0.0408259 0)
(0.978196 0.034187 0)
(0.972598 0.0274643 0)
(0.968906 0.0211749 0)
(0.966576 0.0155527 0)
(0.965188 0.0106653 0)
(0.96438 0.00649127 0)
(0.95339 0.00294967 0)
(0.497599 0.000374085 0)
(0.567114 0.00070637 0)
(1.07938 0.00792752 0)
(1.07907 0.0142843 0)
(1.07677 0.0216154 0)
(1.0729 0.0298306 0)
(1.06687 0.0386292 0)
(1.0581 0.047424 0)
(1.04611 0.0552635 0)
(1.03065 0.060786 0)
(1.01197 0.0622267 0)
(0.993643 0.0584494 0)
(0.979422 0.0513223 0)
(0.969289 0.0429883 0)
(0.962295 0.034591 0)
(0.957636 0.0267217 0)
(0.954666 0.0196574 0)
(0.952883 0.0134948 0)
(0.951854 0.00822156 0)
(0.940788 0.00373856 0)
(0.4903 0.000474961 0)
(0.581239 0.00102042 0)
(1.10133 0.0110744 0)
(1.10034 0.0197982 0)
(1.09682 0.0297184 0)
(1.09102 0.0406011 0)
(1.0823 0.0519123 0)
(1.07008 0.0627759 0)
(1.054 0.0719685 0)
(1.03402 0.0779134 0)
(1.01059 0.0786829 0)
(0.988063 0.0733132 0)
(0.970691 0.0642405 0)
(0.95823 0.0539141 0)
(0.949496 0.0435579 0)
(0.943557 0.0338092 0)
(0.939685 0.0249829 0)
(0.937312 0.017214 0)
(0.935941 0.0105121 0)
(0.92475 0.00478972 0)
(0.480993 0.000611018 0)
(0.602033 0.00162329 0)
(1.13217 0.0165714 0)
(1.12971 0.0289249 0)
(1.12372 0.04255 0)
(1.11442 0.0568877 0)
(1.1013 0.071046 0)
(1.08402 0.0838606 0)
(1.06246 0.0939278 0)
(1.03688 0.0995949 0)
(1.00792 0.098933 0)
(0.980697 0.0913561 0)
(0.95981 0.0799549 0)
(0.944678 0.0673987 0)
(0.933815 0.0548995 0)
(0.926155 0.0430576 0)
(0.920926 0.0321748 0)
(0.917559 0.0224102 0)
(0.915549 0.0138265 0)
(0.904076 0.0063692 0)
(0.468871 0.000820643 0)
(0.635058 0.00331286 0)
(1.17733 0.0291629 0)
(1.17068 0.0468123 0)
(1.15903 0.0649118 0)
(1.14316 0.0827291 0)
(1.12303 0.099105 0)
(1.09866 0.112797 0)
(1.0702 0.122475 0)
(1.03809 0.126608 0)
(1.0031 0.12341 0)
(0.970934 0.112865 0)
(0.946388 0.0987597 0)
(0.928388 0.0838649 0)
(0.915079 0.069269 0)
(0.905218 0.0554588 0)
(0.897976 0.0426139 0)
(0.89282 0.030846 0)
(0.889349 0.0200946 0)
(0.876975 0.0102102 0)
(0.453057 0.00135144 0)
(0.684922 0.0196153 2.9805e-19)
(1.24201 0.0640215 2.77528e-19)
(1.22345 0.0838742 -9.52245e-20)
(1.20066 0.103832 0)
(1.17463 0.122588 -2.15279e-33)
(1.14518 0.138781 3.075e-20)
(1.11225 0.151296 -5.08754e-20)
(1.07593 0.158959 0)
(1.03662 0.160317 9.48377e-34)
(0.995063 0.15368 -5.36735e-20)
(0.957602 0.13967 0)
(0.929092 0.122746 -5.94502e-20)
(0.907843 0.105706 -1.72396e-19)
(0.891565 0.0894499 -8.04909e-20)
(0.878806 0.0744677 -2.37048e-20)
(0.868578 0.0608693 -1.39597e-20)
(0.86022 0.0491748 0)
(0.853222 0.0392148 9.71487e-21)
(0.838128 0.0311365 1.14487e-20)
(0.431772 0.0124904 2.02529e-19)
(0.720492 0.0602426 2.73368e-19)
(1.29789 0.127576 1.09412e-21)
(1.26947 0.14295 2.78654e-20)
(1.23738 0.159894 0)
(1.20258 0.175926 -1.167e-19)
(1.1648 0.189625 -1.27377e-19)
(1.12384 0.199717 -5.32188e-20)
(1.07974 0.204843 -1.75043e-19)
(1.0328 0.203376 0)
(0.983675 0.19356 2.28753e-19)
(0.939411 0.176504 2.18828e-19)
(0.905428 0.15732 6.30589e-20)
(0.8797 0.138885 2.22159e-19)
(0.85951 0.122069 3.05295e-19)
(0.843108 0.10718 0)
(0.829363 0.0945813 4.22965e-19)
(0.817534 0.0843209 6.06339e-19)
(0.807094 0.0768509 6.72536e-19)
(0.790775 0.0714056 -7.61931e-19)
(0.408106 0.0355653 -1.30334e-20)
(0.735073 0.104033 0)
(1.33368 0.20436 6.4362e-20)
(1.3013 0.214364 0)
(1.26401 0.226043 -1.89149e-19)
(1.22327 0.237424 0)
(1.17911 0.247124 -2.64521e-19)
(1.13152 0.253583 1.11596e-19)
(1.08063 0.255235 -3.65217e-19)
(1.02681 0.250247 -2.5366e-21)
(0.970795 0.236723 1.20064e-19)
(0.920531 0.21635 4.69196e-19)
(0.882055 0.194885 2.31455e-22)
(0.853025 0.175224 -1.58607e-19)
(0.830382 0.158033 -2.79748e-19)
(0.812233 0.143452 3.29091e-19)
(0.797376 0.131524 -5.79515e-19)
(0.784971 0.122169 -7.60958e-20)
(0.774415 0.115448 0)
(0.758398 0.11029 2.48596e-21)
(0.393149 0.0561172 0)
(0.745983 0.146498 1.08564e-18)
(1.35609 0.280641 -5.23667e-19)
(1.32156 0.287035 -3.37457e-19)
(1.28121 0.294839 9.81657e-20)
(1.23655 0.302296 -1.60067e-19)
(1.18769 0.308027 5.60077e-19)
(1.13474 0.310688 2.35425e-19)
(1.07799 0.308546 0)
(1.01799 0.299678 -6.34448e-19)
(0.955687 0.282034 0)
(0.9001 0.257901 -2.47192e-19)
(0.857974 0.233711 -2.89576e-19)
(0.826628 0.212321 -1.69056e-19)
(0.80261 0.194173 -1.99342e-19)
(0.783756 0.179143 0)
(0.768649 0.166988 0)
(0.756318 0.15755 -4.8772e-19)
(0.746002 0.150671 9.55897e-20)
(0.730393 0.145027 -5.61259e-20)
(0.379549 0.074264 -6.34603e-20)
(0.754021 0.187498 -6.60823e-19)
(1.37055 0.355375 0)
(1.33439 0.359149 8.16255e-19)
(1.29172 0.363987 3.05377e-19)
(1.24404 0.368079 3.47375e-19)
(1.19142 0.370327 0)
(1.13399 0.369399 2.43949e-19)
(1.07213 0.363521 4.09471e-19)
(1.00656 0.350647 3.32796e-19)
(0.938493 0.328605 5.46705e-19)
(0.8781 0.300227 0)
(0.832898 0.272708 -6.14539e-19)
(0.799853 0.248918 -3.57871e-19)
(0.775034 0.229112 -2.07808e-19)
(0.755962 0.212926 1.23606e-18)
(0.740989 0.199957 1.45391e-19)
(0.728988 0.189783 6.87415e-19)
(0.719071 0.182363 -3.25127e-18)
(0.703986 0.175805 1.90682e-18)
(0.366643 0.0903042 -2.25715e-18)
(0.760325 0.227078 -5.92721e-19)
(1.3796 0.427734 1.39863e-19)
(1.34204 0.429683 -1.19192e-19)
(1.29743 0.43214 -4.09832e-19)
(1.24722 0.433505 -3.52118e-19)
(1.1914 0.432771 2.8157e-21)
(1.13005 0.428632 -2.6105e-19)
(1.06359 0.419229 4.30585e-19)
(0.992856 0.402422 -7.09382e-19)
(0.919326 0.375816 0)
(0.854394 0.342736 -2.8498e-19)
(0.806418 0.311231 -8.39568e-22)
(0.772017 0.284376 -3.81879e-19)
(0.746732 0.262232 0)
(0.727734 0.244315 -2.6256e-19)
(0.713143 0.229973 -6.16051e-19)
(0.701632 0.21883 1.63945e-18)
(0.692288 0.21043 -1.61424e-18)
(0.677867 0.202757 2.26944e-18)
(0.353683 0.104316 -2.3141e-18)
(0.765187 0.265436 -6.22316e-21)
(1.38509 0.497646 -1.4047e-19)
(1.34609 0.498254 -4.88349e-19)
(1.29972 0.498773 2.10367e-19)
(1.24725 0.497903 -1.85092e-19)
(1.18852 0.494653 0)
(1.12364 0.487655 -2.67551e-19)
(1.05293 0.475049 -4.5572e-19)
(0.977274 0.454477 -3.74553e-19)
(0.89838 0.423265 0)
(0.828909 0.385079 -2.97815e-19)
(0.778221 0.349008 -3.4611e-19)
(0.742602 0.318414 4.04906e-19)
(0.717084 0.293278 -2.38852e-19)
(0.698366 0.273106 -1.10677e-18)
(0.684326 0.257033 6.51967e-19)
(0.673529 0.244378 1.92866e-19)
(0.66485 0.234903 0)
(0.651197 0.226057 -2.12859e-18)
(0.340432 0.116315 -7.56904e-20)
(0.769334 0.302677 -7.7813e-20)
(1.38796 0.565083 1.44112e-19)
(1.3476 0.564632 2.57992e-19)
(1.29956 0.563568 6.79707e-19)
(1.24498 0.56088 -7.6786e-19)
(1.18362 0.555491 6.65914e-19)
(1.11543 0.546013 5.70574e-19)
(1.0407 0.530568 -7.27702e-19)
(0.960204 0.50654 2.0873e-19)
(0.87589 0.470786 -1.31969e-18)
(0.801646 0.427224 -3.21901e-19)
(0.74806 0.385962 0)
(0.711231 0.350895 4.2872e-19)
(0.685572 0.322185 4.97547e-19)
(0.66732 0.299192 5.84931e-19)
(0.654034 0.280928 -6.85709e-19)
(0.644063 0.266618 -2.00685e-19)
(0.636255 0.25567 2.3893e-19)
(0.623466 0.245515 0)
(0.32702 0.126401 -1.6068e-19)
(0.772965 0.338795 7.76717e-19)
(1.3891 0.630046 -5.86621e-19)
(1.34733 0.628753 -2.70527e-19)
(1.29768 0.626418 4.71851e-19)
(1.2411 0.622165 -3.97645e-19)
(1.17727 0.614901 -7.62301e-21)
(1.10598 0.603366 -6.11503e-19)
(1.02738 0.585451 -2.59843e-19)
(0.942154 0.558349 -6.414e-19)
(0.852174 0.518331 3.69258e-22)
(0.772688 0.469223 -1.01685e-18)
(0.71579 0.422204 7.85996e-19)
(0.677569 0.38197 -4.52477e-19)
(0.651819 0.348956 5.25037e-19)
(0.634201 0.322579 0)
(0.621884 0.30167 -3.56962e-19)
(0.612959 0.285421 -3.54342e-21)
(0.606189 0.272853 -9.91453e-19)
(0.594503 0.261137 -1.47247e-19)
(0.313109 0.134542 0)
(0.77567 0.373427 0)
(1.38887 0.692581 -6.2243e-19)
(1.34576 0.690503 -5.53625e-19)
(1.29458 0.687106 -4.93305e-19)
(1.23613 0.681524 -4.35599e-19)
(1.16997 0.67278 0)
(1.09578 0.65946 -3.12177e-19)
(1.01348 0.639491 -2.56068e-21)
(0.923517 0.60983 1.36759e-18)
(0.82761 0.565965 -1.8525e-19)
(0.742148 0.511336 -7.25005e-19)
(0.681285 0.457922 4.1727e-19)
(0.641328 0.411653 1.70022e-21)
(0.615498 0.373507 5.52452e-19)
(0.598715 0.343105 3.21528e-19)
(0.587605 0.319211 -7.54522e-19)
(0.579996 0.300567 8.79956e-19)
(0.57449 0.286217 2.56632e-19)
(0.564176 0.272809 1.06642e-18)
(0.298637 0.140721 -2.76713e-18)
(0.778635 0.40762 1.57952e-19)
(1.38765 0.752774 -3.12125e-19)
(1.34324 0.750017 2.68133e-19)
(1.29061 0.745604 5.07685e-19)
(1.2304 0.738884 0)
(1.16208 0.728861 -3.77879e-19)
(1.0852 0.714136 1.00879e-18)
(0.999382 0.692525 5.83007e-19)
(0.904806 0.660784 0)
(0.802611 0.6137 -2.59694e-18)
(0.71033 0.553779 1.93352e-18)
(0.644468 0.493499 0)
(0.602192 0.440197 5.03616e-19)
(0.576179 0.395986 4.48526e-21)
(0.560475 0.360819 -9.99684e-19)
(0.5509 0.333431 3.93358e-19)
(0.544983 0.312099 0)
(0.541017 0.295765 1.33374e-18)
(0.53227 0.280727 0)
(0.284051 0.14522 -1.24935e-18)
(0.781246 0.44061 -1.6402e-19)
(1.38569 0.810411 -3.11032e-19)
(1.34 0.807131 2.89745e-19)
(1.28601 0.801845 0)
(1.22422 0.794094 -4.67656e-19)
(1.1539 0.783007 0)
(1.07456 0.767093 -1.05337e-18)
(0.985513 0.744299 -2.98023e-19)
(0.88635 0.711143 2.53257e-19)
(0.777661 0.661663 -1.28225e-18)
(0.677528 0.597042 2.05432e-19)
(0.605238 0.529627 0)
(0.559646 0.468122 -1.06601e-18)
(0.533294 0.416424 -6.29305e-21)
(0.519101 0.37539 0)
(0.51173 0.343807 -4.54904e-21)
(0.507934 0.31973 1.1653e-18)
(0.505926 0.301253 -1.09241e-18)
(0.499102 0.284537 3.20419e-19)
(0.269568 0.148006 0)
(0.78339 0.472186 0)
(1.38312 0.865797 -3.15572e-19)
(1.33617 0.861915 -2.86665e-19)
(1.28096 0.855786 -4.01213e-21)
(1.21773 0.847085 -2.35616e-19)
(1.1457 0.835015 -8.49602e-19)
(1.06414 0.818218 3.78502e-19)
(0.972133 0.794686 -3.27343e-19)
(0.868636 0.760777 1.09671e-18)
(0.75322 0.709879 -2.0535e-18)
(0.644243 0.641465 -3.88668e-21)
(0.563713 0.566877 -5.0265e-19)
(0.513221 0.495831 1.69176e-18)
(0.486118 0.434721 8.6043e-21)
(0.474032 0.386384 -7.10625e-19)
(0.469874 0.349967 -1.22903e-18)
(0.469254 0.322771 0)
(0.469753 0.302517 0)
(0.465252 0.28446 3.21114e-19)
(0.255937 0.149792 -1.78241e-19)
(0.785749 0.502745 -1.63445e-19)
(1.37993 0.918748 6.55413e-19)
(1.3319 0.914268 3.0369e-19)
(1.27556 0.907325 0)
(1.21104 0.897796 -3.87396e-21)
(1.13756 0.884879 -8.76703e-19)
(1.05404 0.867359 9.81513e-19)
(0.959462 0.843389 1.36154e-18)
(0.852032 0.809332 1.44993e-18)
(0.729947 0.758245 -1.70084e-18)
(0.611114 0.687544 -1.66363e-18)
(0.520058 0.606221 1.34894e-18)
(0.462203 0.524347 0)
(0.433253 0.45103 -3.25763e-19)
(0.424288 0.39273 -7.2812e-19)
(0.425414 0.350207 -8.25714e-19)
(0.429711 0.32025 -9.3536e-19)
(0.433818 0.298935 2.64666e-19)
(0.432141 0.280479 -1.61893e-19)
(0.244457 0.151464 -9.03059e-21)
(0.787457 0.532393 0)
(1.37624 0.969334 0)
(1.32727 0.964131 7.02822e-21)
(1.26991 0.956416 0)
(1.20431 0.946104 7.63551e-19)
(1.12958 0.932395 6.78433e-19)
(1.04451 0.914375 0)
(0.947675 0.890308 1.74763e-19)
(0.836709 0.856709 2.45506e-18)
(0.708268 0.806624 -3.90216e-18)
(0.578911 0.735523 0)
(0.474789 0.648918 -8.7613e-19)
(0.405896 0.555111 8.71872e-21)
(0.372707 0.465619 1.34698e-20)
(0.367885 0.392719 7.62916e-19)
(0.378035 0.341772 -3.77725e-22)
(0.391166 0.309608 -1.83232e-18)
(0.401186 0.289542 5.13478e-19)
(0.403097 0.273362 1.43619e-19)
(0.237611 0.154435 0)
(0.788535 0.560719 4.69549e-19)
(1.37211 1.01749 3.38612e-19)
(1.32228 1.01154 6.23769e-19)
(1.26414 1.00301 -1.15967e-18)
(1.1976 0.991944 1.3147e-18)
(1.12181 0.977547 0)
(1.03551 0.959142 6.43644e-19)
(0.93686 0.935212 -3.76779e-19)
(0.822911 0.902676 6.86667e-21)
(0.688694 0.854787 2.81156e-19)
(0.548496 0.785541 2.18997e-18)
(0.428922 0.696138 -3.13796e-19)
(0.343864 0.590544 -1.04537e-18)
(0.301274 0.479916 -3.61009e-19)
(0.300561 0.383875 3.74299e-19)
(0.326396 0.318589 1.28944e-21)
(0.357121 0.284836 4.15559e-19)
(0.378842 0.271445 -9.58362e-19)
(0.385809 0.26424 1.02721e-18)
(0.241749 0.162872 1.59251e-19)
(0.788898 0.587941 -1.56414e-19)
(1.36752 1.06319 1.73152e-19)
(1.317 1.05646 1.41865e-20)
(1.25819 1.04712 -5.85796e-19)
(1.19099 1.03537 -2.64719e-19)
(1.11436 1.02037 -1.25882e-18)
(1.02703 1.00159 2.17713e-19)
(0.92701 0.977974 -1.59326e-18)
(0.810744 0.946939 -2.75788e-18)
(0.67153 0.902323 -2.36186e-18)
(0.52098 0.83744 0)
(0.384006 0.749007 -1.3624e-18)
(0.276421 0.634126 1.50397e-18)
(0.214855 0.497823 0)
(0.213718 0.363968 -8.05029e-19)
(0.265244 0.268907 3.69085e-19)
(0.334347 0.231469 -3.85075e-19)
(0.382574 0.237381 -3.62807e-19)
(0.398389 0.255718 -6.1617e-19)
(0.270081 0.184679 -4.59169e-19)
(0.789773 0.614266 1.56088e-19)
(1.36251 1.10647 -1.84424e-19)
(1.31143 1.09885 -4.7115e-19)
(1.25216 1.08868 -7.57667e-19)
(1.18452 1.07631 5.68026e-19)
(1.10727 1.06083 -7.77647e-19)
(1.01912 1.04173 7.00665e-19)
(0.918206 1.01855 -1.67454e-18)
(0.800209 0.989262 -1.64365e-18)
(0.657029 0.948816 2.50429e-18)
(0.497116 0.890632 4.87685e-18)
(0.342134 0.808091 0)
(0.205735 0.689984 0)
(0.109765 0.527724 -4.19655e-19)
(0.0914049 0.334962 0)
(0.177965 0.170731 6.78745e-19)
(0.33384 0.11301 5.91058e-19)
(0.453947 0.167826 0)
(0.484204 0.255158 0)
(0.349057 0.236936 2.17181e-19)
(0.789536 0.638879 -1.49646e-19)
(1.35719 1.14731 -1.55039e-19)
(1.30565 1.13882 -3.28412e-19)
(1.24608 1.12779 6.12037e-19)
(1.17815 1.11479 5.85811e-19)
(1.10048 1.09884 9.371e-19)
(1.01172 1.07941 -9.82709e-19)
(0.910285 1.05678 2.66631e-21)
(0.791262 1.02955 -9.54236e-21)
(0.645212 0.993848 -9.37587e-21)
(0.477754 0.944447 2.52442e-18)
(0.305809 0.872982 0)
(0.136609 0.761819 1.57979e-18)
(-0.0134411 0.583848 9.6842e-19)
(-0.0909449 0.312696 1.83004e-18)
(0.0125508 -0.0162997 3.65464e-19)
(0.376222 -0.178336 3.36293e-20)
(0.732978 0.0093805 -7.90812e-21)
(0.737226 0.293203 0)
(0.503364 0.370938 -1.66895e-19)
(0.789843 0.662877 2.84427e-19)
(1.35169 1.18572 0)
(1.29991 1.17647 -3.22725e-19)
(1.24005 1.16452 4.7273e-19)
(1.17185 1.15085 -5.93254e-19)
(1.09386 1.1344 -1.24096e-18)
(1.0048 1.11445 2.0389e-18)
(0.903246 1.09238 -1.27328e-19)
(0.783702 1.06723 0)
(0.635953 1.03674 -2.81095e-18)
(0.463097 0.997766 -5.55654e-18)
(0.277274 0.942358 2.12367e-19)
(0.0762384 0.851014 2.2612e-18)
(-0.143867 0.6843 0)
(-0.361432 0.351783 1.36309e-18)
(-0.432434 -0.261488 0)
(-0.00156086 -0.606973 0)
(0.895589 -0.0605281 7.42367e-19)
(1.13851 0.520397 0)
(0.871999 0.666275 -9.64557e-20)
(0.78895 0.684281 2.80386e-19)
(1.34614 1.22181 0)
(1.29425 1.21187 -4.84011e-19)
(1.23418 1.19926 0)
(1.16565 1.18479 2.94221e-19)
(1.08743 1.16788 0)
(0.998497 1.14765 1.22925e-19)
(0.896808 1.12601 2.34207e-19)
(0.777121 1.10277 2.05524e-19)
(0.628943 1.07766 -3.10603e-18)
(0.453181 1.05 1.72207e-19)
(0.257942 1.0144 1.68549e-18)
(0.0320666 0.956085 2.2298e-18)
(-0.255466 0.846693 2.85188e-19)
(-0.669967 0.630778 1.15887e-18)
(-1.21687 0.402066 0)
(-1.20616 0.985516 -2.56087e-18)
(-0.370161 1.94882 1.9425e-18)
(0.0236195 1.95959 -1.39268e-18)
(-0.204937 2.34741 6.68837e-19)
(0.786941 0.70411 -2.05274e-19)
(1.34029 1.25614 -4.72704e-19)
(1.28844 1.24536 0)
(1.2282 1.23242 1.42114e-20)
(1.15927 1.21715 -7.45073e-19)
(1.08089 1.19986 2.11392e-18)
(0.992973 1.18019 7.81024e-19)
(0.891401 1.15913 0)
(0.772139 1.13771 1.43347e-18)
(0.624628 1.11813 -1.70281e-19)
(0.448206 1.10332 0)
(0.248771 1.09125 0)
(0.0116824 1.07604 2.02791e-18)
(-0.303014 1.0535 -8.7752e-19)
(-0.76768 1.05814 -1.27079e-18)
(-1.32823 1.36057 0)
(-1.56595 2.19276 -3.81525e-19)
(-1.11002 2.91455 6.66438e-19)
(-0.694747 3.30468 3.60509e-19)
(-0.465865 3.37414 2.25044e-19)
(0.784617 0.722071 1.22958e-19)
(1.33391 1.28858 5.44973e-19)
(1.28237 1.27707 -2.50214e-19)
(1.22211 1.26349 -3.17665e-19)
(1.15333 1.24761 0)
(1.07501 1.22998 1.43653e-18)
(0.988174 1.21066 1.17733e-18)
(0.887144 1.19076 -1.20274e-19)
(0.768276 1.17193 2.10333e-19)
(0.62227 1.15788 3.00572e-18)
(0.44861 1.15481 2.8581e-18)
(0.252008 1.16588 1.91577e-18)
(0.0196026 1.19462 2.04305e-18)
(-0.276697 1.25989 -2.07503e-18)
(-0.63887 1.42099 -1.90993e-18)
(-0.989466 1.81827 0)
(-1.14349 2.37278 0)
(-0.957796 2.84922 1.17539e-19)
(-0.70166 2.95977 0)
(-0.53478 3.04739 1.2218e-19)
(0.782652 0.741449 0)
(1.32682 1.31833 0)
(1.2762 1.30632 0)
(1.21546 1.29219 -7.56766e-20)
(1.1468 1.27635 -6.34048e-19)
(1.06947 1.2589 1.00781e-18)
(0.983242 1.23951 7.89672e-19)
(0.883655 1.22039 -1.1934e-19)
(0.767627 1.2038 1.86524e-18)
(0.624194 1.1965 -2.52535e-20)
(0.455341 1.20598 5.68802e-18)
(0.268007 1.23793 -2.15559e-19)
(0.0537275 1.30067 2.49505e-19)
(-0.201033 1.42364 2.88915e-19)
(-0.457765 1.63615 3.49396e-21)
(-0.635321 1.99579 4.24029e-20)
(-0.688181 2.36937 -1.57932e-18)
(-0.639139 2.63223 -4.54391e-19)
(-0.50701 2.77855 1.4849e-19)
(-0.420282 2.85707 -1.9091e-19)
(0.663891 0.674455 -3.3101e-20)
(1.32044 1.34542 0)
(1.27029 1.33419 4.11973e-19)
(1.20999 1.32015 7.33479e-19)
(1.14061 1.30441 -1.16138e-18)
(1.06371 1.28665 -1.03054e-18)
(0.979482 1.26687 -8.56104e-19)
(0.881078 1.2492 1.51948e-18)
(0.76791 1.23611 -1.53958e-18)
(0.630877 1.23336 0)
(0.473785 1.25264 2.73333e-18)
(0.306948 1.30212 -1.51027e-18)
(0.131094 1.38916 0)
(-0.0658701 1.53797 2.81362e-19)
(-0.238592 1.75923 5.92122e-19)
(-0.346293 2.06133 -5.69265e-19)
(-0.403436 2.35031 5.90221e-19)
(-0.419318 2.53314 2.78766e-19)
(-0.357596 2.66023 2.49354e-19)
(-0.308991 2.74642 4.07782e-19)
(0.857184 0.85367 1.51208e-19)
(1.31497 1.38214 0)
(1.25989 1.37552 -3.53694e-19)
(1.20049 1.36393 -6.49326e-19)
(1.13181 1.34845 1.07611e-18)
(1.05488 1.32899 9.55864e-19)
(0.969313 1.31037 1.12545e-18)
(0.873253 1.29375 1.17259e-19)
(0.763325 1.28393 1.58666e-18)
(0.630326 1.28978 2.737e-18)
(0.481698 1.32663 1.66638e-19)
(0.333371 1.40302 1.39272e-18)
(0.190778 1.51789 2.29764e-19)
(0.0749103 1.6817 -2.5845e-19)
(0.00215408 1.91378 -5.16293e-19)
(-0.0335047 2.1984 4.81685e-19)
(-0.0942856 2.39788 -4.97216e-19)
(-0.138898 2.49369 -2.53911e-19)
(-0.133963 2.59835 -2.02874e-19)
(-0.193629 2.69445 -2.42572e-20)
(0.854686 0.855312 0)
(1.31013 1.41154 -5.19911e-20)
(1.25582 1.40641 5.8067e-20)
(1.19404 1.39267 6.15328e-20)
(1.12454 1.37454 6.58649e-19)
(1.04768 1.35434 -9.06869e-19)
(0.962198 1.33621 -7.07496e-19)
(0.865444 1.3213 1.11317e-19)
(0.753225 1.3147 -1.71288e-18)
(0.621463 1.32339 -3.37109e-20)
(0.47595 1.36987 -5.261e-18)
(0.338207 1.45861 1.93179e-19)
(0.211831 1.58705 -2.1954e-19)
(0.119431 1.76892 -2.32251e-19)
(0.076643 2.00558 3.15816e-20)
(0.0917323 2.24269 -1.74788e-20)
(0.0546633 2.41119 7.90176e-19)
(0.00544894 2.48647 3.71465e-19)
(-0.0102902 2.58122 -8.00631e-20)
(-0.0790831 2.67071 -1.08275e-19)
(0.822786 0.844732 -5.81882e-20)
(1.30565 1.44597 -3.1457e-19)
(1.24912 1.43547 1.6056e-19)
(1.18507 1.42085 2.33993e-19)
(1.11423 1.40254 0)
(1.03803 1.38258 -1.16706e-18)
(0.952422 1.37124 -9.87245e-19)
(0.85638 1.3601 1.05148e-19)
(0.74755 1.35739 -1.85902e-19)
(0.625026 1.37059 -2.63359e-18)
(0.495894 1.42345 -2.47818e-18)
(0.38235 1.51629 -1.65537e-18)
(0.286639 1.65025 -1.62439e-18)
(0.223257 1.83475 1.54057e-18)
(0.208815 2.04777 1.31465e-18)
(0.248399 2.24813 0)
(0.226234 2.42629 0)
(0.164822 2.52218 -7.81958e-20)
(0.11589 2.6193 0)
(0.0212781 2.681 -3.26499e-20)
(0.789457 0.844754 3.41052e-20)
(1.29686 1.48183 2.01863e-19)
(1.2414 1.46901 0)
(1.17684 1.4554 1.84856e-20)
(1.10519 1.43688 5.41445e-19)
(1.02678 1.4193 -1.61135e-18)
(0.944235 1.41038 -6.10907e-19)
(0.849882 1.39587 9.16853e-20)
(0.746556 1.38759 -1.35747e-18)
(0.63345 1.39833 1.44392e-19)