/*--------------------------------*- C++ -*----------------------------------*\
| =========                 |                                                 |
| \\      /  F ield         | OpenFOAM: The Open Source CFD Toolbox           |
|  \\    /   O peration     | Version:  2306                                  |
|   \\  /    A nd           | Website:  www.openfoam.com                      |
|    \\/     M anipulation  |                                                 |
\*---------------------------------------------------------------------------*/
FoamFile
{
    version     2.0;
    format      ascii;
    arch        "LSB;label=32;scalar=64";
    class       volScalarField;
    location    "28";
    object      p;
}
// * * * * * * * * * * * * * * * * * * * * * * * * * * * * * * * * * * * * * //

dimensions      [0 2 -2 0 0 0 0];

internalField   nonuniform List<scalar> 
8800
(
0.915955
0.867902
0.829521
0.800872
0.780234
0.765458
0.754822
0.747274
0.742372
0.740217
0.741377
0.745483
0.752069
0.761343
0.774053
0.791611
0.816034
0.849631
0.892063
0.949185
0.748494
0.755698
0.764132
0.767542
0.765617
0.760078
0.753344
0.747147
0.742334
0.739393
0.739003
0.7414
0.745818
0.751741
0.758594
0.765171
0.769275
0.768745
0.762663
0.753673
0.725222
0.731398
0.735593
0.738947
0.741436
0.742214
0.741075
0.738883
0.736773
0.735751
0.736593
0.738875
0.741611
0.743752
0.744226
0.74265
0.739767
0.736102
0.731556
0.727767
0.720119
0.722819
0.725538
0.727844
0.72948
0.730785
0.73166
0.731811
0.731463
0.731304
0.731914
0.732942
0.73362
0.733465
0.732596
0.731343
0.729548
0.727012
0.724566
0.723035
0.714971
0.716393
0.718197
0.720254
0.722002
0.723292
0.724283
0.725095
0.725681
0.726142
0.726621
0.726915
0.726809
0.726345
0.725553
0.724269
0.722505
0.720571
0.719221
0.718399
0.710027
0.710941
0.712188
0.713779
0.715437
0.716953
0.718195
0.719209
0.720098
0.720861
0.721347
0.721456
0.721227
0.720645
0.719644
0.718315
0.71687
0.71553
0.714675
0.714135
0.705247
0.705911
0.706887
0.708213
0.709647
0.711127
0.712562
0.713834
0.714933
0.71587
0.716453
0.716572
0.716261
0.715543
0.71454
0.71342
0.712271
0.711247
0.710622
0.71023
0.700623
0.701132
0.701941
0.703113
0.70443
0.705833
0.707296
0.708742
0.710062
0.711187
0.711912
0.712081
0.71175
0.711073
0.710216
0.709272
0.708315
0.707496
0.707016
0.706716
0.69611
0.696509
0.697197
0.698265
0.699523
0.70088
0.702327
0.703842
0.705353
0.706722
0.707617
0.707877
0.707662
0.707152
0.706465
0.705674
0.704866
0.704205
0.703831
0.703596
0.691653
0.691968
0.692574
0.693584
0.694813
0.696157
0.697617
0.699185
0.700824
0.702416
0.703555
0.704047
0.704057
0.703746
0.703228
0.702587
0.701899
0.701357
0.701065
0.700879
0.687218
0.687466
0.688011
0.688987
0.690211
0.691594
0.693136
0.694819
0.69662
0.698461
0.699918
0.700723
0.700986
0.70086
0.700489
0.699985
0.699417
0.698981
0.698758
0.698612
0.682769
0.682961
0.683468
0.684447
0.685711
0.687161
0.688814
0.690692
0.692769
0.694945
0.696798
0.697932
0.698445
0.698528
0.698336
0.697957
0.697495
0.697141
0.696974
0.69686
0.678265
0.678404
0.678874
0.679848
0.681137
0.682638
0.684364
0.686383
0.688734
0.691353
0.693676
0.695244
0.696153
0.696589
0.696666
0.696485
0.696164
0.695909
0.695802
0.695717
0.673718
0.67381
0.674248
0.675221
0.676561
0.678169
0.680083
0.682376
0.68508
0.688194
0.691136
0.693283
0.694629
0.695374
0.69571
0.695753
0.695599
0.695463
0.695416
0.695356
0.66907
0.66912
0.669517
0.670454
0.671816
0.673509
0.6756
0.678209
0.681428
0.685237
0.688913
0.691674
0.693559
0.694764
0.69546
0.695807
0.695916
0.695941
0.695949
0.695901
0.663939
0.66399
0.66436
0.665272
0.666649
0.668458
0.670794
0.673789
0.677569
0.682183
0.686797
0.690408
0.692966
0.694724
0.695911
0.696639
0.697052
0.697258
0.697316
0.697268
0.658011
0.658054
0.658434
0.659371
0.660881
0.662938
0.665665
0.669252
0.673862
0.679546
0.685273
0.689826
0.693135
0.695491
0.697161
0.698275
0.698982
0.699344
0.69944
0.699384
0.650948
0.650987
0.651427
0.652454
0.654185
0.656587
0.659822
0.664132
0.669738
0.676732
0.683866
0.689608
0.693847
0.696915
0.699127
0.700675
0.70169
0.702204
0.702334
0.70227
0.642414
0.642459
0.642985
0.644223
0.646297
0.649211
0.653174
0.658499
0.665437
0.674094
0.682929
0.690056
0.69534
0.699209
0.702021
0.704018
0.705331
0.705976
0.706136
0.706061
0.632001
0.63205
0.632706
0.634253
0.636826
0.640455
0.645413
0.652064
0.660714
0.671453
0.682363
0.691137
0.697666
0.702452
0.705952
0.708456
0.710082
0.710859
0.711055
0.710969
0.619204
0.61926
0.620096
0.622073
0.625355
0.629981
0.636292
0.644708
0.655555
0.66888
0.682287
0.693017
0.700969
0.706815
0.711156
0.714225
0.716195
0.717121
0.717356
0.717255
0.603298
0.603359
0.60444
0.60704
0.611344
0.61737
0.625532
0.636287
0.649937
0.666443
0.682826
0.695844
0.705488
0.712592
0.717842
0.721547
0.723897
0.725
0.725283
0.725163
0.58331
0.583387
0.584829
0.588316
0.594088
0.602103
0.612811
0.626673
0.643881
0.66424
0.684113
0.699772
0.711362
0.719907
0.726206
0.730659
0.733443
0.734759
0.735086
0.734939
0.557558
0.557682
0.559748
0.564656
0.572635
0.583575
0.59787
0.615847
0.637512
0.662463
0.686338
0.704968
0.718741
0.728927
0.736426
0.741725
0.745033
0.746585
0.746948
0.746767
0.52311
0.523384
0.526733
0.534242
0.545878
0.561249
0.580591
0.603951
0.631082
0.661368
0.68971
0.711588
0.727738
0.73972
0.748577
0.754865
0.758794
0.760596
0.760976
0.760749
0.474284
0.475478
0.482214
0.495052
0.51298
0.53507
0.561308
0.591446
0.625022
0.661282
0.694432
0.719731
0.738366
0.752244
0.762591
0.770032
0.774688
0.776748
0.777116
0.776829
0.402145
0.409942
0.425437
0.448055
0.475375
0.506375
0.541009
0.578948
0.619715
0.662561
0.701014
0.730144
0.751632
0.767774
0.780008
0.788997
0.794729
0.797339
0.79786
0.797653
0.325062
0.342485
0.367508
0.400476
0.437478
0.47756
0.520692
0.566682
0.615125
0.665391
0.710283
0.744378
0.76971
0.788933
0.803779
0.815038
0.822278
0.825584
0.8265
0.826486
0.261067
0.281537
0.314459
0.355957
0.401539
0.450115
0.501438
0.555266
0.611185
0.668566
0.71948
0.75807
0.786799
0.808722
0.82566
0.838462
0.847001
0.851088
0.851809
0.851892
0.208955
0.231428
0.269453
0.317003
0.369286
0.42494
0.483455
0.544414
0.607272
0.671306
0.727733
0.77027
0.801812
0.825781
0.844295
0.858263
0.867916
0.872295
0.873172
0.873348
0.165806
0.189375
0.230917
0.283267
0.340897
0.402339
0.466949
0.534171
0.603279
0.673358
0.734744
0.780696
0.814538
0.840126
0.859812
0.874662
0.884849
0.889693
0.890894
0.891106
0.128903
0.15311
0.197393
0.253461
0.315556
0.381902
0.451768
0.524491
0.599188
0.674733
0.740569
0.789495
0.82525
0.852085
0.87258
0.888013
0.898461
0.903697
0.905115
0.905332
0.0963174
0.12095
0.167324
0.226518
0.292392
0.362988
0.437494
0.515136
0.594902
0.675462
0.745384
0.796987
0.834378
0.862171
0.883186
0.898911
0.909474
0.914884
0.916416
0.916586
0.0666293
0.0916388
0.139745
0.201623
0.27073
0.345048
0.4237
0.50581
0.590255
0.675524
0.749333
0.80346
0.842343
0.87095
0.892345
0.908196
0.918814
0.924282
0.925904
0.92605
0.0389703
0.0643181
0.11396
0.178101
0.250075
0.327698
0.410066
0.49626
0.58508
0.67485
0.752452
0.809102
0.849465
0.878877
0.900672
0.916654
0.92729
0.932753
0.934447
0.934579
0.0126359
0.0383679
0.0894237
0.155531
0.230063
0.310635
0.396359
0.486305
0.579227
0.67334
0.754745
0.813987
0.855952
0.886288
0.908552
0.924726
0.935397
0.940765
0.942452
0.942616
-0.0126742
0.0134829
0.0656186
0.133643
0.210467
0.293679
0.382436
0.475825
0.572598
0.670934
0.756197
0.818231
0.862
0.893413
0.91627
0.932719
0.943463
0.948771
0.950345
0.950449
-0.0373062
-0.0105849
0.0425117
0.112262
0.191122
0.276699
0.368208
0.464754
0.565135
0.66758
0.756821
0.821888
0.867681
0.900367
0.92397
0.940801
0.951648
0.956892
0.958316
0.958339
-0.0613322
-0.034217
0.0199799
0.0912676
0.171941
0.259645
0.353635
0.453066
0.556817
0.663251
0.756551
0.824874
0.87299
0.907185
0.931695
0.948995
0.959952
0.965089
0.966379
0.966293
-0.0848468
-0.0571979
-0.00207561
0.0706028
0.15291
0.242514
0.338722
0.440763
0.547631
0.657874
0.755254
0.827116
0.877891
0.913873
0.939456
0.957288
0.968319
0.973283
0.974398
0.974223
-0.10792
-0.0796856
-0.0236619
0.0502749
0.134032
0.225327
0.323505
0.427881
0.537579
0.651399
0.752856
0.828498
0.882301
0.920409
0.947263
0.965662
0.976708
0.981389
0.98229
0.982045
-0.130553
-0.101682
-0.0447718
0.0303084
0.115357
0.208132
0.308045
0.414473
0.5267
0.643826
0.749277
0.828858
0.886072
0.926754
0.955159
0.974132
0.985017
0.989285
0.989939
0.989634
-0.152573
-0.123115
-0.0653607
0.0107431
0.0969365
0.191008
0.292415
0.400629
0.515076
0.635193
0.744427
0.828034
0.889007
0.932813
0.963242
0.982844
0.993255
0.996833
0.997177
0.996827
-0.173944
-0.143928
-0.0853933
-0.00836104
0.0788351
0.174023
0.276714
0.386442
0.5028
0.625531
0.738264
0.82586
0.890853
0.938386
0.971608
0.992188
1.0017
1.00398
1.00383
1.00348
-0.194722
-0.164076
-0.104829
-0.0269602
0.0611206
0.157265
0.261038
0.372022
0.489972
0.614924
0.730768
0.8222
0.891306
0.943086
0.980174
1.00279
1.01134
1.01122
1.00984
1.0096
-0.214736
-0.183545
-0.123607
-0.0449853
0.0438569
0.14082
0.245485
0.357484
0.476717
0.603494
0.72196
0.816939
0.890063
0.946304
0.988369
1.015
1.02417
1.02118
1.01657
1.01527
-0.234068
-0.20233
-0.141743
-0.0624628
0.0270121
0.12464
0.229997
0.342766
0.462967
0.591169
0.711712
0.809826
0.88681
0.947248
0.994924
1.02798
1.04159
1.03971
1.02864
1.01578
-0.252648
-0.220422
-0.159369
-0.0795824
0.0102932
0.10839
0.214154
0.327375
0.448162
0.577277
0.699326
0.79998
0.880861
0.944689
0.997082
1.03746
1.05656
1.05
1.03373
1.0202
-0.270308
-0.237843
-0.176314
-0.0961166
-0.00603164
0.0923984
0.198183
0.311648
0.432633
0.562124
0.684996
0.787073
0.871783
0.937765
0.989695
1.03082
1.05235
1.03438
0.965132
0.931992
-0.286605
-0.255773
-0.19219
-0.111483
-0.0212476
0.0771673
0.18237
0.295831
0.416629
0.545881
0.668777
0.770926
0.858679
0.926849
0.968983
1.00099
1.00569
0.956744
0.884214
0.839918
-0.336446
-0.272312
-0.206728
-0.126671
-0.0365272
0.061483
0.166734
0.279714
0.39986
0.528179
0.650208
0.751307
0.838413
0.913522
0.922342
0.933619
0.901117
0.837817
0.760064
0.716632
-0.303289
-0.286597
-0.228026
-0.148673
-0.0590657
0.0385673
0.142866
0.254877
0.373574
0.499705
0.618748
0.716828
0.794855
0.870268
0.870036
0.764117
0.661488
0.590023
0.516491
0.554388
-0.334412
-0.304565
-0.244859
-0.165892
-0.0764076
0.0208441
0.125187
0.236394
0.353799
0.47778
0.593545
0.687542
0.757666
0.797774
0.753774
0.608374
0.480187
0.389048
0.289324
0.346468
-0.357996
-0.325689
-0.264368
-0.185127
-0.0956815
0.00140781
0.105521
0.215743
0.331538
0.452824
0.564519
0.652846
0.713049
0.721054
0.616484
0.439523
0.283372
0.161935
0.0295446
0.0725564
-0.380963
-0.347315
-0.284771
-0.204784
-0.115203
-0.0182774
0.0852452
0.194356
0.30836
0.42662
0.533491
0.615402
0.660972
0.635111
0.474334
0.270158
0.0735034
-0.105152
-0.300811
-0.296324
-0.403276
-0.36933
-0.305933
-0.225289
-0.135526
-0.0388189
0.0640002
0.171895
0.28388
0.398786
0.500282
0.575061
0.602976
0.541506
0.338268
0.11471
-0.1123
-0.310044
-0.580776
-0.867638
-0.42582
-0.391948
-0.328109
-0.247015
-0.157063
-0.0605251
0.0416634
0.14833
0.258219
0.369596
0.46553
0.532217
0.542073
0.429104
0.218861
-0.00881497
-0.232913
-0.41366
-0.498379
-0.639961
-0.449439
-0.415606
-0.35159
-0.270283
-0.180275
-0.0839926
0.0174778
0.122756
0.230248
0.337648
0.427574
0.484593
0.469084
0.315801
0.11206
-0.100046
-0.284768
-0.387569
-0.411727
-0.431255
-0.474425
-0.440637
-0.376516
-0.295157
-0.20526
-0.109388
-0.00885781
0.0947474
0.19943
0.302252
0.385683
0.43063
0.391831
0.210099
0.0152204
-0.171061
-0.314091
-0.358122
-0.372678
-0.374613
-0.500976
-0.467127
-0.402922
-0.321596
-0.231934
-0.136672
-0.0373108
0.064309
0.165754
0.263404
0.339721
0.370712
0.312223
0.110557
-0.0746382
-0.240242
-0.336374
-0.351249
-0.352941
-0.352967
-0.529072
-0.495159
-0.430806
-0.349552
-0.260259
-0.165778
-0.0678211
0.0314975
0.129292
0.221221
0.289592
0.307806
0.216542
0.0188016
-0.158521
-0.295105
-0.338036
-0.342393
-0.342621
-0.341973
-0.558395
-0.524323
-0.460018
-0.378895
-0.290094
-0.196582
-0.100276
-0.00356595
0.0901598
0.175897
0.235787
0.238284
0.11672
-0.068268
-0.228874
-0.323351
-0.331891
-0.334504
-0.335497
-0.335192
-0.588365
-0.554226
-0.490299
-0.409358
-0.321189
-0.228841
-0.134421
-0.0406329
0.0486686
0.127738
0.179587
0.162772
0.0247018
-0.147483
-0.290426
-0.322687
-0.335205
-0.333607
-0.331059
-0.330135
-0.618586
-0.584603
-0.520941
-0.440508
-0.353133
-0.262141
-0.169853
-0.079282
0.00532131
0.077347
0.121263
0.0863997
-0.067428
-0.21942
-0.340667
-0.376145
-0.352095
-0.335698
-0.329302
-0.327124
-0.648078
-0.614618
-0.55133
-0.471653
-0.38531
-0.295899
-0.205965
-0.118861
-0.0391948
0.0258307
0.060179
0.0115431
-0.162206
-0.285295
-0.363878
-0.361243
-0.352341
-0.341587
-0.333884
-0.331416
-0.675576
-0.642863
-0.580689
-0.501949
-0.416877
-0.329295
-0.241926
-0.158419
-0.0839417
-0.0257634
-0.000340697
-0.0579943
-0.25163
-0.37943
-0.341266
-0.375898
-0.405003
-0.417853
-0.413079
-0.407266
-0.699683
-0.66806
-0.607745
-0.530273
-0.446801
-0.361263
-0.276674
-0.196738
-0.127456
-0.0764636
-0.0552244
-0.132562
-0.326424
-0.546496
-0.657786
-0.613438
-0.572889
-0.574547
-0.568676
-0.560057
-0.718616
-0.688841
-0.630686
-0.555271
-0.473808
-0.390564
-0.308792
-0.232398
-0.167787
-0.124425
-0.105583
-0.208412
-0.395808
-0.631325
-0.881426
-0.748509
-0.713608
-0.712195
-0.711096
-0.710776
-0.730685
-0.703447
-0.648223
-0.575345
-0.496348
-0.415677
-0.336677
-0.263714
-0.202907
-0.165926
-0.155477
-0.273871
-0.416096
-0.306295
-0.0913681
-0.457248
-0.798745
-0.826998
-0.811221
-0.807316
-0.733749
-0.710112
-0.65873
-0.589027
-0.512867
-0.43501
-0.358652
-0.288388
-0.230781
-0.198261
-0.204714
-0.333539
-0.482742
-0.379727
-0.346214
-0.662834
-0.863275
-0.846075
-0.809558
-0.833829
-0.726697
-0.707142
-0.660604
-0.595044
-0.522108
-0.447072
-0.372974
-0.304045
-0.248164
-0.218292
-0.239985
-0.436188
-0.911898
-1.65662
-2.26517
-2.62027
-2.3987
-1.95743
-1.55528
-1.45183
-0.707734
-0.692315
-0.652689
-0.592557
-0.523294
-0.450844
-0.378183
-0.309189
-0.250724
-0.218094
-0.237772
-0.48044
-1.14187
-2.07387
-2.66466
-2.92473
-2.82298
-2.54315
-2.20347
-1.99385
-0.678362
-0.667587
-0.635346
-0.581814
-0.516445
-0.446242
-0.373702
-0.302413
-0.237361
-0.187496
-0.182686
-0.301945
-0.619775
-0.942322
-1.22921
-1.24433
-1.04018
-0.784771
-0.562866
-0.434336
-0.642186
-0.635662
-0.611488
-0.564765
-0.503181
-0.434346
-0.360846
-0.284064
-0.208076
-0.131682
-0.0694613
0.0381141
0.163836
0.451327
0.836735
1.24077
1.57512
1.80021
1.91715
1.95947
-0.604209
-0.600594
-0.584938
-0.54496
-0.486474
-0.418101
-0.342222
-0.25978
-0.168477
-0.0683178
0.0606023
0.203424
0.553912
1.13183
1.77638
2.35627
2.78786
3.03824
3.14506
3.17541
-0.569383
-0.567296
-0.558274
-0.526069
-0.470767
-0.401446
-0.32292
-0.235371
-0.136986
-0.0238023
0.103849
0.245227
0.460432
0.964227
1.55533
2.06758
2.43608
2.64774
2.742
2.7688
-0.535075
-0.533975
-0.530965
-0.508914
-0.457562
-0.386853
-0.306765
-0.218226
-0.122525
-0.0109892
0.10548
0.22789
0.365522
0.688133
1.13702
1.50375
1.77566
1.94008
2.01942
2.04478
-0.512613
-0.512054
-0.511915
-0.495097
-0.443908
-0.37156
-0.290767
-0.205244
-0.113839
-0.0117917
0.0896245
0.186707
0.276932
0.459522
0.756703
1.02003
1.21849
1.33733
1.39051
1.40446
-0.492054
-0.49452
-0.496396
-0.479039
-0.423503
-0.348413
-0.269476
-0.189803
-0.10664
-0.0176837
0.0657245
0.136392
0.202981
0.310259
0.504791
0.679799
0.809094
0.88416
0.917436
0.926016
-0.431927
-0.43629
-0.438574
-0.421688
-0.371846
-0.305713
-0.236843
-0.168193
-0.0974789
-0.0235438
0.0432578
0.0933331
0.138065
0.20772
0.338394
0.450061
0.529511
0.574747
0.593635
0.595587
-0.317382
-0.320303
-0.32163
-0.310722
-0.280475
-0.238399
-0.190678
-0.13968
-0.0848095
-0.0261904
0.0244112
0.055857
0.0800487
0.125495
0.215661
0.290738
0.341177
0.368597
0.378974
0.379369
-0.19381
-0.194822
-0.195733
-0.192981
-0.182978
-0.165725
-0.140817
-0.10862
-0.0695485
-0.0252526
0.0121963
0.0314979
0.0399498
0.0710574
0.12993
0.183442
0.218828
0.237447
0.244747
0.244473
-0.105827
-0.106044
-0.107304
-0.110142
-0.111968
-0.108962
-0.0987919
-0.0804933
-0.0538582
-0.0209568
0.0074522
0.0222191
0.0252529
0.0523345
0.0967121
0.130614
0.152613
0.164241
0.168484
0.167722
-0.0596131
-0.0598524
-0.0614375
-0.0652226
-0.0698483
-0.0720695
-0.0690082
-0.058717
-0.0401683
-0.0138971
0.0123212
0.0289458
0.0377301
0.0606928
0.0919017
0.113886
0.126577
0.132595
0.134606
0.133686
-0.0408792
-0.0411725
-0.0425507
-0.0457376
-0.0496396
-0.0522606
-0.0513114
-0.0443005
-0.0294501
-0.00633137
0.0203565
0.0440863
0.0653193
0.0838304
0.101251
0.11337
0.122067
0.12747
0.129831
0.128758
-0.0375665
-0.0377059
-0.0385142
-0.040656
-0.0432254
-0.0447472
-0.0434442
-0.0368492
-0.0233014
-0.00107621
0.0267754
0.0557206
0.0860785
0.105013
0.111982
0.119867
0.128304
0.135544
0.13831
0.136668
-0.0449726
-0.0448094
-0.0448758
-0.0458006
-0.0469391
-0.046976
-0.0443107
-0.0368519
-0.0223697
0.000549965
0.0286444
0.0565233
0.0860444
0.101465
0.10832
0.119836
0.130697
0.139449
0.143223
0.141579
-0.0629722
-0.0624982
-0.0619033
-0.0616414
-0.061176
-0.0592935
-0.0545328
-0.0450614
-0.0278709
-0.00266968
0.0244174
0.0461563
0.0612194
0.0699184
0.0837806
0.102875
0.121048
0.132401
0.136207
0.13427
-0.0927705
-0.0920067
-0.0908445
-0.0895861
-0.0875834
-0.0836661
-0.076537
-0.0642388
-0.0434804
-0.0138197
0.0152533
0.0333867
0.0329179
0.0345096
0.0574791
0.0839033
0.10304
0.114224
0.116265
0.115073
-0.135029
-0.134077
-0.132625
-0.130685
-0.127647
-0.122467
-0.113893
-0.0995397
-0.0756922
-0.0400143
-0.00112948
0.0249342
0.0200568
0.0203333
0.0472683
0.0768901
0.096602
0.104334
0.106326
0.106324
-0.191166
-0.19005
-0.188433
-0.186282
-0.183213
-0.178636
-0.171532
-0.159117
-0.13704
-0.0980065
-0.0421673
0.00670415
0.0137647
0.0178903
0.0501618
0.086047
0.112204
0.124859
0.124743
0.123977
-0.261118
-0.260059
-0.258802
-0.257406
-0.256131
-0.255454
-0.255446
-0.254576
-0.247627
-0.216406
-0.137693
-0.0523225
-0.0228239
-0.00428483
0.0434494
0.0976811
0.135247
0.149163
0.147476
0.14807
-0.342117
-0.341517
-0.341392
-0.342198
-0.34548
-0.35362
-0.369722
-0.396465
-0.429146
-0.426289
-0.315233
-0.177482
-0.111123
-0.0654594
0.0225165
0.107891
0.173967
0.191775
0.185398
0.183529
-0.425892
-0.426243
-0.428119
-0.432803
-0.443784
-0.466459
-0.509323
-0.583501
-0.685615
-0.733657
-0.585109
-0.371993
-0.257159
-0.16782
-0.041538
0.0809948
0.151735
0.167082
0.162261
0.158586
-0.497848
-0.499502
-0.503922
-0.5136
-0.534292
-0.575139
-0.651992
-0.787545
-0.980801
-1.09043
-0.90181
-0.611842
-0.445145
-0.310806
-0.154335
-0.0300308
0.0310709
0.0350913
0.0319953
0.028079
-0.539597
-0.542536
-0.54925
-0.563428
-0.592943
-0.65022
-0.758058
-0.948031
-1.21284
-1.37552
-1.16937
-0.839266
-0.627622
-0.47744
-0.31082
-0.20855
-0.175748
-0.16942
-0.169048
-0.171579
-0.53524
-0.538747
-0.546503
-0.563212
-0.597329
-0.662929
-0.785831
-1.00158
-1.29828
-1.48057
-1.28835
-0.970308
-0.785697
-0.637832
-0.516866
-0.421155
-0.399423
-0.394019
-0.392436
-0.394382
-0.478775
-0.482199
-0.489576
-0.505235
-0.53807
-0.601245
-0.719881
-0.928206
-1.20235
-1.36239
-1.21025
-0.963912
-0.856262
-0.794514
-0.762043
-0.688384
-0.644288
-0.624548
-0.615428
-0.613715
-0.378627
-0.381216
-0.386759
-0.398997
-0.42503
-0.47596
-0.572614
-0.743543
-0.962582
-1.07409
-0.967377
-0.843571
-0.799282
-0.90757
-1.00368
-0.920787
-0.839705
-0.796023
-0.77462
-0.768082
-0.254518
-0.255847
-0.258834
-0.266279
-0.282937
-0.316466
-0.381795
-0.501407
-0.662621
-0.738766
-0.678529
-0.620287
-0.648676
-0.81149
-0.984607
-0.921673
-0.822309
-0.76984
-0.742856
-0.732878
-0.129527
-0.12981
-0.130835
-0.133682
-0.141273
-0.157539
-0.190422
-0.255017
-0.353688
-0.412636
-0.398599
-0.365178
-0.351291
-0.453755
-0.59395
-0.574111
-0.522746
-0.492436
-0.47664
-0.469992
-0.0209667
-0.0208196
-0.019399
-0.017904
-0.017667
-0.0188629
-0.0219915
-0.029004
-0.0451273
-0.0704799
-0.0784706
-0.0761791
-0.0863504
-0.100544
-0.105237
-0.109872
-0.0988164
-0.0919426
-0.0905168
-0.0896595
-0.0911875
0.115973
0.338778
0.522237
0.669925
0.787975
0.887122
0.969977
1.00376
0.98797
0.269703
0.405615
0.546558
0.668401
0.771485
0.857431
0.92673
0.9754
1.00098
1.0135
0.511148
0.602495
0.697548
0.782419
0.855474
0.916579
0.964959
1.00055
1.02631
1.04385
0.683849
0.747395
0.814385
0.875842
0.929159
0.974264
1.01121
1.04088
1.06455
1.08261
0.817064
0.862788
0.912645
0.958838
0.999901
1.03562
1.06611
1.09162
1.11217
1.12997
0.925767
0.960633
1.00125
1.03847
1.07254
1.10306
1.1297
1.15216
1.1697
1.18723
1.02142
1.0514
1.08683
1.12017
1.15106
1.17908
1.20358
1.22392
1.23888
1.25631
1.11196
1.14205
1.17686
1.20972
1.23995
1.26709
1.29044
1.30921
1.32209
1.33956
1.20851
1.24241
1.27935
1.31353
1.34396
1.37045
1.39263
1.40992
1.42153
1.43935
1.32421
1.36284
1.40138
1.43592
1.46542
1.49029
1.51074
1.52657
1.538
1.55636
1.46949
1.50917
1.5447
1.57522
1.60092
1.62309
1.64219
1.65779
1.6705
1.68865
1.64418
1.67649
1.7024
1.72477
1.74489
1.76369
1.78137
1.79797
1.81375
1.83196
1.83192
1.84957
1.86523
1.88189
1.89808
1.91266
1.92572
1.93972
1.95683
1.97652
2.01382
2.02468
2.03685
2.04767
2.05694
2.06654
2.07746
2.08908
2.09904
2.11422
2.22474
2.22678
2.21164
2.19643
2.19008
2.19577
2.21439
2.24482
2.27697
2.30772
2.53066
2.39362
2.31735
2.27531
2.25789
2.26193
2.2893
2.34545
2.44891
2.6642
0.812245
0.808868
0.802938
0.793126
0.780176
0.767743
0.757416
0.749442
0.743741
0.740388
0.739916
0.742542
0.747566
0.754742
0.764124
0.775771
0.788871
0.800841
0.808289
0.813002
0.730267
0.736151
0.743057
0.748291
0.75113
0.75079
0.747868
0.743919
0.740304
0.737933
0.737662
0.739742
0.743327
0.747599
0.751482
0.753435
0.752287
0.748167
0.74225
0.735197
0.722637
0.724984
0.728332
0.731236
0.733447
0.735237
0.736176
0.735886
0.7348
0.733816
0.733857
0.735146
0.736842
0.738023
0.73799
0.736757
0.734899
0.732517
0.729336
0.726361
0.717526
0.718612
0.720479
0.722861
0.724819
0.726202
0.727277
0.728097
0.728502
0.728645
0.72899
0.72962
0.730023
0.72987
0.72925
0.728297
0.726827
0.724715
0.722565
0.721139
0.712477
0.713131
0.714243
0.715971
0.71778
0.719393
0.72064
0.721621
0.722465
0.723174
0.72374
0.724066
0.72404
0.723693
0.723009
0.721873
0.720344
0.718695
0.717321
0.716525
0.707617
0.708069
0.70886
0.710174
0.711686
0.713229
0.714688
0.715938
0.716994
0.717923
0.718637
0.718956
0.718872
0.718406
0.717539
0.716384
0.715114
0.71387
0.712891
0.712358
0.702921
0.703256
0.703876
0.704972
0.706294
0.707697
0.709155
0.710584
0.711879
0.713001
0.713864
0.714267
0.714163
0.713619
0.712771
0.711781
0.710754
0.709747
0.708992
0.7086
0.698357
0.698613
0.699118
0.700073
0.701295
0.702632
0.704047
0.705529
0.707006
0.708359
0.709415
0.709922
0.709851
0.709378
0.708676
0.707851
0.706971
0.70614
0.705545
0.705245
0.69388
0.694077
0.694498
0.695355
0.696515
0.697814
0.699209
0.700701
0.702264
0.703812
0.705099
0.705786
0.705894
0.705619
0.705099
0.704432
0.703693
0.703005
0.702534
0.702301
0.689435
0.689584
0.689943
0.690739
0.691872
0.693165
0.694587
0.69614
0.697819
0.699562
0.701114
0.702075
0.702432
0.702372
0.702028
0.701509
0.700905
0.700332
0.699959
0.69978
0.684997
0.685107
0.685419
0.68618
0.687318
0.688648
0.690156
0.69185
0.693699
0.695662
0.697536
0.698875
0.699543
0.699698
0.699515
0.699132
0.698646
0.698174
0.697883
0.697748
0.680524
0.680598
0.680874
0.681618
0.682775
0.684156
0.685721
0.687536
0.689641
0.691983
0.69429
0.696005
0.696968
0.697414
0.697496
0.697304
0.696954
0.696582
0.696366
0.696271
0.676001
0.676041
0.67628
0.676998
0.678165
0.679593
0.681255
0.683217
0.685521
0.688191
0.691008
0.693307
0.694797
0.695644
0.696017
0.696067
0.695907
0.695674
0.695544
0.695488
0.671421
0.671424
0.671639
0.672334
0.673522
0.675034
0.676847
0.679074
0.68179
0.685017
0.688493
0.691403
0.693371
0.694608
0.695309
0.695641
0.695696
0.695632
0.695595
0.69557
0.666593
0.666597
0.666776
0.667417
0.668572
0.670112
0.672052
0.674517
0.677627
0.681462
0.685739
0.689479
0.692161
0.693985
0.695124
0.695854
0.696282
0.696473
0.696551
0.696545
0.661098
0.661081
0.661277
0.661916
0.663097
0.664756
0.666953
0.669839
0.673556
0.678208
0.683495
0.68821
0.691655
0.694093
0.695807
0.696957
0.6977
0.698121
0.698294
0.698299
0.654644
0.654618
0.654832
0.65551
0.656808
0.658687
0.661242
0.664658
0.66914
0.674837
0.681381
0.687277
0.691681
0.694873
0.697152
0.698769
0.699872
0.700528
0.700789
0.7008
0.64689
0.646855
0.647109
0.647913
0.64941
0.651622
0.654688
0.658831
0.664317
0.671324
0.679422
0.686777
0.692302
0.696355
0.699293
0.70142
0.702898
0.70378
0.704116
0.704134
0.637459
0.637411
0.637733
0.638728
0.640553
0.643272
0.647061
0.652212
0.65903
0.667735
0.677758
0.686837
0.693678
0.698717
0.702387
0.705067
0.706941
0.708033
0.708441
0.708466
0.625907
0.625843
0.62626
0.627519
0.629817
0.63324
0.638025
0.644514
0.653064
0.663903
0.676294
0.687464
0.69585
0.702032
0.706553
0.70988
0.7122
0.713524
0.714013
0.714046
0.61162
0.611537
0.61209
0.61373
0.616699
0.621121
0.627277
0.635565
0.646386
0.659922
0.675192
0.688827
0.699025
0.70654
0.712078
0.716151
0.718936
0.720501
0.721086
0.721127
0.593762
0.593657
0.594415
0.596589
0.600512
0.606359
0.614429
0.625152
0.638911
0.6558
0.674521
0.691042
0.703356
0.712437
0.719138
0.724008
0.727357
0.729223
0.729921
0.729967
0.571045
0.570933
0.572042
0.575029
0.580335
0.588264
0.599045
0.613084
0.630645
0.651665
0.674456
0.694294
0.70901
0.719877
0.727896
0.733726
0.737689
0.739908
0.740728
0.740772
0.541253
0.541179
0.542945
0.547324
0.554879
0.566001
0.580724
0.599286
0.62172
0.647727
0.675207
0.698752
0.716127
0.728976
0.738476
0.745394
0.750099
0.752725
0.753663
0.753692
0.500328
0.500442
0.50366
0.510946
0.522601
0.538881
0.559368
0.58398
0.612467
0.644314
0.677034
0.704597
0.724815
0.739785
0.750906
0.759056
0.764636
0.767704
0.768735
0.768735
0.440644
0.441952
0.449778
0.463475
0.482689
0.507066
0.535554
0.56782
0.603456
0.641842
0.680177
0.71192
0.735055
0.752198
0.765013
0.774512
0.781084
0.784609
0.785686
0.785644
0.369034
0.371426
0.386397
0.410103
0.439805
0.473627
0.510871
0.551335
0.594714
0.640435
0.685462
0.722593
0.749774
0.770092
0.785453
0.796952
0.805038
0.809446
0.810677
0.810716
0.295633
0.302692
0.32489
0.358484
0.397954
0.440988
0.486941
0.535642
0.586819
0.639983
0.691866
0.734535
0.765842
0.789429
0.807531
0.821389
0.831171
0.835754
0.837424
0.837797
0.236845
0.245662
0.272495
0.312867
0.359899
0.410708
0.464451
0.520803
0.579375
0.639604
0.697916
0.745621
0.780537
0.806824
0.826995
0.842378
0.853188
0.858906
0.86139
0.861898
0.188922
0.198315
0.228603
0.27385
0.326618
0.383631
0.443894
0.506922
0.572162
0.638896
0.703092
0.75527
0.793237
0.821669
0.843419
0.860062
0.871909
0.87845
0.881266
0.881842
0.148773
0.15836
0.190937
0.239975
0.297384
0.359509
0.425252
0.494053
0.565197
0.637785
0.707303
0.763428
0.803961
0.834121
0.857061
0.874574
0.887138
0.894327
0.897385
0.897989
0.113844
0.123509
0.157771
0.209867
0.271128
0.3376
0.408095
0.481968
0.558384
0.636269
0.710625
0.770295
0.813047
0.844593
0.868388
0.886423
0.899347
0.906919
0.910106
0.910744
0.082575
0.0922681
0.127831
0.182516
0.246993
0.317195
0.391886
0.470305
0.551513
0.634281
0.713146
0.77612
0.820881
0.853594
0.87802
0.896341
0.909424
0.917165
0.920343
0.921028
0.0537802
0.0635244
0.100175
0.157069
0.22432
0.297799
0.376209
0.458732
0.544351
0.631709
0.714893
0.781057
0.827767
0.861573
0.88656
0.905126
0.918259
0.926116
0.929292
0.929907
0.026692
0.0364996
0.0741229
0.132903
0.202628
0.279021
0.360755
0.447007
0.536712
0.628423
0.715818
0.785192
0.833881
0.868845
0.894448
0.913315
0.926564
0.934397
0.937596
0.938073
0.000819785
0.0107125
0.0492398
0.109622
0.181604
0.260596
0.345317
0.434964
0.528457
0.624311
0.715872
0.788547
0.839383
0.875664
0.902005
0.921235
0.934633
0.94245
0.945605
0.946065
-0.0242476
-0.0141827
0.0251646
0.0870463
0.161034
0.242351
0.329763
0.422499
0.519506
0.619309
0.715016
0.791183
0.844405
0.88219
0.909422
0.929143
0.942758
0.950584
0.953624
0.954069
-0.0486862
-0.0383839
0.00167623
0.0650268
0.14079
0.224173
0.314016
0.409564
0.509815
0.613383
0.713235
0.79308
0.848928
0.888463
0.916777
0.937116
0.951009
0.958842
0.961746
0.962129
-0.0725501
-0.0620386
-0.0212364
0.0434371
0.120797
0.20604
0.298058
0.396143
0.499375
0.606497
0.710438
0.794122
0.852911
0.89449
0.924095
0.945167
0.959367
0.967157
0.969893
0.97018
-0.0959605
-0.0851533
-0.0436169
0.0222529
0.101046
0.187949
0.281901
0.382259
0.488197
0.598623
0.706527
0.794214
0.856275
0.900242
0.931381
0.953294
0.967793
0.975495
0.978001
0.978161
-0.118845
-0.107755
-0.0654937
0.00148057
0.0815602
0.169933
0.265599
0.367963
0.476314
0.589754
0.701466
0.793242
0.858878
0.905641
0.938638
0.961516
0.976242
0.983702
0.985907
0.985949
-0.141235
-0.129837
-0.0868357
-0.0188487
0.0623814
0.152045
0.249208
0.353328
0.463796
0.579941
0.695224
0.791069
0.860539
0.910561
0.94588
0.969917
0.984728
0.991704
0.99349
0.993405
-0.162941
-0.151313
-0.107595
-0.0386876
0.0435706
0.13437
0.232809
0.33844
0.450737
0.56926
0.687779
0.787584
0.861053
0.914796
0.953088
0.978718
0.993456
0.999479
1.00059
1.00036
-0.184083
-0.172126
-0.127733
-0.0579965
0.0251703
0.116955
0.216501
0.323394
0.437238
0.557799
0.679155
0.782691
0.860199
0.91803
0.960095
0.988218
1.00305
1.00738
1.00714
1.00667
-0.204501
-0.192241
-0.147221
-0.0767171
0.00726596
0.0998898
0.200372
0.308315
0.423414
0.545643
0.669423
0.776327
0.857772
0.919842
0.966442
0.998508
1.01466
1.01698
1.01381
1.01218
-0.224237
-0.211701
-0.166002
-0.0947941
-0.0100992
0.0832456
0.184509
0.293287
0.409386
0.532946
0.658688
0.768448
0.853619
0.919751
0.971231
1.00885
1.02905
1.03174
1.02475
1.01399
-0.243215
-0.230473
-0.184166
-0.112383
-0.0271386
0.0667356
0.168565
0.277893
0.39468
0.519167
0.646364
0.758393
0.847127
0.917097
0.973102
1.01741
1.04482
1.0517
1.04397
1.03564
-0.261382
-0.248524
-0.201725
-0.129428
-0.0438309
0.0503698
0.152574
0.262124
0.379274
0.504213
0.632316
0.745844
0.83768
0.911226
0.969476
1.01843
1.04963
1.06107
1.02644
0.976321
-0.27848
-0.265186
-0.218649
-0.145844
-0.060238
0.0340593
0.136515
0.246108
0.363241