/*--------------------------------*- C++ -*----------------------------------*\
| =========                 |                                                 |
| \\      /  F ield         | OpenFOAM: The Open Source CFD Toolbox           |
|  \\    /   O peration     | Version:  2306                                  |
|   \\  /    A nd           | Website:  www.openfoam.com                      |
|    \\/     M anipulation  |                                                 |
\*---------------------------------------------------------------------------*/
FoamFile
{
    version     2.0;
    format      ascii;
    arch        "LSB;label=32;scalar=64";
    class       volVectorField;
    location    "28";
    object      U;
}
// * * * * * * * * * * * * * * * * * * * * * * * * * * * * * * * * * * * * * //

dimensions      [0 1 -1 0 0 0 0];

internalField   nonuniform List<vector> 
8800
(
(0.984964 -0.0884519 0)
(1.00213 -0.0568222 0)
(0.999681 -0.0305547 0)
(1.00002 -0.0158578 0)
(1.00005 -0.00870866 0)
(1.00002 -0.00506353 0)
(1.00001 -0.00298092 0)
(1 -0.00169303 0)
(1 -0.000812424 0)
(1.00005 -0.000124372 0)
(1 0.000567836 0)
(1.00001 0.00132968 0)
(1.00001 0.00236771 0)
(1.00002 0.00397345 0)
(1.00004 0.00668769 0)
(1.00006 0.0117207 0)
(0.999919 0.0220418 0)
(0.999203 0.0411647 0)
(1.00746 0.076895 0)
(0.773651 0.0450704 0)
(0.360997 -0.015172 0)
(1.04556 -0.0742058 0)
(1.08712 -0.0678982 0)
(1.04778 -0.05231 0)
(1.02457 -0.0384024 0)
(1.01233 -0.0261171 0)
(1.0064 -0.0167752 0)
(1.00355 -0.0102873 0)
(1.00215 -0.00568057 0)
(1.00151 -0.00211434 0)
(1.00139 0.00108818 0)
(1.00175 0.00439871 0)
(1.00271 0.00831285 0)
(1.0047 0.0136711 0)
(1.0088 0.0214127 0)
(1.01738 0.032245 0)
(1.03455 0.0456063 0)
(1.06558 0.059739 0)
(1.09411 0.0729349 0)
(0.842294 0.0557003 0)
(0.217052 -0.00164648 0)
(1.07585 -0.0503639 0)
(1.09984 -0.0487354 0)
(1.06463 -0.0401908 0)
(1.03989 -0.0330269 0)
(1.02365 -0.0257285 0)
(1.01389 -0.018372 0)
(1.00843 -0.0117016 0)
(1.0056 -0.00595896 0)
(1.00446 -0.000688873 0)
(1.00479 0.00441955 0)
(1.00665 0.00974191 0)
(1.01057 0.0157978 0)
(1.01786 0.0227322 0)
(1.03053 0.0300198 0)
(1.05075 0.0370518 0)
(1.08052 0.0444184 0)
(1.10636 0.0516621 0)
(0.943045 0.0412816 0)
(0.216608 0.00166091 0)
(0.175874 -0.000645245 0)
(1.01865 -0.0354147 0)
(1.10557 -0.0414317 0)
(1.07808 -0.0362728 0)
(1.05274 -0.0302489 0)
(1.03541 -0.024533 0)
(1.02339 -0.0188561 0)
(1.01551 -0.0129168 0)
(1.0109 -0.00686177 0)
(1.0089 -0.000670949 0)
(1.00946 0.00545678 0)
(1.01259 0.0113969 0)
(1.01862 0.017223 0)
(1.02837 0.0228216 0)
(1.04275 0.0282788 0)
(1.06355 0.0339794 0)
(1.09403 0.0399929 0)
(1.09445 0.0416832 0)
(0.829347 0.0227008 0)
(0.175127 0.000661224 0)
(0.154328 -0.000486897 0)
(0.957273 -0.0255405 0)
(1.10404 -0.0350832 0)
(1.08785 -0.0326594 0)
(1.06122 -0.0281336 0)
(1.04326 -0.023175 0)
(1.03086 -0.0179875 0)
(1.0222 -0.0125781 0)
(1.01661 -0.00678563 0)
(1.01397 -0.000429526 0)
(1.01468 0.00596068 0)
(1.0186 0.0118031 0)
(1.0255 0.0171257 0)
(1.03573 0.0221386 0)
(1.05047 0.0269902 0)
(1.07224 0.031506 0)
(1.10106 0.0354365 0)
(1.06972 0.0336741 0)
(0.742255 0.0142386 0)
(0.153209 0.00050485 0)
(0.139825 -0.000357606 0)
(0.900369 -0.0191615 0)
(1.09637 -0.0300828 0)
(1.09588 -0.0292064 0)
(1.06875 -0.0254714 0)
(1.04998 -0.0214294 0)
(1.03704 -0.0168459 0)
(1.02805 -0.0117672 0)
(1.02211 -0.00621701 0)
(1.01917 -2.20275e-05 0)
(1.01989 0.0062191 0)
(1.02403 0.0117891 0)
(1.03115 0.016751 0)
(1.0417 0.0212443 0)
(1.05709 0.0252367 0)
(1.07977 0.0287849 0)
(1.10351 0.0315492 0)
(1.03831 0.0276801 0)
(0.676345 0.0100708 0)
(0.138252 0.000378836 0)
(0.129229 -0.00027213 0)
(0.850799 -0.0147206 0)
(1.08397 -0.0258762 0)
(1.10148 -0.0262292 0)
(1.07546 -0.0229838 0)
(1.05613 -0.0194348 0)
(1.04271 -0.015404 0)
(1.03334 -0.0107221 0)
(1.02714 -0.00542603 0)
(1.024 0.00049774 0)
(1.02465 0.00643268 0)
(1.02884 0.0116721 0)
(1.03614 0.0162268 0)
(1.04704 0.0201373 0)
(1.06289 0.0235102 0)
(1.08604 0.0265547 0)
(1.10296 0.0284369 0)
(1.00433 0.0229511 0)
(0.625487 0.00761807 0)
(0.127106 0.000297867 0)
(0.121208 -0.000208822 0)
(0.80886 -0.0114607 0)
(1.0687 -0.0221143 0)
(1.1048 -0.0234154 0)
(1.08145 -0.0206267 0)
(1.06171 -0.0173456 0)
(1.04801 -0.0136788 0)
(1.03833 -0.00941688 0)
(1.03184 -0.00448962 0)
(1.02852 0.00112517 0)
(1.02904 0.00673205 0)
(1.03323 0.0115437 0)
(1.04068 0.0155627 0)
(1.05176 0.0189432 0)
(1.06788 0.0219054 0)
(1.09138 0.0246455 0)
(1.09964 0.0256763 0)
(0.97042 0.0191289 0)
(0.585286 0.00597763 0)
(0.118417 0.000240173 0)
(0.115076 -0.000158778 0)
(0.773942 -0.00895034 0)
(1.05211 -0.0187002 0)
(1.107 -0.0207045 0)
(1.08704 -0.0182917 0)
(1.06687 -0.0152187 0)
(1.05291 -0.0118165 0)
(1.04304 -0.00786814 0)
(1.03633 -0.00331169 0)
(1.03275 0.00190105 0)
(1.03313 0.00705333 0)
(1.03729 0.0113638 0)
(1.04473 0.0148787 0)
(1.05589 0.0178374 0)
(1.07228 0.0204484 0)
(1.09559 0.0228767 0)
(1.09385 0.0231702 0)
(0.938103 0.0160085 0)
(0.552909 0.00479254 0)
(0.111474 0.000197084 0)
(0.11041 -0.000119481 0)
(0.745249 -0.00693622 0)
(1.03527 -0.0155514 0)
(1.10815 -0.0180639 0)
(1.09218 -0.0160709 0)
(1.07169 -0.0132348 0)
(1.05749 -0.0100188 0)
(1.04747 -0.00625739 0)
(1.04059 -0.00198017 0)
(1.03679 0.00282773 0)
(1.03696 0.00749975 0)
(1.04096 0.0113369 0)
(1.04829 0.0144438 0)
(1.05944 0.0170256 0)
(1.07611 0.0192849 0)
(1.09854 0.0212831 0)
(1.08595 0.0208404 0)
(0.908149 0.0134433 0)
(0.526466 0.00390397 0)
(0.105818 0.000166603 0)
(0.106941 -8.47358e-05 0)
(0.722174 -0.00522865 0)
(1.01923 -0.0125626 0)
(1.10836 -0.0152937 0)
(1.09694 -0.0136469 0)
(1.07626 -0.0109891 0)
(1.06179 -0.00797037 0)
(1.05155 -0.00444291 0)
(1.04446 -0.000470042 0)
(1.04041 0.00393879 0)
(1.04031 0.00814096 0)
(1.04407 0.0114847 0)
(1.0513 0.014109 0)
(1.0625 0.0162405 0)
(1.07938 0.0181183 0)
(1.10012 0.0196732 0)
(1.07652 0.0185986 0)
(0.881028 0.0112847 0)
(0.504729 0.00320642 0)
(0.101137 0.000143054 0)
(0.10451 -5.43059e-05 0)
(0.704217 -0.00371427 0)
(1.00475 -0.00969103 0)
(1.10791 -0.0124071 0)
(1.10132 -0.010992 0)
(1.08048 -0.00847233 0)
(1.06564 -0.00569503 0)
(1.05513 -0.00246369 0)
(1.04776 0.00121446 0)
(1.04344 0.00527314 0)
(1.04297 0.00902602 0)
(1.04646 0.0118613 0)
(1.05356 0.0138909 0)
(1.06481 0.0154504 0)
(1.08193 0.0168978 0)
(1.10068 0.0180728 0)
(1.06612 0.0164701 0)
(0.85687 0.00944986 0)
(0.486806 0.00265098 0)
(0.097213 0.000127402 0)
(0.103007 -2.6007e-05 0)
(0.691102 -0.0023002 0)
(0.992398 -0.00685763 0)
(1.10702 -0.00942905 0)
(1.1053 -0.00835302 0)
(1.08454 -0.00608661 0)
(1.06951 -0.00339122 0)
(1.05888 -0.000232914 0)
(1.05128 0.00324592 0)
(1.04654 0.00692535 0)
(1.04568 0.010171 0)
(1.04881 0.0124883 0)
(1.05559 0.0141045 0)
(1.06665 0.0152722 0)
(1.08386 0.0161253 0)
(1.1003 0.0166874 0)
(1.05507 0.0144468 0)
(0.835715 0.00783909 0)
(0.472126 0.00219319 0)
(0.0938709 0.000116759 0)
(0.102427 4.04761e-06 0)
(0.682605 -0.000954252 0)
(0.982537 -0.00405641 0)
(1.10565 -0.00626999 0)
(1.10856 -0.00547079 0)
(1.08828 -0.00340071 0)
(1.07303 -0.000765585 0)
(1.06212 0.00226149 0)
(1.05421 0.0055439 0)
(1.04905 0.00893686 0)
(1.04763 0.0117514 0)
(1.05025 0.0134965 0)
(1.05671 0.014443 0)
(1.06768 0.0149959 0)
(1.08476 0.0154266 0)
(1.09844 0.0154123 0)
(1.0435 0.0125794 0)
(0.81744 0.00647823 0)
(0.460197 0.0018204 0)
(0.0910196 0.000105339 0)
(0.102781 5.00939e-05 0)
(0.678491 0.000229615 0)
(0.975605 -0.00141039 0)
(1.10446 -0.00299909 0)
(1.1115 -0.0022213 0)
(1.09187 -0.000264886 0)
(1.07648 0.00229042 0)
(1.06531 0.00520116 0)
(1.05697 0.00830496 0)
(1.05123 0.0114076 0)
(1.04913 0.0137385 0)
(1.05119 0.0148969 0)
(1.05722 0.0152497 0)
(1.06786 0.0152454 0)
(1.08452 0.0150057 0)
(1.09548 0.0143477 0)
(1.03192 0.0111189 0)
(0.801738 0.00552261 0)
(0.45039 0.00158901 0)
(0.0885866 9.34337e-05 0)
(0.104009 7.06597e-05 0)
(0.678224 0.00119239 0)
(0.971662 0.000758148 0)
(1.10399 -0.000148208 0)
(1.11446 0.000702816 0)
(1.09543 0.00264889 0)
(1.07991 0.00525266 0)
(1.06855 0.00825143 0)
(1.05987 0.0114428 0)
(1.05349 0.0144261 0)
(1.05054 0.0164054 0)
(1.05175 0.0171318 0)
(1.05709 0.0169548 0)
(1.06729 0.0162754 0)
(1.08357 0.0155795 0)
(1.09143 0.0143104 0)
(1.02025 0.0105458 0)
(0.787762 0.0052496 0)
(0.441552 0.00159908 0)
(0.0863126 9.42816e-05 0)
(0.105898 0.000100143 0)
(0.680702 0.00194279 0)
(0.970554 0.00267642 0)
(1.10425 0.00243232 0)
(1.11752 0.00341666 0)
(1.09903 0.0055145 0)
(1.0834 0.00841936 0)
(1.07176 0.0117519 0)
(1.06246 0.0151753 0)
(1.05514 0.0181619 0)
(1.05121 0.0198599 0)
(1.05153 0.0201037 0)
(1.0561 0.019399 0)
(1.0657 0.0182464 0)
(1.08151 0.0169562 0)
(1.08613 0.0149746 0)
(1.00831 0.0107587 0)
(0.774481 0.00555584 0)
(0.432488 0.00178879 0)
(0.0838816 0.000106101 0)
(0.108482 0.000130876 0)
(0.686064 0.00272855 0)
(0.972268 0.00438577 0)
(1.10567 0.00516346 0)
(1.12096 0.00652347 0)
(1.10321 0.00900857 0)
(1.08756 0.0124121 0)
(1.07552 0.0161473 0)
(1.06548 0.0197955 0)
(1.05705 0.02279 0)
(1.05181 0.024149 0)
(1.05099 0.0238242 0)
(1.0546 0.0225017 0)
(1.06349 0.020786 0)
(1.07843 0.0188996 0)
(1.07973 0.0163164 0)
(0.996042 0.0117242 0)
(0.760825 0.00633092 0)
(0.4223 0.00209803 0)
(0.0810612 0.000126541 0)
(0.111857 0.000168766 0)
(0.694044 0.00362796 0)
(0.976777 0.00623234 0)
(1.10911 0.00810226 0)
(1.12541 0.0103152 0)
(1.10818 0.013565 0)
(1.09224 0.0175758 0)
(1.07947 0.0217433 0)
(1.06839 0.0256023 0)
(1.05857 0.0285158 0)
(1.05176 0.0293888 0)
(1.04962 0.0283478 0)
(1.05226 0.0263161 0)
(1.06035 0.0239398 0)
(1.07432 0.0214701 0)
(1.07244 0.018384 0)
(0.983149 0.0134358 0)
(0.745603 0.00741201 0)
(0.41041 0.00248669 0)
(0.0777034 0.000153238 0)
(0.116238 0.000222077 0)
(0.70496 0.00484286 0)
(0.984229 0.00847397 0)
(1.11503 0.0113213 0)
(1.13165 0.0144958 0)
(1.11433 0.0187326 0)
(1.0977 0.0235587 0)
(1.08391 0.0283681 0)
(1.07148 0.032673 0)
(1.05991 0.0355912 0)
(1.0512 0.0359738 0)
(1.04752 0.0341574 0)
(1.04908 0.0312502 0)
(1.05642 0.0282453 0)
(1.06933 0.0252401 0)
(1.06423 0.0216695 0)
(0.968559 0.0158216 0)
(0.727942 0.00866598 0)
(0.396525 0.00291926 0)
(0.0737137 0.00018218 0)
(0.121984 0.000297109 0)
(0.71961 0.00650246 0)
(0.994367 0.0114154 0)
(1.12307 0.0150102 0)
(1.13969 0.0189194 0)
(1.12189 0.0241508 0)
(1.10422 0.0300065 0)
(1.0891 0.0358228 0)
(1.07492 0.0409807 0)
(1.06114 0.0443232 0)
(1.05017 0.0446069 0)
(1.04464 0.0422825 0)
(1.04481 0.0386521 0)
(1.05152 0.034664 0)
(1.06338 0.0308056 0)
(1.0541 0.0261455 0)
(0.950718 0.0186422 0)
(0.707438 0.0100615 0)
(0.380467 0.00341794 0)
(0.069031 0.000212999 0)
(0.129585 0.000406846 0)
(0.739161 0.00883975 0)
(1.00769 0.0154918 0)
(1.13273 0.0198842 0)
(1.14915 0.0242736 0)
(1.13101 0.0304511 0)
(1.11221 0.0374806 0)
(1.09548 0.0446544 0)
(1.07909 0.0509705 0)
(1.0626 0.0550742 0)
(1.04897 0.0555091 0)
(1.04126 0.05286 0)
(1.03967 0.0486595 0)
(1.04499 0.04382 0)
(1.05499 0.0385524 0)
(1.0399 0.0314496 0)
(0.928735 0.0216413 0)
(0.684026 0.0116971 0)
(0.361898 0.00401164 0)
(0.0635637 0.000247246 0)
(0.139876 0.000581437 0)
(0.765351 0.0122144 0)
(1.02571 0.0212588 0)
(1.1442 0.0269828 0)
(1.15989 0.0320744 0)
(1.14166 0.0392183 0)
(1.12195 0.0476215 0)
(1.10324 0.0562247 0)
(1.08409 0.0636154 0)
(1.06434 0.0682563 0)
(1.0476 0.0684728 0)
(1.0373 0.0651546 0)
(1.03351 0.0599997 0)
(1.0366 0.0538754 0)
(1.04285 0.0464921 0)
(1.02047 0.0368093 0)
(0.902985 0.0250004 0)
(0.657413 0.0137324 0)
(0.340241 0.0047265 0)
(0.0572178 0.000283869 0)
(0.154119 0.000863381 0)
(0.800335 0.0172162 0)
(1.05073 0.0294067 0)
(1.15899 0.0372195 0)
(1.17242 0.043839 0)
(1.15433 0.0525506 0)
(1.13342 0.0624871 0)
(1.11207 0.0721858 0)
(1.0895 0.0800412 0)
(1.06584 0.0843245 0)
(1.0455 0.0833865 0)
(1.03222 0.0785825 0)
(1.02569 0.0717168 0)
(1.02547 0.0636474 0)
(1.0264 0.054033 0)
(0.996981 0.0423142 0)
(0.874359 0.0291239 0)
(0.626966 0.0162803 0)
(0.314853 0.00555147 0)
(0.0498983 0.000319476 0)
(0.174494 0.00135769 0)
(0.847256 0.0250465 0)
(1.08547 0.0413809 0)
(1.17938 0.0523448 0)
(1.18843 0.0618209 0)
(1.16933 0.0725777 0)
(1.14617 0.0837816 0)
(1.12122 0.093816 0)
(1.09445 0.101051 0)
(1.06623 0.103662 0)
(1.04184 0.100348 0)
(1.02519 0.0930666 0)
(1.01541 0.0837958 0)
(1.01119 0.0734029 0)
(1.0066 0.0619118 0)
(0.97092 0.0489391 0)
(0.842653 0.0344487 0)
(0.591542 0.0194311 0)
(0.28524 0.0064875 0)
(0.0416258 0.000349761 0)
(0.204386 0.00247774 0)
(0.91184 0.0385597 0)
(1.13299 0.0609774 0)
(1.20698 0.0753654 0)
(1.209 0.0886087 0)
(1.18631 0.101133 0)
(1.15921 0.11268 0)
(1.12956 0.121799 0)
(1.09781 0.12702 0)
(1.06454 0.126557 0)
(1.03579 0.119699 0)
(1.01556 0.109137 0)
(1.00226 0.0970777 0)
(0.994058 0.0844209 0)
(0.984532 0.0714808 0)
(0.942784 0.0575905 0)
(0.806617 0.0412463 0)
(0.550069 0.0232154 0)
(0.251582 0.00755598 0)
(0.0326575 0.000370196 0)
(0.245523 0.00881565 1.13383e-19)
(0.997612 0.0658169 1.00945e-19)
(1.19066 0.0942666 -3.51745e-20)
(1.24073 0.110803 0)
(1.23222 0.12714 -8.69613e-34)
(1.20356 0.139746 1.26329e-20)
(1.17101 0.150056 -2.22694e-20)
(1.13581 0.156897 0)
(1.09851 0.158961 4.46542e-34)
(1.05974 0.15454 -2.6564e-20)
(1.02613 0.143539 0)
(1.00183 0.129385 -3.10437e-20)
(0.984596 0.114515 -9.11759e-20)
(0.972304 0.0999629 -4.29146e-20)
(0.958239 0.0861996 -1.28618e-20)
(0.909638 0.0717128 -7.60591e-21)
(0.761581 0.0522872 0)
(0.498518 0.0294606 5.31327e-21)
(0.214104 0.0102855 6.26029e-21)
(0.0244579 0.000888758 1.10943e-19)
(0.273028 0.0244531 9.02261e-20)
(1.06801 0.1089 9.95039e-22)
(1.23843 0.142188 9.7096e-21)
(1.27255 0.160305 0)
(1.25366 0.175695 -4.52167e-20)
(1.21861 0.18697 -5.07815e-20)
(1.18014 0.195374 -2.27691e-20)
(1.13896 0.199812 -7.96127e-20)
(1.09556 0.198815 0)
(1.0505 0.190688 1.13895e-19)
(1.0108 0.175845 1.12152e-19)
(0.981126 0.158431 3.32011e-20)
(0.959049 0.141108 1.20065e-19)
(0.941972 0.124747 1.67529e-19)
(0.922009 0.109487 0)
(0.866539 0.0934505 2.35512e-19)
(0.708529 0.0698203 3.37317e-19)
(0.446794 0.0409493 3.72532e-19)
(0.183128 0.0158147 -4.24821e-19)
(0.0183387 0.00159292 -7.88109e-21)
(0.272554 0.0400859 0)
(1.11182 0.165124 1.76276e-20)
(1.27213 0.201781 0)
(1.29734 0.219585 -6.34741e-20)
(1.27064 0.231825 0)
(1.22984 0.239996 -1.01762e-19)
(1.18569 0.245164 4.6999e-20)
(1.13875 0.246213 -1.62136e-19)
(1.08946 0.241611 -3.14438e-21)
(1.03842 0.229594 5.94037e-20)
(0.993043 0.211175 2.46887e-19)
(0.958547 0.191082 -6.21022e-22)
(0.932451 0.172033 -8.73649e-20)
(0.911698 0.154635 -1.58495e-19)
(0.888318 0.13861 1.87512e-19)
(0.831458 0.120775 -3.32188e-19)
(0.678542 0.0923632 -4.3643e-20)
(0.431559 0.0573271 0)
(0.18559 0.0243945 6.79775e-23)
(0.0206916 0.00289583 0)
(0.265391 0.0536678 2.64565e-19)
(1.13449 0.224351 -1.25596e-19)
(1.29353 0.266333 -9.06356e-20)
(1.31368 0.283503 3.10966e-20)
(1.28159 0.292098 -5.17762e-20)
(1.23629 0.296488 2.14537e-19)
(1.18737 0.297813 9.87889e-20)
(1.13541 0.29497 0)
(1.08088 0.286419 -3.01819e-19)
(1.02439 0.270427 0)
(0.973956 0.248567 -1.30243e-19)
(0.935358 0.226092 -1.59319e-19)
(0.90606 0.205568 -9.53168e-20)
(0.882712 0.187284 -1.15251e-19)
(0.857563 0.170361 0)
(0.802461 0.151085 0)
(0.66216 0.119505 -2.86967e-19)
(0.434668 0.0786447 5.62368e-20)
(0.199212 0.0362148 -3.3159e-20)
(0.0259949 0.00503482 -3.81696e-20)
(0.257726 0.0657887 -1.33695e-19)
(1.14356 0.28334 0)
(1.30557 0.331791 2.00953e-19)
(1.32249 0.348598 9.1106e-20)
(1.28657 0.353688 1.17172e-19)
(1.23787 0.354267 0)
(1.18516 0.351681 9.83964e-20)
(1.12903 0.344873 1.81029e-19)
(1.07002 0.332316 1.55739e-19)
(1.00884 0.312317 2.8002e-19)
(0.954068 0.287072 0)
(0.912073 0.262305 -3.43869e-19)
(0.880266 0.240333 -2.06049e-19)
(0.854976 0.221247 -1.21376e-19)
(0.828923 0.203769 7.42453e-19)
(0.776984 0.183459 8.86802e-20)
(0.650392 0.149122 4.15951e-19)
(0.441803 0.101936 -1.96337e-18)
(0.213488 0.0499404 1.1656e-18)
(0.0312674 0.00767681 -1.38353e-18)
(0.250792 0.0767894 -9.87807e-20)
(1.14419 0.340242 2.59029e-20)
(1.31059 0.39655 -2.53964e-20)
(1.32532 0.413094 -1.0425e-19)
(1.28656 0.414919 -1.05906e-19)
(1.23521 0.411851 3.40812e-21)
(1.17946 0.405522 -1.06392e-19)
(1.1199 0.394881 1.88393e-19)
(1.05712 0.378421 -3.35055e-19)
(0.991925 0.354481 0)
(0.933532 0.325853 -1.56456e-19)
(0.888818 0.298751 -3.13759e-21)
(0.855051 0.2753 -2.24821e-19)
(0.8284 0.25537 0)
(0.802018 0.237427 -1.60515e-19)
(0.75329 0.216075 -3.82181e-19)
(0.638738 0.179703 1.02303e-18)
(0.445517 0.126119 -1.00511e-18)
(0.223381 0.0640667 1.42529e-18)
(0.035293 0.0104482 -1.45858e-18)
(0.245192 0.0870355 -8.08741e-22)
(1.13963 0.394428 -1.9454e-20)
(1.31058 0.459672 -8.84679e-20)
(1.32351 0.475929 4.71616e-20)
(1.2826 0.474804 -5.41954e-20)
(1.22914 0.468345 0)
(1.17091 0.458516 -1.01743e-19)
(1.10847 0.444255 -1.97855e-19)
(1.04247 0.424062 -1.7479e-19)
(0.97381 0.396285 0)
(0.91235 0.364249 -1.62618e-19)
(0.865467 0.3347 -1.995e-19)
(0.830261 0.309647 2.43121e-19)
(0.802767 0.288686 -1.46956e-19)
(0.776489 0.270073 -6.97457e-19)
(0.730763 0.247779 4.16982e-19)
(0.625469 0.209286 1.25501e-19)
(0.443606 0.149077 0)
(0.226474 0.0768694 -1.36546e-18)
(0.0372185 0.012828 -4.94277e-20)
(0.240904 0.0968442 -8.13758e-21)
(1.13203 0.445752 1.55369e-20)
(1.30667 0.520216 4.47648e-20)
(1.31817 0.536419 1.59983e-19)
(1.27559 0.532712 -2.09466e-19)
(1.22045 0.523208 2.19558e-19)
(1.16014 0.510154 2.18435e-19)
(1.09526 0.492518 -3.16006e-19)
(1.02645 0.468801 1.05715e-19)
(0.95472 0.437298 -6.86896e-19)
(0.890545 0.401833 -1.82649e-19)
(0.841875 0.369643 0)
(0.805643 0.34274 2.62728e-19)
(0.777711 0.320522 3.13153e-19)
(0.751816 0.300917 3.73977e-19)
(0.708624 0.2775 -4.50602e-19)
(0.610037 0.236365 -1.33275e-19)
(0.436309 0.169101 1.56428e-19)
(0.224243 0.0871897 0)
(0.0373095 0.0145742 -1.06743e-19)
(0.237757 0.106343 4.41552e-20)
(1.12287 0.49433 -4.41694e-20)
(1.30002 0.577931 -4.43801e-20)
(1.31024 0.594259 1.03477e-19)
(1.26629 0.588289 -1.00046e-19)
(1.20976 0.576057 -7.9121e-21)
(1.14774 0.560093 -2.37152e-19)
(1.08073 0.539368 -1.13902e-19)
(1.00942 0.512354 -3.0251e-19)
(0.93489 0.477275 4.30457e-22)
(0.868258 0.438348 -5.71886e-19)
(0.817979 0.403348 4.76743e-19)
(0.780971 0.374265 -2.86898e-19)
(0.752845 0.35045 3.43072e-19)
(0.727407 0.329533 0)
(0.6862 0.304445 -2.42855e-19)
(0.592441 0.260157 -1.93659e-21)
(0.424356 0.185802 -6.76895e-19)
(0.217652 0.0948583 -9.92553e-20)
(0.0360671 0.0156612 0)
(0.235593 0.115645 0)
(1.11298 0.540363 -4.06928e-20)
(1.29145 0.632705 -7.25338e-20)
(1.30045 0.649306 -1.01156e-19)
(1.25532 0.64135 -1.18992e-19)
(1.19766 0.626695 0)
(1.13417 0.608121 -1.11283e-19)
(1.06531 0.584603 -2.36633e-21)
(0.991722 0.554561 6.46675e-19)
(0.914584 0.516086 -9.44565e-20)
(0.845599 0.473707 -4.11838e-19)
(0.793846 0.43571 2.48443e-19)
(0.756116 0.404202 -3.9951e-21)
(0.727867 0.378465 3.64398e-19)
(0.702865 0.35592 2.2381e-19)
(0.663142 0.328744 -5.23768e-19)
(0.57254 0.280455 6.21519e-19)
(0.408462 0.199053 1.82983e-19)
(0.207329 0.0999481 7.49579e-19)
(0.0336485 0.0160206 -1.98264e-18)
(0.234323 0.12488 -4.94147e-21)
(1.10293 0.584045 -6.11799e-21)
(1.28171 0.684567 1.48124e-20)
(1.28931 0.701541 9.17838e-20)
(1.24319 0.691795 0)
(1.18458 0.674995 -1.08215e-19)
(1.11984 0.654114 3.68703e-19)
(1.04934 0.628102 2.50002e-19)
(0.973664 0.595318 0)
(0.894017 0.553672 -1.35115e-18)
(0.822699 0.507887 1.10914e-18)
(0.769401 0.466757 0)
(0.730904 0.432561 3.33076e-19)
(0.702536 0.404588 -3.97828e-21)
(0.677909 0.380071 -7.13239e-19)
(0.639159 0.350373 2.79142e-19)
(0.550483 0.297406 0)
(0.389431 0.208681 9.86297e-19)
(0.194233 0.102551 0)
(0.0304823 0.0158206 -9.35854e-19)
(0.23374 0.134084 1.17176e-20)
(1.09311 0.625526 8.97641e-21)
(1.27109 0.733575 1.9152e-20)
(1.27728 0.750954 0)
(1.23032 0.739613 -1.10831e-19)
(1.17092 0.720921 0)
(1.10509 0.698003 -3.6936e-19)
(1.03311 0.669792 -1.18676e-19)
(0.955496 0.63457 1.14696e-19)
(0.87339 0.590017 -6.67088e-19)
(0.799614 0.540932 1.14757e-19)
(0.74459 0.496567 0)
(0.705254 0.459442 -7.10522e-19)
(0.676708 0.428945 4.0859e-21)
(0.652328 0.402133 0)
(0.614032 0.369426 4.64458e-21)
(0.5262 0.311066 9.01082e-19)
(0.367485 0.214723 -8.52129e-19)
(0.178987 0.102707 2.50004e-19)
(0.0268086 0.0150423 0)
(0.233532 0.143119 0)
(1.0838 0.664849 2.17075e-20)
(1.25992 0.779893 -2.10542e-21)
(1.26472 0.797591 -4.47303e-21)
(1.21704 0.784824 -4.55161e-20)
(1.15697 0.764475 -2.4142e-19)
(1.0902 0.739774 1.36318e-19)
(1.01689 0.709645 -1.3721e-19)
(0.937436 0.672286 5.07555e-19)
(0.852862 0.625137 -1.06251e-18)
(0.776477 0.572928 -6.59586e-21)
(0.719552 0.525284 -3.13079e-19)
(0.679138 0.485009 1.14994e-18)
(0.650285 0.451705 -4.82709e-21)
(0.626016 0.422276 -5.51567e-19)
(0.587677 0.386026 -9.86087e-19)
(0.499646 0.32155 0)
(0.343032 0.217394 0)
(0.161998 0.100429 2.70533e-19)
(0.0228411 0.0137297 -1.55862e-19)
(0.233843 0.152158 2.89743e-20)
(1.0749 0.701928 -6.11542e-20)
(1.2485 0.823594 1.46214e-21)
(1.25192 0.841527 0)
(1.2036 0.827485 -3.07943e-21)
(1.14297 0.805682 -2.3075e-19)
(1.0754 0.779433 3.35355e-19)
(1.00088 0.747655 5.46297e-19)
(0.919679 0.708472 6.60052e-19)
(0.832646 0.65907 -8.67065e-19)
(0.753504 0.603993 -9.45765e-19)
(0.694331 0.553087 8.35979e-19)
(0.652545 0.509459 0)
(0.623195 0.473047 -2.50579e-19)
(0.598889 0.440624 -5.96624e-19)
(0.56004 0.400201 -7.07738e-19)
(0.470946 0.328699 -8.41471e-19)
(0.316317 0.21659 2.48412e-19)
(0.143495 0.0956877 -1.45509e-19)
(0.018568 0.0119034 6.72537e-22)
(0.234207 0.161018 0)
(1.0666 0.737199 0)
(1.23701 0.864752 5.08169e-21)
(1.23907 0.882856 0)
(1.19021 0.867678 1.25166e-19)
(1.12911 0.8446 1.64703e-19)
(1.06084 0.817009 0)
(0.985245 0.783837 6.59639e-20)
(0.902412 0.743136 1.10086e-18)
(0.812943 0.691851 -1.98779e-18)
(0.730829 0.634229 0)
(0.669026 0.580165 -5.36128e-19)
(0.625476 0.533016 -5.8945e-21)
(0.595364 0.493142 -4.82869e-21)
(0.57085 0.457244 6.36896e-19)
(0.531067 0.411881 -8.26339e-22)
(0.440216 0.332443 -1.81116e-18)
(0.287398 0.212141 5.35027e-19)
(0.123939 0.0886573 1.57477e-19)
(0.0142399 0.00971073 0)
(0.234579 0.169673 -1.47399e-19)
(1.05866 0.770757 -6.02857e-20)
(1.22555 0.90346 -4.63273e-20)
(1.22631 0.921676 -5.50254e-20)
(1.17701 0.905471 1.90235e-19)
(1.11553 0.881287 0)
(1.04669 0.852548 2.06338e-19)
(0.970136 0.818216 -1.45211e-19)
(0.885777 0.776298 7.58432e-21)
(0.793894 0.723509 1.45411e-19)
(0.708609 0.663723 1.21844e-18)
(0.643794 0.606716 -1.87956e-19)
(0.597977 0.555954 -7.05231e-19)
(0.566678 0.512204 -2.91241e-19)
(0.541732 0.472131 3.46631e-19)
(0.500699 0.420836 -5.61536e-22)
(0.40777 0.332501 4.88961e-19)
(0.256917 0.204061 -1.15097e-18)
(0.104068 0.0797115 1.35599e-18)
(0.0100396 0.0072813 1.94503e-19)
(0.234773 0.178015 6.05899e-20)
(1.05106 0.802667 -3.72441e-20)
(1.21426 0.939839 1.19032e-20)
(1.21378 0.958109 -5.35427e-21)
(1.16411 0.940967 -2.73927e-20)
(1.10235 0.91581 -2.93007e-19)
(1.03304 0.886096 6.28666e-20)
(0.955651 0.850813 -6.05832e-19)
(0.869883 0.807953 -1.21028e-18)
(0.775627 0.754044 -1.18026e-18)
(0.687041 0.692551 0)
(0.618798 0.632915 -8.20093e-19)
(0.570118 0.578578 1.01291e-18)
(0.536994 0.530507 0)
(0.51123 0.485242 -7.4108e-19)
(0.468773 0.426612 4.44503e-19)
(0.373869 0.328361 -5.25059e-19)
(0.225989 0.19243 -6.20499e-19)
(0.084832 0.0693701 -1.0929e-18)
(0.00621294 0.00480779 -8.39342e-19)
(0.23525 0.186152 -7.27847e-20)
(1.04367 0.832906 3.99024e-20)
(1.20319 0.973967 8.28404e-20)
(1.20155 0.99224 1.04793e-20)
(1.1516 0.974254 6.4871e-20)
(1.08963 0.948253 -1.66493e-19)
(1.01996 0.917703 2.06513e-19)
(0.94186 0.881669 -6.24029e-19)
(0.854801 0.838124 -7.14919e-19)
(0.758273 0.783473 1.23168e-18)
(0.666286 0.720755 2.66052e-18)
(0.594238 0.658913 0)
(0.542032 0.601193 0)
(0.506161 0.548458 -3.34439e-19)
(0.478805 0.496622 0)
(0.434785 0.428447 9.57315e-19)
(0.33887 0.318936 1.13166e-18)
(0.196127 0.176936 0)
(0.0676185 0.0581694 0)
(0.0029975 0.00252598 9.02933e-19)
(0.235343 0.193798 8.78128e-20)
(1.03651 0.861474 7.06751e-20)
(1.1924 1.00596 6.26308e-20)
(1.18968 1.02419 -3.23134e-20)
(1.13953 1.00543 5.43767e-20)
(1.07744 0.978688 1.83058e-19)
(1.00751 0.947431 -2.84287e-19)
(0.928816 0.910813 5.20639e-22)
(0.840604 0.866818 -9.75507e-21)
(0.741922 0.811783 -1.14484e-20)
(0.646509 0.748353 1.36624e-18)
(0.570329 0.684805 0)
(0.513946 0.624093 1.01733e-18)
(0.474114 0.56661 7.1078e-19)
(0.443672 0.506665 1.72608e-18)
(0.397517 0.425522 5.14169e-19)
(0.302746 0.301985 -6.11765e-19)
(0.170216 0.155615 -3.58198e-19)
(0.0567039 0.0459488 0)
(0.00166624 0.000918605 9.70686e-19)
(0.235701 0.201402 -2.07337e-19)
(1.02956 0.888472 0)
(1.18188 1.03588 8.53531e-20)
(1.1782 1.05405 -3.60548e-20)
(1.12796 1.03459 -3.5145e-20)
(1.06579 1.0072 -2.16193e-19)
(0.995724 0.975337 5.61705e-19)
(0.916547 0.938285 -5.04728e-20)
(0.827322 0.894045 0)
(0.726636 0.838939 -1.35288e-18)
(0.627861 0.775328 -2.95886e-18)
(0.547304 0.710645 1.19889e-19)
(0.486191 0.647489 1.39296e-18)
(0.44098 0.58562 0)
(0.404988 0.516323 1.16009e-18)
(0.354638 0.417887 0)
(0.262673 0.274211 0)
(0.150358 0.119092 -3.89097e-19)
(0.0698943 0.0215226 0)
(0.0250942 0.00989787 2.60166e-19)
(0.235668 0.208358 -2.40057e-19)
(1.0228 0.914209 0)
(1.17166 1.06393 1.51272e-19)
(1.16708 1.08204 0)
(1.11684 1.06199 8.81468e-21)
(1.05465 1.03406 0)
(0.984526 1.00173 2.96466e-20)
(0.904957 0.964419 8.51037e-20)
(0.814839 0.920168 8.85422e-20)
(0.71227 0.865329 -1.47914e-18)
(0.610211 0.80211 8.88404e-20)
(0.525028 0.736998 9.5789e-19)
(0.458583 0.671954 1.35287e-18)
(0.406345 0.606518 1.82159e-19)
(0.361273 0.527508 9.04487e-19)
(0.302189 0.407898 0)
(0.207208 0.236303 1.29378e-18)
(0.107941 0.0576665 -7.52942e-19)
(0.0454968 0.0483245 8.66192e-19)
(-0.0585469 0.416201 -1.02785e-18)
(0.235602 0.215069 2.03376e-19)
(1.01597 0.938553 3.05688e-19)
(1.16163 1.09042 0)
(1.15619 1.10858 9.96545e-21)
(1.10599 1.08818 -2.87945e-21)
(1.04375 1.05995 3.07199e-19)
(0.973628 1.02738 1.99966e-19)
(0.893666 0.990142 0)
(0.802662 0.946267 5.92737e-19)
(0.698201 0.892245 -7.78483e-20)
(0.592709 0.830156 0)
(0.502436 0.765641 0)
(0.429831 0.699265 1.20546e-18)
(0.368938 0.631173 -5.60652e-19)
(0.310032 0.543669 -9.10203e-19)
(0.235747 0.401708 0)
(0.118125 0.217474 6.46779e-19)
(0.0142158 0.430283 -7.41536e-19)
(0.0385277 1.84903 -4.10869e-19)
(0.07092 2.78624 -5.4123e-19)
(0.235331 0.220988 -1.57084e-19)
(1.00922 0.96162 -4.02144e-19)
(1.15182 1.11536 9.62044e-20)
(1.14554 1.13354 6.0812e-20)
(1.09549 1.11296 0)
(1.03316 1.08459 1.90426e-19)
(0.963214 1.052 2.81268e-19)
(0.882842 1.01503 -4.15911e-20)
(0.791038 0.971825 8.77641e-20)
(0.684784 0.919068 1.40761e-18)
(0.57593 0.858748 1.48302e-18)
(0.480501 0.796111 1.06264e-18)
(0.401056 0.72899 1.20442e-18)
(0.331012 0.657998 -1.30246e-18)
(0.257551 0.567716 -1.3637e-18)
(0.157634 0.428372 0)
(0.0599213 0.818688 0)
(0.113681 2.5214 3.55547e-19)
(0.117289 3.18229 0)
(0.119534 3.38045 8.03204e-19)
(0.238027 0.2265 0)
(1.00312 0.983623 0)
(1.14197 1.13861 0)
(1.1349 1.15669 2.18867e-20)
(1.08501 1.13609 6.70851e-21)
(1.02265 1.10781 1.11359e-19)
(0.953185 1.07547 1.83469e-19)
(0.872426 1.03896 -4.08206e-20)
(0.779914 0.996691 7.42449e-19)
(0.672028 0.945644 -1.9891e-20)
(0.559994 0.887733 2.91943e-18)
(0.4596 0.828229 -1.21487e-19)
(0.372716 0.761829 1.45202e-19)
(0.294615 0.683821 1.86031e-19)
(0.200836 0.598481 1.669e-21)
(0.12252 0.944651 3.47767e-21)
(0.158952 2.66639 -1.82724e-18)
(0.172023 3.28079 -6.95656e-19)
(0.157881 3.42476 3.52735e-19)
(0.141986 3.44896 -3.86975e-19)
(0.156981 0.178134 9.35055e-20)
(0.992034 1.00756 0)
(1.13187 1.16034 -2.12451e-19)
(1.12482 1.17848 -1.85213e-19)
(1.07519 1.15823 7.4283e-20)
(1.01302 1.13021 -1.05883e-19)
(0.943391 1.09786 -1.90973e-19)
(0.862488 1.06204 4.66782e-19)
(0.769449 1.02096 -6.06474e-19)
(0.660245 0.972022 0)
(0.545356 0.917126 1.4271e-18)
(0.440343 0.861596 -8.58389e-19)
(0.345566 0.800381 0)
(0.260597 0.712402 1.67315e-19)
(0.175022 0.826361 4.01101e-19)
(0.174609 2.40544 -4.91354e-19)
(0.240981 3.31666 5.44798e-19)
(0.217867 3.44237 2.97581e-19)
(0.180618 3.46552 3.3465e-19)
(0.156368 3.4764 5.38686e-19)
(0.277414 0.263979 -1.62104e-19)
(0.975363 1.01616 0)
(1.11353 1.1847 2.39982e-19)
(1.11072 1.21063 2.29479e-19)
(1.05949 1.19091 -1.18246e-19)
(0.996939 1.16341 5.63102e-20)
(0.926518 1.13242 2.04494e-19)
(0.845143 1.09777 3.62661e-20)
(0.751018 1.05883 5.86644e-19)
(0.639494 1.01375 1.21627e-18)
(0.520207 0.965108 8.12697e-20)
(0.408066 0.91743 7.6203e-19)
(0.298176 0.86862 1.35315e-19)
(0.230425 0.980738 -1.68497e-19)
(0.24886 2.25567 -3.84572e-19)
(0.3148 3.32113 3.64503e-19)
(0.301079 3.47745 -4.13984e-19)
(0.262249 3.50066 -2.42074e-19)
(0.222913 3.52848 -1.97607e-19)
(0.168171 3.52072 -1.92637e-20)
(0.266095 0.261058 0)
(0.972745 1.03826 7.74224e-20)
(1.10554 1.20748 -5.23422e-20)
(1.10095 1.23337 -3.02779e-20)
(1.04964 1.21357 -9.83166e-20)
(0.98721 1.18629 -4.28665e-20)
(0.916548 1.15549 -1.15368e-19)
(0.835152 1.12164 3.29845e-20)
(0.740804 1.08415 -6.14798e-19)
(0.628507 1.04184 -2.83496e-20)
(0.507351 0.997923 -2.58757e-18)
(0.392196 0.956329 1.08048e-19)
(0.285939 0.934363 -1.27556e-19)
(0.270537 1.43981 -1.5691e-19)
(0.351908 3.05652 3.51677e-20)
(0.380892 3.47319 2.17224e-21)
(0.336667 3.53856 6.03813e-19)
(0.297325 3.56233 2.95008e-19)
(0.2456 3.58639 -7.20814e-20)
(0.183389 3.58126 -9.11355e-20)
(0.249871 0.258547 2.02389e-19)
(0.968517 1.06276 5.39867e-19)
(1.097 1.23223 -1.51896e-19)
(1.09068 1.25752 -1.14944e-19)
(1.03933 1.23754 0)
(0.977078 1.21027 5.0669e-21)
(0.90645 1.17971 -1.37818e-19)
(0.825311 1.14661 2.95007e-20)
(0.73107 1.11062 -6.79306e-20)
(0.618525 1.07127 -1.10887e-18)
(0.496302 1.03237 -1.19669e-18)
(0.380063 0.998003 -8.94418e-19)
(0.29058 1.05483 -9.53485e-19)
(0.341531 2.09059 9.85705e-19)
(0.442464 3.37015 8.0451e-19)
(0.429 3.53918 0)
(0.377516 3.58524 0)
(0.33874 3.62834 -5.64632e-20)
(0.279617 3.69148 0)
(0.195698 3.66215 -5.62507e-20)
(0.238834 0.259689 -3.12583e-19)
(0.962137 1.08801 -4.70837e-19)
(1.08705 1.2581 0)
(1.07917 1.28248 1.16374e-20)
(1.02786 1.2621 -1.37597e-19)
(0.965893 1.2347 5.64082e-20)
(0.895626 1.20437 -7.10486e-20)
(0.814962 1.17191 1.97213e-20)
(0.721084 1.13736 -4.46426e-19)
(0.608705 1.10089 5.65603e-20)
(0.486199 1.06713 0)
(0.371342 1.04243 0)