/*--------------------------------*- C++ -*----------------------------------*\
| =========                 |                                                 |
| \\      /  F ield         | OpenFOAM: The Open Source CFD Toolbox           |
|  \\    /   O peration     | Version:  2306                                  |
|   \\  /    A nd           | Website:  www.openfoam.com                      |
|    \\/     M anipulation  |                                                 |
\*---------------------------------------------------------------------------*/
FoamFile
{
    version     2.0;
    format      ascii;
    arch        "LSB;label=32;scalar=64";
    class       volScalarField;
    location    "7";
    object      p;
}
// * * * * * * * * * * * * * * * * * * * * * * * * * * * * * * * * * * * * * //

dimensions      [0 2 -2 0 0 0 0];

internalField   nonuniform List<scalar> 
8800
(
0.421401
0.37353
0.335414
0.307158
0.287011
0.272751
0.262632
0.255575
0.251043
0.249071
0.24998
0.253604
0.259601
0.268243
0.280356
0.297344
0.321281
0.354532
0.396713
0.453733
0.253288
0.260663
0.269531
0.273498
0.272172
0.267297
0.26121
0.255597
0.251194
0.248412
0.247934
0.250089
0.254015
0.259301
0.265418
0.271271
0.274682
0.273554
0.266918
0.257583
0.22922
0.23579
0.240746
0.244832
0.248003
0.249528
0.249093
0.247464
0.245715
0.244802
0.245429
0.247239
0.249337
0.250714
0.250344
0.247992
0.244362
0.239867
0.23461
0.230748
0.224529
0.227449
0.231533
0.234985
0.237245
0.238748
0.239712
0.240132
0.24015
0.240187
0.240505
0.240967
0.241109
0.240643
0.239591
0.237852
0.2351
0.231169
0.227598
0.226274
0.224519
0.225555
0.22782
0.230309
0.232643
0.234538
0.2359
0.236689
0.237075
0.237311
0.237648
0.237877
0.237673
0.236863
0.235393
0.233398
0.231072
0.228629
0.226964
0.226593
0.22399
0.224342
0.225166
0.226181
0.227233
0.228361
0.22953
0.230517
0.231263
0.231801
0.232111
0.232071
0.231668
0.230913
0.229952
0.229041
0.228097
0.227171
0.226613
0.226477
0.221939
0.222123
0.222678
0.223455
0.224311
0.225206
0.226061
0.226877
0.227626
0.228265
0.22866
0.228738
0.2285
0.228061
0.227413
0.226711
0.226029
0.22541
0.225075
0.225014
0.219156
0.219231
0.219473
0.219868
0.220363
0.220972
0.221683
0.222458
0.223244
0.223981
0.224485
0.224653
0.224572
0.224322
0.223992
0.223652
0.223341
0.223082
0.222957
0.22293
0.215762
0.215814
0.21597
0.216237
0.216599
0.217068
0.217649
0.21834
0.219122
0.219944
0.220618
0.221005
0.221142
0.22112
0.221011
0.220865
0.220713
0.220585
0.220522
0.220506
0.211979
0.212014
0.212128
0.212327
0.212618
0.213025
0.213571
0.214271
0.215123
0.216095
0.216971
0.217556
0.217887
0.218045
0.218095
0.218088
0.218056
0.218021
0.218003
0.217992
0.207883
0.207909
0.208003
0.208176
0.208442
0.208833
0.209386
0.210134
0.211098
0.212268
0.2134
0.214238
0.214775
0.215111
0.215306
0.215411
0.215462
0.215483
0.21549
0.215483
0.203475
0.203499
0.203593
0.203766
0.204041
0.20446
0.205071
0.205928
0.207073
0.208512
0.20996
0.211069
0.211851
0.212363
0.212688
0.212887
0.213003
0.213065
0.213091
0.213086
0.198732
0.198754
0.198857
0.199049
0.199362
0.199845
0.200564
0.20159
0.202987
0.204781
0.206628
0.208093
0.209126
0.209829
0.21029
0.210581
0.210756
0.210855
0.210896
0.210892
0.193595
0.19362
0.19374
0.193968
0.194343
0.194928
0.195806
0.19707
0.198808
0.201064
0.203411
0.20529
0.206636
0.207561
0.208174
0.208565
0.208804
0.208939
0.208996
0.208992
0.187972
0.188002
0.188151
0.188433
0.188899
0.189628
0.190725
0.192309
0.194495
0.197344
0.200322
0.202717
0.20444
0.205629
0.206419
0.206926
0.207238
0.207415
0.20749
0.207485
0.181744
0.181782
0.181971
0.182328
0.182917
0.183841
0.185229
0.187236
0.190005
0.193615
0.197387
0.200422
0.202609
0.20412
0.205125
0.205771
0.206168
0.206394
0.20649
0.206484
0.174747
0.174796
0.175039
0.175496
0.176252
0.177433
0.179207
0.181765
0.185288
0.189866
0.19464
0.198474
0.201235
0.203141
0.20441
0.205226
0.205728
0.206013
0.206134
0.206127
0.166758
0.166822
0.167138
0.167731
0.168708
0.170232
0.172513
0.175791
0.180286
0.186099
0.192132
0.19696
0.200431
0.202825
0.204419
0.205444
0.206075
0.206434
0.206585
0.206576
0.157478
0.157564
0.157978
0.158755
0.160029
0.162012
0.164966
0.169186
0.174937
0.182319
0.189929
0.195992
0.200341
0.203338
0.205334
0.206616
0.207405
0.207854
0.208043
0.208031
0.146501
0.146618
0.147167
0.148196
0.14988
0.152485
0.156338
0.161799
0.169172
0.178542
0.188116
0.195703
0.201134
0.204876
0.207367
0.208969
0.209954
0.210513
0.210749
0.210733
0.133263
0.133427
0.134164
0.135551
0.137811
0.141278
0.146351
0.153459
0.162931
0.174806
0.186805
0.196254
0.203008
0.207665
0.210772
0.212772
0.214003
0.2147
0.214992
0.214973
0.116949
0.117181
0.118196
0.120118
0.123224
0.127916
0.134677
0.143992
0.156179
0.171184
0.186133
0.197832
0.206193
0.211976
0.21585
0.218353
0.219893
0.220761
0.221123
0.221099
0.0963256
0.0966572
0.0981161
0.100893
0.105294
0.111788
0.120937
0.133237
0.148921
0.16778
0.186259
0.200626
0.210915
0.218082
0.222927
0.226086
0.228037
0.22913
0.22958
0.229549
0.0694472
0.0699468
0.0721977
0.0764424
0.0829245
0.0921656
0.104763
0.121105
0.141234
0.164744
0.187339
0.2048
0.217367
0.226228
0.232324
0.236377
0.238928
0.240369
0.240954
0.240905
0.0329731
0.0338653
0.0378119
0.0448379
0.0548722
0.0684581
0.0860405
0.107738
0.133351
0.162291
0.189531
0.210462
0.225646
0.236554
0.24427
0.249592
0.253095
0.255158
0.256015
0.255937
-0.0197233
-0.0171089
-0.00874874
0.00400883
0.0203766
0.0407499
0.0652299
0.0936814
0.12574
0.160734
0.192985
0.217644
0.235703
0.248979
0.258726
0.265814
0.270853
0.274116
0.275635
0.27555
-0.0996199
-0.0870894
-0.0679194
-0.0448606
-0.0188851
0.0104912
0.0433381
0.0795269
0.118713
0.160298
0.198015
0.226838
0.248264
0.264486
0.276968
0.286722
0.294406
0.300239
0.303928
0.304695
-0.184012
-0.157968
-0.127224
-0.0938159
-0.0581254
-0.0197943
0.0213621
0.0653441
0.111961
0.160793
0.204947
0.238966
0.264703
0.284719
0.300691
0.313769
0.324697
0.33415
0.341765
0.342921
-0.247719
-0.218841
-0.180191
-0.13855
-0.0944934
-0.0480628
0.000794816
0.0520842
0.105701
0.161332
0.211364
0.249803
0.278858
0.301436
0.319373
0.333885
0.34578
0.355537
0.362226
0.36343
-0.297451
-0.266539
-0.223486
-0.176374
-0.126346
-0.0736059
-0.018309
0.0393908
0.0992839
0.161
0.216132
0.258177
0.289631
0.313716
0.332509
0.347425
0.359455
0.369188
0.37594
0.377229
-0.336419
-0.304996
-0.258889
-0.207922
-0.153555
-0.0960405
-0.0356411
0.0274046
0.0928024
0.160066
0.219889
0.265115
0.298533
0.323769
0.34317
0.358333
0.370363
0.379894
0.386482
0.387815
-0.368382
-0.336865
-0.288867
-0.235055
-0.177342
-0.116025
-0.0513942
0.0162365
0.0864986
0.158792
0.222947
0.271128
0.30637
0.332644
0.352571
0.367931
0.379966
0.389391
0.395842
0.397177
-0.395732
-0.364183
-0.314894
-0.259017
-0.198697
-0.134297
-0.0661886
0.00532547
0.0798984
0.156903
0.225335
0.276534
0.31367
0.34105
0.361561
0.377179
0.389271
0.398629
0.404958
0.406291
-0.420009
-0.388361
-0.338097
-0.28065
-0.218325
-0.151496
-0.080497
-0.00562189
0.0728595
0.154396
0.227189
0.281629
0.320864
0.349509
0.370725
0.386677
0.398882
0.408226
0.414468
0.415791
-0.442172
-0.410353
-0.359307
-0.300587
-0.236652
-0.167859
-0.0945036
-0.0167822
0.0652125
0.15114
0.228508
0.286542
0.32821
0.358375
0.380464
0.39687
0.409257
0.41861
0.42476
0.426058
-0.462911
-0.430787
-0.379055
-0.319304
-0.254085
-0.183723
-0.108464
-0.0283641
0.0567717
0.146977
0.229216
0.291323
0.335864
0.367878
0.391066
0.408062
0.420707
0.430081
0.436197
0.437538
-0.482342
-0.449938
-0.397609
-0.337046
-0.270801
-0.19923
-0.122498
-0.0404858
0.0473849
0.141749
0.229182
0.295938
0.343896
0.378175
0.40274
0.420506
0.433526
0.443066
0.44898
0.450411
-0.500766
-0.468007
-0.415155
-0.35396
-0.286908
-0.214445
-0.136654
-0.0532131
0.0369348
0.135267
0.228229
0.300272
0.352289
0.389339
0.415636
0.434384
0.447894
0.45761
0.463476
0.464881
-0.518232
-0.485147
-0.431819
-0.37006
-0.302442
-0.229382
-0.15094
-0.0665633
0.0253512
0.127364
0.226145
0.304158
0.360958
0.401374
0.429822
0.449829
0.463982
0.473941
0.479802
0.481129
-0.534746
-0.501401
-0.447647
-0.385369
-0.317369
-0.243995
-0.1653
-0.080513
0.0125914
0.117894
0.222706
0.307389
0.36974
0.414198
0.445304
0.466895
0.481902
0.492217
0.498081
0.499261
-0.550342
-0.51664
-0.462549
-0.399897
-0.331657
-0.258222
-0.179647
-0.0949897
-0.00133742
0.106736
0.217692
0.309717
0.378405
0.427623
0.461971
0.485549
0.50168
0.51252
0.518437
0.519352
-0.565117
-0.530917
-0.476526
-0.413599
-0.345249
-0.271985
-0.193885
-0.109887
-0.0163963
0.0938058
0.210912
0.310896
0.386675
0.441358
0.479602
0.505675
0.523176
0.534645
0.540667
0.541299
-0.578842
-0.544463
-0.489566
-0.426435
-0.358096
-0.28519
-0.2079
-0.125071
-0.0324844
0.0790676
0.202202
0.310697
0.394197
0.45503
0.497768
0.526985
0.54627
0.558473
0.564458
0.564743
-0.591625
-0.556941
-0.501679
-0.438375
-0.370149
-0.297768
-0.221562
-0.140404
-0.0494809
0.0625137
0.191421
0.3089
0.400714
0.467942
0.515861
0.549123
0.570907
0.583866
0.589437
0.589164
-0.603564
-0.568409
-0.512862
-0.449415
-0.381371
-0.309646
-0.234765
-0.155726
-0.0672354
0.0441964
0.178445
0.305443
0.405814
0.479476
0.532964
0.571305
0.59706
0.611059
0.614842
0.613494
-0.614541
-0.579004
-0.523102
-0.459546
-0.391747
-0.320766
-0.247402
-0.170876
-0.0855665
0.0242037
0.163233
0.300195
0.409487
0.488927
0.547478
0.591982
0.624262
0.642247
0.642551
0.636758
-0.624721
-0.588731
-0.532441
-0.468816
-0.40132
-0.331164
-0.259498
-0.185883
-0.104569
0.00228157
0.145354
0.293011
0.411695
0.495815
0.557789
0.60807
0.649009
0.678849
0.682636
0.663267
-0.634137
-0.597575
-0.540959
-0.477371
-0.410277
-0.341051
-0.271328
-0.201164
-0.124946
-0.0228332
0.123341
0.283095
0.412358
0.499908
0.561271
0.613343
0.658332
0.688372
0.68491
0.65886
-0.642699
-0.605465
-0.548551
-0.485128
-0.418461
-0.35021
-0.282673
-0.216362
-0.146272
-0.050916
0.0969541
0.270339
0.412416
0.502437
0.553055
0.597136
0.63074
0.635259
0.570412
0.523725
-0.649986
-0.612267
-0.554931
-0.491584
-0.425448
-0.358344
-0.293327
-0.231285
-0.168372
-0.082356
0.0654628
0.254273
0.412041
0.503476
0.534681
0.550266
0.563517
0.517191
0.435114
0.382015
-0.697187
-0.615651
-0.561016
-0.497559
-0.432208
-0.366273
-0.303285
-0.246013
-0.19133
-0.117556
0.0277636
0.233884
0.408453
0.503888
0.503547
0.481818
0.440976
0.363767
0.265743
0.212554
-0.635799
-0.62024
-0.567255
-0.505745
-0.440906
-0.376297
-0.317081
-0.266758
-0.227089
-0.176663
-0.0439847
0.196179
0.404692
0.490518
0.451716
0.297419
0.144003
0.0388937
-0.0618812
-0.00637534
-0.660422
-0.628545
-0.574179
-0.512443
-0.447632
-0.383866
-0.326428
-0.281561
-0.253746
-0.225951
-0.113987
0.143078
0.390003
0.461739
0.348434
0.110146
-0.0952575
-0.241326
-0.386016
-0.288094
-0.674556
-0.638616
-0.582123
-0.519575
-0.454598
-0.391309
-0.335593
-0.295899
-0.280696
-0.277024
-0.188399
0.0779297
0.355045
0.419996
0.208609
-0.114934
-0.37213
-0.570367
-0.783253
-0.664835
-0.686818
-0.647959
-0.589697
-0.525981
-0.460577
-0.397628
-0.343722
-0.309305
-0.307597
-0.337549
-0.298121
-0.0249618
0.295572
0.317598
0.0094152
-0.374856
-0.704766
-0.988151
-1.30971
-1.23388
-0.696598
-0.6564
-0.59677
-0.531892
-0.465889
-0.40309
-0.350818
-0.321662
-0.334761
-0.407132
-0.450447
-0.19581
0.173297
0.134614
-0.22947
-0.651947
-1.05984
-1.4252
-1.90112
-2.19451
-0.704814
-0.663902
-0.603359
-0.537448
-0.470686
-0.407699
-0.356592
-0.332077
-0.360237
-0.482265
-0.652154
-0.461171
-0.0466887
-0.117813
-0.491503
-0.892187
-1.35688
-1.75034
-1.97393
-2.41146
-0.712261
-0.670813
-0.609521
-0.542606
-0.474917
-0.411404
-0.360894
-0.340348
-0.383773
-0.564463
-0.915487
-0.859851
-0.377657
-0.454964
-0.772139
-1.07912
-1.46434
-1.81084
-1.90378
-1.94903
-0.719324
-0.677291
-0.615235
-0.547252
-0.478424
-0.413969
-0.363329
-0.345661
-0.403556
-0.648978
-1.24456
-1.36922
-0.812795
-0.844249
-1.07223
-1.22173
-1.42042
-1.75739
-1.82697
-1.76861
-0.726305
-0.683491
-0.620493
-0.551281
-0.481023
-0.415084
-0.363377
-0.346687
-0.415908
-0.72948
-1.5849
-1.86362
-1.2885
-1.2417
-1.39157
-1.41287
-1.27041
-1.33929
-1.50322
-1.51448
-0.733511
-0.6896
-0.62538
-0.554682
-0.482628
-0.414548
-0.360554
-0.342197
-0.416511
-0.785094
-1.83162
-2.23974
-1.65845
-1.58357
-1.76259
-1.75733
-1.28987
-1.28849
-1.54147
-1.65237
-0.741017
-0.695746
-0.630024
-0.557545
-0.48325
-0.412319
-0.354576
-0.331345
-0.40116
-0.783482
-1.89824
-2.32802
-1.79536
-1.83758
-2.27491
-2.82688
-2.80997
-2.67219
-2.47313
-2.42568
-0.748919
-0.702141
-0.634608
-0.560017
-0.483036
-0.408492
-0.345534
-0.31373
-0.366789
-0.707125
-1.69259
-2.02243
-1.62005
-1.86464
-2.69649
-4.1229
-4.59904
-4.24495
-3.69513
-3.42515
-0.757543
-0.708986
-0.63938
-0.562354
-0.482245
-0.403409
-0.333743
-0.28995
-0.31502
-0.559301
-1.23516
-1.3758
-1.09773
-1.40737
-2.34208
-3.75491
-4.26067
-3.81476
-3.23839
-2.98064
-0.767102
-0.716665
-0.644672
-0.564885
-0.481259
-0.39754
-0.32018
-0.261867
-0.251111
-0.37071
-0.679106
-0.613661
-0.372217
-0.468323
-0.844736
-1.33834
-1.60965
-1.45184
-1.25835
-1.17714
-0.777927
-0.725446
-0.650796
-0.567976
-0.480576
-0.391621
-0.305857
-0.231568
-0.183525
-0.1868
-0.197899
-0.00289577
0.219292
0.293381
0.265608
0.236738
0.259914
0.313121
0.342237
0.349642
-0.789952
-0.73563
-0.658001
-0.571941
-0.4805
-0.386069
-0.291881
-0.202033
-0.120459
-0.0396374
0.103264
0.350391
0.553874
0.697547
0.797043
0.883597
0.957868
1.00229
1.01553
1.01167
-0.803091
-0.746795
-0.666224
-0.57669
-0.481243
-0.381524
-0.279315
-0.175464
-0.0675573
0.0644502
0.265119
0.511727
0.711153
0.869354
0.98998
1.0852
1.15789
1.20389
1.22522
1.22867
-0.816572
-0.758529
-0.674814
-0.581918
-0.482564
-0.377893
-0.268585
-0.153599
-0.0272126
0.132885
0.347846
0.575984
0.761608
0.907919
1.02034
1.10683
1.17196
1.21708
1.24191
1.24704
-0.827587
-0.768494
-0.682579
-0.586402
-0.48354
-0.374696
-0.259781
-0.136859
0.00128953
0.17409
0.385481
0.59136
0.7587
0.888651
0.988022
1.06399
1.12188
1.16427
1.18977
1.19521
-0.833466
-0.774426
-0.686894
-0.588284
-0.482676
-0.370759
-0.252098
-0.124149
0.0199911
0.196043
0.395981
0.579884
0.728892
0.844599
0.933395
1.0017
1.05441
1.09422
1.11742
1.12373
-0.831236
-0.772852
-0.684894
-0.584583
-0.477536
-0.364267
-0.243907
-0.113932
0.0316796
0.204079
0.390375
0.554955
0.687444
0.79115
0.871766
0.934564
0.983721
1.02134
1.04351
1.04999
-0.813842
-0.758084
-0.671874
-0.572058
-0.465485
-0.352731
-0.233109
-0.104536
0.0382664
0.203513
0.374025
0.521278
0.639075
0.732333
0.805917
0.863963
0.909925
0.945115
0.966731
0.973614
-0.774845
-0.724188
-0.643211
-0.54599
-0.442716
-0.333948
-0.218381
-0.0944479
0.0416656
0.19555
0.349781
0.480325
0.584253
0.667354
0.733959
0.787336
0.830083
0.863208
0.8843
0.891559
-0.709424
-0.667203
-0.591231
-0.501574
-0.405903
-0.30478
-0.197362
-0.0823305
0.043076
0.182261
0.318622
0.432128
0.521816
0.593686
0.65189
0.699409
0.737749
0.767884
0.788682
0.795788
-0.607919
-0.5777
-0.512593
-0.435232
-0.352231
-0.263726
-0.168936
-0.0668541
0.0440776
0.165663
0.282379
0.377406
0.451315
0.509561
0.556007
0.593781
0.624865
0.649249
0.665149
0.669831
-0.4565
-0.441526
-0.398955
-0.343154
-0.28057
-0.210896
-0.133646
-0.0481596
0.0465016
0.151136
0.251448
0.332124
0.39379
0.441176
0.477693
0.505594
0.526604
0.543154
0.555244
0.558521
-0.296539
-0.291434
-0.269937
-0.238368
-0.198681
-0.150232
-0.0927321
-0.0254664
0.0519071
0.139414
0.223928
0.291523
0.342463
0.380378
0.408048
0.427984
0.442328
0.451873
0.457082
0.458165
-0.167632
-0.16564
-0.156959
-0.141724
-0.119836
-0.0899017
-0.0503794
-0.00047755
0.0602254
0.13135
0.201098
0.256617
0.297658
0.327307
0.348356
0.362683
0.371689
0.376959
0.379575
0.37992
-0.076678
-0.077029
-0.0751145
-0.0689889
-0.0573175
-0.039051
-0.0126685
0.0232725
0.0695484
0.125905
0.18229
0.227226
0.260073
0.283228
0.298756
0.308691
0.314805
0.318167
0.319467
0.319506
-0.0196226
-0.0204704
-0.0212746
-0.0196427
-0.0138242
-0.00237618
0.0158427
0.0420239
0.0771239
0.121217
0.166056
0.201798
0.227597
0.245449
0.257365
0.264903
0.269174
0.27119
0.27183
0.271816
0.0139011
0.0133533
0.0126766
0.0134244
0.016748
0.0239409
0.0364393
0.0555594
0.0821997
0.116508
0.151884
0.180162
0.200527
0.214518
0.223595
0.229091
0.232152
0.233602
0.234068
0.234063
0.0349317
0.0346636
0.034344
0.0349764
0.0374146
0.0425849
0.0515495
0.0655359
0.085607
0.112114
0.139831
0.162037
0.177906
0.188655
0.195581
0.199791
0.202117
0.203188
0.203531
0.203529
0.0486611
0.0485294
0.0483937
0.0489196
0.0507092
0.0545006
0.0611759
0.0717106
0.0869853
0.107415
0.128987
0.146315
0.158689
0.167067
0.172438
0.175663
0.177425
0.178234
0.178495
0.178494
0.0573241
0.0572736
0.0572756
0.0577776
0.0592068
0.06209
0.0671045
0.0750593
0.0867193
0.102481
0.119247
0.132747
0.142374
0.14886
0.152999
0.155483
0.156841
0.157463
0.157666
0.157663
0.0624175
0.062403
0.0624678
0.0629171
0.0640646
0.0663053
0.0701549
0.0762365
0.085172
0.0973249
0.110318
0.120801
0.128272
0.133301
0.136507
0.138424
0.139468
0.139943
0.140096
0.140091
0.0648877
0.064889
0.064978
0.0653685
0.0662892
0.0680366
0.0710055
0.0756813
0.0825566
0.0919376
0.102002
0.110133
0.115926
0.119821
0.122299
0.123778
0.124581
0.124944
0.125059
0.125053
0.065397
0.0654036
0.0654919
0.0658175
0.0665546
0.0679217
0.0702222
0.0738296
0.0791299
0.086374
0.0941636
0.100462
0.104949
0.107963
0.109878
0.111018
0.111634
0.11191
0.111995
0.111989
0.0644017
0.0644092
0.0644865
0.0647506
0.065333
0.0664003
0.0681848
0.0709728
0.075066
0.0806642
0.0866894
0.0915644
0.0950353
0.0973634
0.0988403
0.0997176
0.100189
0.100398
0.100461
0.100456
0.0622413
0.0622481
0.0623116
0.0625213
0.062978
0.0638086
0.0651918
0.0673489
0.070511
0.0748357
0.0794948
0.0832635
0.0859459
0.0877451
0.0888854
0.0895603
0.0899205
0.0900772
0.0901224
0.090117
0.0591754
0.0591809
0.0592314
0.0593949
0.0597561
0.0603991
0.0614697
0.0631361
0.065578
0.0689189
0.0725177
0.0754303
0.0775031
0.0788897
0.0797653
0.0802823
0.0805579
0.0806767
0.0807104
0.0807058
0.0554081
0.0554125
0.055452
0.0555795
0.055855
0.0563539
0.0571819
0.0584698
0.0603558
0.062935
0.0657136
0.0679596
0.0695557
0.0706237
0.0712978
0.0716944
0.071904
0.071993
0.0720172
0.0720132
0.0510962
0.0510994
0.0511296
0.0512278
0.0514395
0.0518245
0.0524627
0.0534552
0.0549084
0.0568947
0.0590348
0.0607646
0.0619928
0.0628135
0.0633314
0.063636
0.0637959
0.0638632
0.063881
0.0638772
0.0463634
0.0463656
0.0463881
0.0464628
0.0466247
0.0469201
0.047411
0.0481744
0.0492913
0.0508179
0.0524631
0.0537925
0.0547358
0.0553649
0.0557593
0.0559894
0.0561097
0.0561596
0.0561721
0.056169
0.0413052
0.0413066
0.0413234
0.04138
0.0415033
0.041729
0.0421039
0.0426867
0.0435412
0.0447101
0.0459678
0.0469835
0.0477043
0.0481839
0.0484835
0.0486583
0.0487492
0.0487865
0.0487957
0.048793
0.0359966
0.0359973
0.0360095
0.0360518
0.0361444
0.0363148
0.0365996
0.0370429
0.0376919
0.0385794
0.0395341
0.0403036
0.0408475
0.0412083
0.0414354
0.0415681
0.0416365
0.0416634
0.0416687
0.0416668
0.0304984
0.0304985
0.0305069
0.0305379
0.0306068
0.0307337
0.0309458
0.0312772
0.0317638
0.0324295
0.0331458
0.0337221
0.0341296
0.0344003
0.0345691
0.0346658
0.0347145
0.0347321
0.0347344
0.034733
0.0248576
0.0248573
0.024862
0.024883
0.0249326
0.0250251
0.0251795
0.0254213
0.0257767
0.0262645
0.0267907
0.0272156
0.0275155
0.027713
0.0278337
0.0279013
0.0279343
0.0279449
0.0279461
0.027945
0.0191091
0.0191086
0.0191109
0.0191248
0.0191589
0.0192231
0.019332
0.0195032
0.0197543
0.0200983
0.0204695
0.0207656
0.0209734
0.0211097
0.0211929
0.02124
0.021263
0.0212706
0.021271
0.0212696
0.0132815
0.0132809
0.0132818
0.0132908
0.0133126
0.0133542
0.0134247
0.0135348
0.0136974
0.0139194
0.0141614
0.0143521
0.0144871
0.0145756
0.0146294
0.0146578
0.0146696
0.0146709
0.0146689
0.0146681
0.00740149
0.00740121
0.00740121
0.00740514
0.00741579
0.00743714
0.00747353
0.00753154
0.00761681
0.00773446
0.00786249
0.00796685
0.00803886
0.00808588
0.00811352
0.00812721
0.00813079
0.00812809
0.00812431
0.00812424
0.00148376
0.00148313
0.00147956
0.00147793
0.00147895
0.00148199
0.00148791
0.0014979
0.00151257
0.00153362
0.00155962
0.00158448
0.00160225
0.0016136
0.00162072
0.00162498
0.00162686
0.00162696
0.00162554
0.00162381
-0.929515
-0.612045
-0.295067
-0.0452842
0.153473
0.314035
0.452964
0.573043
0.630112
0.608795
-0.395272
-0.200934
-0.00971248
0.152272
0.288943
0.404609
0.500162
0.56875
0.603664
0.610122
-0.0572934
0.0648404
0.187255
0.296379
0.391265
0.471425
0.534614
0.579405
0.608243
0.621108
0.164627
0.24477
0.329081
0.405796
0.472601
0.528489
0.572903
0.606502
0.631029
0.645711
0.321701
0.378177
0.439169
0.495073
0.543832
0.585329
0.619754
0.647193
0.667987
0.683304
0.444238
0.486267
0.532479
0.57543
0.614279
0.648265
0.677076
0.700563
0.718169
0.734115
0.546475
0.580595
0.620226
0.657122
0.690893
0.720945
0.746787
0.7677
0.782548
0.799071
0.641272
0.673767
0.711526
0.746602
0.778626
0.807015
0.831186
0.850184
0.862909
0.879876
0.740281
0.775977
0.814752
0.850273
0.881694
0.908971
0.931529
0.949033
0.960622
0.978211
0.85801
0.897585
0.937057
0.972453
1.00254
1.02785
1.04861
1.06456
1.07604
1.09435
1.00422
1.04452
1.08066
1.11163
1.13776
1.16021
1.1795
1.19524
1.20801
1.22618
1.18003
1.21254
1.23876
1.26133
1.28159
1.30059
1.31845
1.33514
1.35101
1.36928
1.36827
1.38609
1.40183
1.41857
1.43484
1.4495
1.46268
1.47678
1.49395
1.51361
1.55023
1.56121
1.57351
1.58446
1.59392
1.60354
1.61442
1.62606
1.63604
1.65121
1.76112
1.76312
1.74811
1.73319
1.72692
1.73259
1.75134
1.78177
1.81383
1.84453
2.06765
1.93071
1.85435
1.81192
1.7944
1.79856
1.82573
1.88194
1.98569
2.20106
0.317393
0.31412
0.308453
0.299038
0.286551
0.274693
0.264985
0.257592
0.252354
0.24927
0.248768
0.251024
0.255495
0.262001
0.270685
0.281647
0.294191
0.305686
0.312784
0.317304
0.234699
0.240721
0.248324
0.254276
0.257872
0.258324
0.256148
0.252721
0.249414
0.247107
0.24672
0.248632
0.251832
0.255539
0.258661
0.259753
0.257755
0.252873
0.246195
0.23865
0.226355
0.22864
0.232872
0.236771
0.239634
0.241788
0.243069
0.243366
0.242906
0.242391
0.242446
0.243155
0.244069
0.244479
0.24389
0.242262
0.239838
0.23655
0.232294
0.228825
0.224113
0.224824
0.227577
0.231175
0.234111
0.236129
0.237474
0.238278
0.238631
0.238738
0.238956
0.239367
0.239567
0.239278
0.238385
0.236875
0.234518
0.231249
0.22785
0.226174
0.224599
0.224809
0.225705
0.227152
0.228682
0.230403
0.232014
0.233222
0.23402
0.234526
0.234895
0.235086
0.234929
0.234277
0.233109
0.231569
0.230035
0.228617
0.227401
0.226906
0.223031
0.22312
0.2236
0.22444
0.225323
0.226315
0.227198
0.228076
0.228876
0.229533
0.23
0.230196
0.230051
0.229625
0.229033
0.228331
0.22752
0.226718
0.226062
0.225829
0.22065
0.220684
0.220919
0.2214
0.222011
0.222739
0.223546
0.22438
0.225192
0.225944
0.226535
0.226811
0.226756
0.226455
0.225999
0.225452
0.224947
0.22448
0.224164
0.224065
0.217514
0.217532
0.217647
0.217903
0.218263
0.218724
0.219289
0.219959
0.220707
0.221486
0.222187
0.222623
0.222769
0.222717
0.222559
0.222351
0.222131
0.221924
0.221784
0.221741
0.213915
0.213928
0.214012
0.214192
0.214466
0.214843
0.21534
0.215968
0.216723
0.217586
0.218448
0.219085
0.219431
0.219565
0.219574
0.219515
0.219429
0.219342
0.219283
0.219262
0.209967
0.209972
0.210038
0.210179
0.210403
0.210733
0.211196
0.211823
0.212632
0.21362
0.214686
0.215553
0.216116
0.216447
0.216627
0.216712
0.216743
0.216744
0.216739
0.216735
0.20572
0.205724
0.205783
0.205912
0.206126
0.206454
0.206937
0.207617
0.208536
0.209711
0.211043
0.212195
0.212995
0.213528
0.21386
0.214061
0.214176
0.214236
0.214264
0.21427
0.201147
0.201148
0.201209
0.201346
0.201577
0.20194
0.202485
0.203274
0.204366
0.205802
0.207476
0.208972
0.210055
0.210795
0.211284
0.211595
0.211785
0.211895
0.21195
0.211964
0.196218
0.196218
0.196286
0.196441
0.196709
0.197136
0.197787
0.19874
0.200078
0.201863
0.203977
0.2059
0.20731
0.208294
0.208954
0.209382
0.209648
0.209805
0.209886
0.209907
0.19085
0.190849
0.190931
0.19112
0.191447
0.191971
0.192774
0.193957
0.195626
0.197868
0.200542
0.202992
0.204802
0.206074
0.206933
0.207494
0.207846
0.208056
0.208164
0.208192
0.184943
0.18494
0.185044
0.185281
0.185691
0.186349
0.187359
0.188849
0.190955
0.193788
0.197176
0.200285
0.202588
0.20421
0.205309
0.206027
0.206479
0.206749
0.206889
0.206925
0.178355
0.178351
0.178484
0.178786
0.179309
0.180148
0.181433
0.183327
0.186003
0.189598
0.19389
0.197824
0.200737
0.20279
0.204181
0.205092
0.205665
0.206007
0.206184
0.20623
0.170895
0.17089
0.171062
0.171453
0.172127
0.173206
0.174855
0.17728
0.180695
0.185266
0.190702
0.19567
0.199342
0.201927
0.203678
0.204824
0.205546
0.205977
0.2062
0.206257
0.162306
0.162301
0.162527
0.163037
0.163915
0.165313
0.167446
0.170567
0.174943
0.180765
0.187647
0.193906
0.198517
0.201758
0.203953
0.20539
0.206296
0.206836
0.207116
0.207187
0.152237
0.152231
0.152533
0.15321
0.154365
0.156196
0.158973
0.163016
0.168642
0.176067
0.184769
0.192631
0.198404
0.202456
0.205199
0.206994
0.208126
0.208803
0.209152
0.20924
0.140201
0.140195
0.140607
0.141521
0.143062
0.145485
0.149138
0.154411
0.161675
0.17115
0.182129
0.191969
0.199167
0.204216
0.207635
0.209876
0.211292
0.212141
0.212579
0.212688
0.125508
0.125506
0.126089
0.127348
0.129438
0.132693
0.137558
0.144499
0.153919
0.16601
0.179814
0.192066
0.200999
0.207268
0.211523
0.21432
0.216096
0.217169
0.217726
0.217863
0.107162
0.107177
0.108037
0.109821
0.112714
0.117179
0.123775
0.133011
0.145277
0.160679
0.177937
0.193087
0.204107
0.211864
0.217159
0.220661
0.222902
0.224274
0.224998
0.225174
0.0836277
0.0836964
0.0850433
0.0876664
0.0918236
0.0981645
0.107312
0.11974
0.135744
0.155273
0.176662
0.195213
0.208695
0.21825
0.224846
0.229262
0.232123
0.233904
0.234866
0.235108
0.0523258
0.0525426
0.0548196
0.0589547
0.065342
0.0747786
0.0877725
0.104634
0.125466
0.15001
0.176196
0.19862
0.214927
0.226618
0.234843
0.240479
0.244215
0.246588
0.247904
0.24825
0.00853239
0.00917023
0.0135821
0.0209564
0.0316377
0.0462719
0.0649961
0.0878682
0.114747
0.145175
0.176736
0.203406
0.222844
0.236994
0.247225
0.254511
0.259574
0.262963
0.264933
0.265423
-0.0560909
-0.0536647
-0.0433899
-0.0288372
-0.010074
0.0127839
0.0395347
0.070066
0.104088
0.141084
0.178396
0.209517
0.232262
0.249098
0.261657
0.271052
0.278041
0.283187
0.286476
0.287019
-0.13456
-0.129418
-0.110113
-0.0838423
-0.0545149
-0.0221824
0.0132666
0.051854
0.0934349
0.137631
0.181632
0.21834
0.245561
0.266269
0.282352
0.295056
0.305264
0.313478
0.318121
0.320088
-0.213641
-0.201342
-0.17235
-0.136113
-0.0971868
-0.0558011
-0.0119379
0.0345091
0.083502
0.134811
0.185505
0.227793
0.259321
0.283558
0.302685
0.318082
0.330617
0.340885
0.347962
0.351447
-0.270576
-0.257398
-0.223588
-0.180964
-0.135009
-0.0864343
-0.0353693
0.0181074
0.0739061
0.131796
0.18855
0.235579
0.270426
0.296998
0.317698
0.334058
0.347092
0.357491
0.364661
0.368039
-0.315311
-0.301883
-0.264683
-0.217779
-0.166977
-0.113104
-0.0564293
0.00283756
0.0644857
0.1282
0.190385
0.241586
0.279138
0.307382
0.329051
0.345931
0.359199
0.369639
0.3769
0.380188
-0.350818
-0.33764
-0.298594
-0.24864
-0.194281
-0.136401
-0.0752846
-0.0112038
0.0555313
0.124515
0.191706
0.246703
0.286642
0.316309
0.338762
0.356008
0.369392
0.3798
0.38707
0.390332
-0.380646
-0.367652
-0.327456
-0.275343
-0.218263
-0.157173
-0.0924157
-0.0243098
0.0468164
0.120511
0.192375
0.251047
0.293339
0.324415
0.347643
0.36527
0.378801
0.389223
0.396554
0.399791
-0.406611
-0.393731
-0.352691
-0.298999
-0.239884
-0.17629
-0.108578
-0.037084
0.0378984
0.115962
0.192421
0.254881
0.299675
0.332292
0.356399
0.374477
0.38821
0.398684
0.40607
0.409276
-0.429953
-0.417107
-0.3754
-0.320467
-0.259735
-0.194159
-0.124055
-0.0497187
0.0286494
0.110786
0.191839
0.258331
0.305921
0.34032
0.365479
0.38413
0.398132
0.408706
0.416152
0.419355
-0.451494
-0.438676
-0.396306
-0.340364
-0.278337
-0.211154
-0.139117
-0.0624364
0.018857
0.104791
0.190516
0.261422
0.312227
0.348748
0.375201
0.39458
0.408951
0.419664
0.427157
0.430322
-0.471694
-0.458825
-0.415812
-0.359043
-0.296
-0.227554
-0.15399
-0.0754158
0.00836431
0.0978151
0.188318
0.264106
0.31865
0.357732
0.385787
0.406094
0.420952
0.43189
0.439437
0.442588
-0.490719
-0.477696
-0.434245
-0.376733
-0.312864
-0.243454
-0.168749
-0.0887422
-0.00293488
0.0897001
0.185058
0.266258
0.32517
0.367342
0.397389
0.418867
0.434362
0.445593
0.453228
0.45633
-0.508798
-0.495595
-0.451637
-0.393573
-0.329015
-0.258908
-0.183421
-0.102441
-0.0151148
0.0803143
0.180552
0.267704
0.331687
0.377574
0.410075
0.433036
0.449347
0.460977
0.468728
0.471824
-0.525902
-0.512541
-0.468087
-0.409562
-0.344482
-0.273904
-0.197981
-0.116488
-0.0281982
0.0695397
0.174594
0.268234
0.338038
0.388346
0.423852
0.448676
0.466033
0.478187
0.486105
0.489216
-0.542099
-0.52852
-0.483684
-0.424666
-0.359246
-0.288404
-0.21237
-0.130816
-0.0421512
0.0573087
0.167006
0.267618
0.344001
0.399493
0.438644
0.4658
0.484481
0.497301
0.50545
0.508564
-0.557333
-0.543598
-0.498349
-0.438906
-0.373255
-0.302347
-0.226494
-0.145337
-0.0569023
0.0435821
0.157614
0.26562
0.349325
0.410768
0.454264
0.484259
0.504633
0.518319
0.526786
0.529836
-0.57168
-0.557703
-0.512073
-0.452273
-0.386465
-0.315665
-0.240261
-0.159922
-0.0723608
0.0283896
0.146278
0.262011
0.353732
0.421836
0.470304
0.503774
0.52632
0.541165
0.550056
0.552936
-0.584955
-0.570914
-0.524806
-0.464731
-0.39884
-0.328278
-0.253572
-0.174441
-0.0883874
0.0117825
0.1329
0.256605
0.357026
0.432242
0.486203
0.523908
0.549234
0.565471
0.574652
0.577282
-0.597376
-0.583147
-0.536578
-0.476266
-0.410363
-0.340149
-0.266322
-0.188766
-0.104825
-0.00613787
0.117437
0.249308
0.358912
0.441486
0.501199
0.54398
0.573318
0.591535
0.600409
0.6021
-0.608858
-0.59439
-0.547434
-0.486872
-0.421001
-0.351227
-0.278432
-0.202746
-0.121504
-0.0252544
0.0998683
0.239991
0.359329
0.449076
0.514456
0.562812
0.597832
0.619998
0.628176
0.626313
-0.619491
-0.604839
-0.557359
-0.496552
-0.430762
-0.361482
-0.289827
-0.216269
-0.138252
-0.0453739
0.0802164
0.228568
0.358165
0.455039
0.525026
0.578443
0.620441
0.650683
0.662544
0.651442
-0.629295
-0.614455
-0.566417
-0.505417
-0.439794
-0.371101
-0.300739
-0.229663
-0.155593
-0.0674002
0.05718