/*--------------------------------*- C++ -*----------------------------------*\
| =========                 |                                                 |
| \\      /  F ield         | OpenFOAM: The Open Source CFD Toolbox           |
|  \\    /   O peration     | Version:  2306                                  |
|   \\  /    A nd           | Website:  www.openfoam.com                      |
|    \\/     M anipulation  |                                                 |
\*---------------------------------------------------------------------------*/
FoamFile
{
    version     2.0;
    format      ascii;
    arch        "LSB;label=32;scalar=64";
    class       volVectorField;
    location    "7";
    object      U;
}
// * * * * * * * * * * * * * * * * * * * * * * * * * * * * * * * * * * * * * //

dimensions      [0 1 -1 0 0 0 0];

internalField   nonuniform List<vector> 
8800
(
(0.984834 -0.0883481 0)
(1.00192 -0.0566307 0)
(0.999533 -0.0301217 0)
(0.999547 -0.0151198 0)
(0.999691 -0.00804588 0)
(0.999986 -0.0046318 0)
(1.00002 -0.00276479 0)
(0.999963 -0.00159929 0)
(0.999967 -0.000773885 0)
(1.00004 -0.000127037 0)
(0.999969 0.000508294 0)
(0.999961 0.00123163 0)
(0.999973 0.00222335 0)
(1.00003 0.00367159 0)
(0.999893 0.00616021 0)
(0.999539 0.0109698 0)
(0.999616 0.0214258 0)
(0.999068 0.040872 0)
(1.00723 0.0768528 0)
(0.773682 0.0450473 0)
(0.362412 -0.0149383 0)
(1.04667 -0.0732311 0)
(1.08658 -0.0666709 0)
(1.04759 -0.0514275 0)
(1.02508 -0.0380581 0)
(1.01263 -0.0253538 0)
(1.00649 -0.01578 0)
(1.00339 -0.00921362 0)
(1.00191 -0.00484987 0)
(1.00132 -0.00175488 0)
(1.00123 0.000765272 0)
(1.0015 0.00352812 0)
(1.00251 0.0071174 0)
(1.00463 0.0123803 0)
(1.00897 0.0202934 0)
(1.01791 0.0315847 0)
(1.03486 0.044976 0)
(1.06486 0.0584152 0)
(1.09389 0.0716818 0)
(0.843877 0.0551633 0)
(0.222304 -0.00141877 0)
(1.07919 -0.0465597 0)
(1.10079 -0.0437712 0)
(1.06451 -0.0348159 0)
(1.03954 -0.0278558 0)
(1.02288 -0.0214611 0)
(1.0128 -0.0156134 0)
(1.00742 -0.0103699 0)
(1.00483 -0.00568222 0)
(1.00395 -0.000888713 0)
(1.00414 0.00405341 0)
(1.00576 0.00858576 0)
(1.00951 0.0133926 0)
(1.01692 0.0188843 0)
(1.03004 0.0249183 0)
(1.05063 0.0314289 0)
(1.08082 0.0389991 0)
(1.10861 0.0471423 0)
(0.949305 0.0385217 0)
(0.22207 0.00142654 0)
(0.187914 -0.000214282 0)
(1.02936 -0.026095 0)
(1.10649 -0.0319934 0)
(1.07671 -0.0289449 0)
(1.05074 -0.0249328 0)
(1.03376 -0.0207796 0)
(1.02246 -0.0161134 0)
(1.01523 -0.0111366 0)
(1.01104 -0.00600844 0)
(1.00927 -0.000807293 0)
(1.00976 0.00428204 0)
(1.01261 0.00936025 0)
(1.01816 0.0143437 0)
(1.02722 0.0191094 0)
(1.04097 0.0233993 0)
(1.06193 0.0272205 0)
(1.09361 0.0311325 0)
(1.09845 0.0313464 0)
(0.85162 0.0160069 0)
(0.18754 0.000221747 0)
(0.180133 5.84512e-05 0)
(0.986156 -0.00965493 0)
(1.09559 -0.0184669 0)
(1.07649 -0.0220813 0)
(1.05204 -0.0227144 0)
(1.03607 -0.0209405 0)
(1.02518 -0.0173985 0)
(1.01803 -0.0126383 0)
(1.01366 -0.00701779 0)
(1.0117 -0.000821086 0)
(1.01221 0.00543629 0)
(1.01518 0.0112032 0)
(1.02076 0.0161923 0)
(1.02961 0.0201527 0)
(1.0427 0.0226683 0)
(1.06257 0.0232706 0)
(1.08993 0.0210609 0)
(1.07378 0.0152308 0)
(0.801154 0.00400071 0)
(0.179577 -5.18454e-05 0)
(0.179116 7.51747e-06 0)
(0.958414 -0.0047386 0)
(1.07699 -0.0129336 0)
(1.07069 -0.0187453 0)
(1.05387 -0.0206183 0)
(1.0415 -0.0198406 0)
(1.03243 -0.0171278 0)
(1.02575 -0.0128469 0)
(1.0211 -0.00734511 0)
(1.01878 -0.000655612 0)
(1.01935 0.0061684 0)
(1.02264 0.0120512 0)
(1.02805 0.0167601 0)
(1.03571 0.0200165 0)
(1.04612 0.021425 0)
(1.06092 0.0210265 0)
(1.07738 0.0168872 0)
(1.04795 0.00925711 0)
(0.779552 0.00173289 0)
(0.178287 4.19826e-06 0)
(0.178612 2.42451e-05 0)
(0.940957 -0.00203936 0)
(1.0578 -0.00770059 0)
(1.06024 -0.0130963 0)
(1.05077 -0.0160156 0)
(1.04203 -0.0163539 0)
(1.0348 -0.0147845 0)
(1.02908 -0.0115237 0)
(1.02508 -0.00681881 0)
(1.02285 -0.000336856 0)
(1.02327 0.00627391 0)
(1.02601 0.0117844 0)
(1.03074 0.0155948 0)
(1.03698 0.0177683 0)
(1.04479 0.0181762 0)
(1.05389 0.0161195 0)
(1.06144 0.0115277 0)
(1.02633 0.00509195 0)
(0.76839 0.000693464 0)
(0.177513 -1.52096e-05 0)
(0.178763 1.76545e-05 0)
(0.932189 -0.000803556 0)
(1.0452 -0.00382064 0)
(1.05217 -0.00735 0)
(1.04791 -0.00982456 0)
(1.04268 -0.010822 0)
(1.03764 -0.0102857 0)
(1.03317 -0.00821337 0)
(1.03005 -0.00463448 0)
(1.02809 0.000390126 0)
(1.02832 0.00557787 0)
(1.0305 0.00965387 0)
(1.03393 0.0123131 0)
(1.03834 0.0130717 0)
(1.04313 0.0123307 0)
(1.04778 0.010122 0)
(1.04981 0.00662752 0)
(1.01328 0.00269208 0)
(0.763085 0.000404334 0)
(0.177242 3.8535e-06 0)
(0.178866 1.40512e-05 0)
(0.928273 -0.000315313 0)
(1.0384 -0.00170023 0)
(1.04669 -0.00359421 0)
(1.04487 -0.00519748 0)
(1.04193 -0.00609536 0)
(1.03871 -0.00593623 0)
(1.03555 -0.00463018 0)
(1.03316 -0.00211735 0)
(1.03147 0.00127594 0)
(1.03135 0.0048264 0)
(1.03316 0.00731567 0)
(1.03499 0.00879698 0)
(1.03769 0.00881086 0)
(1.04039 0.00777436 0)
(1.04262 0.00596037 0)
(1.04239 0.00368428 0)
(1.00622 0.00149646 0)
(0.760185 0.000276826 0)
(0.176926 6.67152e-06 0)
(0.179052 1.63082e-05 0)
(0.926647 -3.33164e-05 0)
(1.03528 -0.000608825 0)
(1.04386 -0.00146813 0)
(1.04308 -0.00226938 0)
(1.04145 -0.00275628 0)
(1.03943 -0.00263777 0)
(1.03721 -0.00177299 0)
(1.03527 -7.71923e-05 0)
(1.03374 0.00215853 0)
(1.03331 0.00444285 0)
(1.03458 0.00583524 0)
(1.03535 0.00624954 0)
(1.0368 0.00594523 0)
(1.03819 0.00498817 0)
(1.03919 0.00367296 0)
(1.03808 0.00224472 0)
(1.00237 0.000979695 0)
(0.758371 0.000234711 0)
(0.176637 1.0742e-05 0)
(0.179352 2.0684e-05 0)
(0.926218 0.000194549 0)
(1.03405 4.21639e-05 0)
(1.04267 -0.000242526 0)
(1.04231 -0.000498809 0)
(1.04132 -0.000594356 0)
(1.03998 -0.000360824 0)
(1.03837 0.000322404 0)
(1.03672 0.00151627 0)
(1.03524 0.00304128 0)
(1.0345 0.00445229 0)
(1.03498 0.0051073 0)
(1.0352 0.00495068 0)
(1.03583 0.00447118 0)
(1.03643 0.00362474 0)
(1.03683 0.00263246 0)
(1.03538 0.00164802 0)
(0.999943 0.000801748 0)
(0.756954 0.000243047 0)
(0.176298 1.55097e-05 0)
(0.179778 2.38558e-05 0)
(0.926525 0.000356602 0)
(1.03388 0.000484276 0)
(1.04249 0.000557508 0)
(1.04229 0.00067086 0)
(1.0416 0.000891114 0)
(1.0406 0.00130161 0)
(1.03928 0.00197442 0)
(1.03776 0.00292687 0)
(1.03622 0.00401904 0)
(1.03515 0.00484705 0)
(1.03488 0.00505577 0)
(1.03472 0.00459362 0)
(1.03481 0.00393858 0)
(1.03495 0.00312021 0)
(1.03502 0.00226935 0)
(1.03341 0.00147262 0)
(0.998091 0.000788514 0)
(0.755606 0.000278915 0)
(0.175879 2.08551e-05 0)
(0.18033 3.08927e-05 0)
(0.927466 0.00052779 0)
(1.03443 0.000865563 0)
(1.04299 0.00119303 0)
(1.04285 0.00158379 0)
(1.04226 0.00207128 0)
(1.04138 0.00268929 0)
(1.04015 0.00345691 0)
(1.03862 0.00434194 0)
(1.03687 0.00518643 0)
(1.03539 0.00561493 0)
(1.03453 0.00543133 0)
(1.03397 0.00480131 0)
(1.03368 0.00400104 0)
(1.03353 0.00313292 0)
(1.0334 0.00229298 0)
(1.03169 0.0015345 0)
(0.99638 0.000876587 0)
(0.754138 0.000337939 0)
(0.175353 2.71571e-05 0)
(0.181045 3.88948e-05 0)
(0.928931 0.000705758 0)
(1.03555 0.0012345 0)
(1.04404 0.0017884 0)
(1.0439 0.00243095 0)
(1.0433 0.00317856 0)
(1.0424 0.0040333 0)
(1.04111 0.00497108 0)
(1.0394 0.00590749 0)
(1.03732 0.00663496 0)
(1.03535 0.00678819 0)
(1.03395 0.00631203 0)
(1.033 0.00546909 0)
(1.03239 0.00448835 0)
(1.032 0.003497 0)
(1.03173 0.00257344 0)
(1.02993 0.00175481 0)
(0.994565 0.00103864 0)
(0.752413 0.000417578 0)
(0.17469 3.46327e-05 0)
(0.181957 4.95234e-05 0)
(0.930948 0.000920174 0)
(1.03723 0.00165134 0)
(1.04562 0.00243762 0)
(1.04543 0.00334245 0)
(1.04475 0.00437116 0)
(1.04372 0.00550386 0)
(1.04223 0.00667841 0)
(1.0402 0.00775448 0)
(1.03764 0.00845949 0)
(1.03507 0.00840957 0)
(1.03312 0.00766345 0)
(1.03175 0.00655616 0)
(1.03084 0.00533916 0)
(1.03024 0.00415137 0)
(1.02984 0.00306691 0)
(1.02796 0.00211204 0)
(0.992468 0.00127335 0)
(0.750311 0.000522813 0)
(0.173854 4.39458e-05 0)
(0.183128 6.36261e-05 0)
(0.933611 0.00119198 0)
(1.03951 0.00216 0)
(1.04779 0.00321092 0)
(1.04749 0.00441621 0)
(1.04668 0.00577402 0)
(1.04543 0.00724446 0)
(1.04361 0.00872715 0)
(1.04111 0.0100215 0)
(1.03789 0.0107731 0)
(1.03459 0.0105496 0)
(1.03201 0.00950818 0)
(1.03018 0.00807848 0)
(1.02893 0.00655282 0)
(1.02812 0.00508921 0)
(1.02758 0.00376594 0)
(1.02559 0.00260667 0)
(0.989931 0.00158548 0)
(0.747699 0.000656864 0)
(0.172799 5.54278e-05 0)
(0.184638 8.21884e-05 0)
(0.937075 0.00154139 0)
(1.04251 0.00280324 0)
(1.05063 0.00417761 0)
(1.0502 0.00574843 0)
(1.04917 0.00750931 0)
(1.04761 0.00939805 0)
(1.04533 0.0112736 0)
(1.04218 0.012865 0)
(1.0381 0.0137141 0)
(1.03389 0.0133144 0)
(1.03055 0.0119235 0)
(1.02817 0.0100908 0)
(1.02655 0.00816656 0)
(1.02549 0.00633891 0)
(1.02479 0.00469269 0)
(1.02269 0.0032546 0)
(0.986791 0.00198614 0)
(0.744426 0.000825443 0)
(0.171473 6.9597e-05 0)
(0.186594 0.000106867 0)
(0.941554 0.0019969 0)
(1.0464 0.00363448 0)
(1.05431 0.00541769 0)
(1.05369 0.00744727 0)
(1.05238 0.0097126 0)
(1.05037 0.0121278 0)
(1.04747 0.0144993 0)
(1.04346 0.0164699 0)
(1.03828 0.0174553 0)
(1.03292 0.0168498 0)
(1.02866 0.0150259 0)
(1.02563 0.0126837 0)
(1.02356 0.0102498 0)
(1.0222 0.0079508 0)
(1.02131 0.00588768 0)
(1.01907 0.00408792 0)
(0.982865 0.00249852 0)
(0.740312 0.00103894 0)
(0.169806 8.73034e-05 0)
(0.189144 0.000140185 0)
(0.947335 0.00259992 0)
(1.0514 0.00472939 0)
(1.05905 0.00703911 0)
(1.05817 0.00965061 0)
(1.05646 0.0125551 0)
(1.05387 0.0156342 0)
(1.05013 0.0186274 0)
(1.045 0.021067 0)
(1.0384 0.0222125 0)
(1.03161 0.0213403 0)
(1.02623 0.0189673 0)
(1.02239 0.0159787 0)
(1.01977 0.0129004 0)
(1.01805 0.0100045 0)
(1.01694 0.00741005 0)
(1.01453 0.0051455 0)
(0.977929 0.00314429 0)
(0.735132 0.00130573 0)
(0.167715 0.000109133 0)
(0.192502 0.000186965 0)
(0.954808 0.00341564 0)
(1.05781 0.00620295 0)
(1.06511 0.00919141 0)
(1.06389 0.012539 0)
(1.06163 0.016253 0)
(1.05824 0.020173 0)
(1.05339 0.0239413 0)
(1.04681 0.0269448 0)
(1.03842 0.0282539 0)
(1.02985 0.0270171 0)
(1.02308 0.023943 0)
(1.01827 0.0201386 0)
(1.01498 0.016248 0)
(1.01283 0.0126014 0)
(1.01145 0.00933859 0)
(1.00882 0.00648611 0)
(0.971715 0.00395848 0)
(0.728609 0.00163964 0)
(0.165096 0.000136489 0)
(0.196988 0.000257084 0)
(0.964532 0.00456115 0)
(1.06608 0.00823094 0)
(1.07294 0.0120666 0)
(1.07122 0.0163277 0)
(1.06819 0.0210784 0)
(1.06368 0.0260745 0)
(1.05735 0.0308024 0)
(1.04888 0.0344614 0)
(1.03824 0.0359051 0)
(1.02749 0.0341605 0)
(1.01903 0.0301886 0)
(1.01303 0.0253646 0)
(1.00893 0.0204658 0)
(1.00624 0.0158912 0)
(1.00453 0.0118001 0)
(1.00165 0.00820909 0)
(0.963889 0.00500415 0)
(0.720379 0.00206718 0)
(0.161815 0.00017245 0)
(0.203104 0.000366569 0)
(0.977364 0.0062218 0)
(1.07696 0.0110367 0)
(1.08326 0.0158788 0)
(1.08075 0.0212907 0)
(1.07655 0.0274111 0)
(1.07048 0.0337952 0)
(1.06213 0.0396895 0)
(1.05121 0.0440674 0)
(1.03775 0.0455564 0)
(1.02433 0.0431008 0)
(1.01385 0.0379927 0)
(1.0064 0.0319107 0)
(1.0013 0.0257781 0)
(0.997954 0.020076 0)
(0.995835 0.0149834 0)
(0.992641 0.0104847 0)
(0.954016 0.00640259 0)
(0.709938 0.00263771 0)
(0.157685 0.000223011 0)
(0.211669 0.000539114 0)
(0.994611 0.0086989 0)
(1.09165 0.0149511 0)
(1.0971 0.0210208 0)
(1.09332 0.0280077 0)
(1.08737 0.0359849 0)
(1.07907 0.0440971 0)
(1.06796 0.0512985 0)
(1.05383 0.0563438 0)
(1.03686 0.0576672 0)
(1.02025 0.0542151 0)
(1.00735 0.0476944 0)
(0.998149 0.0400947 0)
(0.991794 0.0324783 0)
(0.987578 0.0254232 0)
(0.984893 0.0191436 0)
(0.981274 0.0135694 0)
(0.941555 0.00837058 0)
(0.69665 0.00344497 0)
(0.15246 0.000297074 0)
(0.224071 0.00082492 0)
(1.01804 0.0126513 0)
(1.11144 0.0207255 0)
(1.11557 0.0285342 0)
(1.10983 0.0378172 0)
(1.10135 0.0481689 0)
(1.08986 0.0581782 0)
(1.07501 0.0665834 0)
(1.05677 0.0719979 0)
(1.03552 0.0727404 0)
(1.01512 0.0678912 0)
(0.999368 0.059645 0)
(0.988055 0.0502662 0)
(0.980108 0.040912 0)
(0.974701 0.0322483 0)
(0.971148 0.0245555 0)
(0.966876 0.0177268 0)
(0.925891 0.0111659 0)
(0.67991 0.0046196 0)
(0.145849 0.000398518 0)
(0.242695 0.00137543 0)
(1.05019 0.0195901 0)
(1.13796 0.0299626 0)
(1.13976 0.0404527 0)
(1.13087 0.052801 0)
(1.11854 0.0657061 0)
(1.10255 0.0773761 0)
(1.08284 0.0865097 0)
(1.05959 0.0916849 0)
(1.03337 0.0912104 0)
(1.0087 0.084452 0)
(0.989701 0.0741497 0)
(0.975896 0.062772 0)
(0.965965 0.0514787 0)
(0.958936 0.0409587 0)
(0.954063 0.0315638 0)
(0.948728 0.0231793 0)
(0.906288 0.0149746 0)
(0.659182 0.00626617 0)
(0.137547 0.000519976 0)
(0.270826 0.00270653 0)
(1.09651 0.0332016 0)
(1.17399 0.046558 0)
(1.17071 0.0608175 0)
(1.15619 0.0762707 0)
(1.13783 0.0909622 0)
(1.11576 0.103276 0)
(1.09011 0.112048 0)
(1.06121 0.115936 0)
(1.02964 0.113355 0)
(1.00045 0.104111 0)
(0.978001 0.0914801 0)
(0.961435 0.078012 0)
(0.949164 0.0647689 0)
(0.940069 0.0523538 0)
(0.93335 0.0411386 0)
(0.926289 0.0309538 0)
(0.881351 0.02072 0)
(0.633096 0.00857754 0)
(0.127652 0.000631925 0)
(0.311822 0.0106847 -2.79946e-20)
(1.15773 0.0614247 -2.15723e-20)
(1.21911 0.0786043 5.9947e-21)
(1.20612 0.0958097 0)
(1.1834 0.112245 1.69111e-35)
(1.15733 0.126605 7.77642e-23)
(1.12805 0.137741 -2.08206e-21)
(1.09572 0.144633 0)
(1.06066 0.146105 8.66757e-35)
(1.02335 0.140689 -6.71625e-21)
(0.989287 0.12867 0)
(0.962948 0.113769 -9.82767e-21)
(0.94307 0.0984605 -3.01792e-20)
(0.927754 0.0836674 -1.46476e-20)
(0.915701 0.0699613 -4.63353e-21)
(0.905958 0.0577298 -2.81281e-21)
(0.895741 0.0468383 0)
(0.848478 0.0354402 2.03208e-21)
(0.598429 0.0200695 2.38967e-21)
(0.117571 0.00361298 4.22435e-20)
(0.332753 0.0292683 -5.10945e-20)
(1.20814 0.110166 1.01095e-21)
(1.26006 0.129418 -2.88279e-21)
(1.23836 0.144697 0)
(1.20782 0.159165 5.04698e-21)
(1.1744 0.171472 3.21001e-21)
(1.13815 0.180484 -1.10239e-21)
(1.09916 0.185161 -1.04459e-20)
(1.05764 0.184279 0)
(1.01392 0.17639 2.82483e-20)
(0.973944 0.16218 3.1673e-20)
(0.942524 0.1458 1.02529e-20)
(0.918112 0.129677 4.09896e-20)
(0.898518 0.114536 6.09435e-20)
(0.882307 0.100871 0)
(0.868359 0.0891093 9.13786e-20)
(0.853573 0.0791433 1.34409e-19)
(0.804514 0.068447 1.49794e-19)
(0.573066 0.0472039 -1.74659e-19)
(0.116359 0.0100104 -3.15474e-21)
(0.3212 0.0472589 0)
(1.23775 0.173248 -1.51353e-20)
(1.29039 0.192838 0)
(1.26285 0.203933 2.46632e-20)
(1.22608 0.214211 0)
(1.18652 0.222568 1.39012e-20)
(1.14429 0.228009 5.25899e-22)
(1.0995 0.229362 -1.39082e-20)
(1.0523 0.225395 -3.02938e-21)
(1.00285 0.214707 1.33755e-20)
(0.957643 0.198433 7.37293e-20)
(0.921988 0.180991 -4.56752e-22)
(0.894111 0.164689 -3.07625e-20)
(0.871562 0.150131 -6.00638e-20)
(0.852845 0.137627 7.32195e-20)
(0.836875 0.127395 -1.31545e-19)
(0.821134 0.119302 -1.80806e-20)
(0.777247 0.109162 0)
(0.566306 0.0801144 1.03075e-21)
(0.12201 0.0177391 0)
(0.307181 0.062405 -3.71461e-19)
(1.25047 0.239252 1.54708e-19)
(1.30841 0.260481 8.2523e-20)
(1.27775 0.267639 -1.59924e-20)
(1.23706 0.273258 2.45603e-20)
(1.19317 0.277148 -3.34825e-20)
(1.14641 0.278364 -1.05938e-21)
(1.09696 0.27582 0)
(1.04509 0.268339 -4.93169e-20)
(0.99102 0.25454 0)
(0.941779 0.236017 -3.69844e-20)
(0.903076 0.21742 -5.32002e-20)
(0.872988 0.20083 -3.42871e-20)
(0.848972 0.186557 -4.45563e-20)
(0.829377 0.174656 0)
(0.813015 0.165188 0)
(0.797565 0.157955 -1.2076e-19)
(0.757168 0.147571 2.41053e-20)
(0.558006 0.109239 -1.40971e-20)
(0.122201 0.0243039 -1.62884e-20)
(0.29535 0.0758121 2.69959e-19)
(1.25177 0.304574 0)
(1.31634 0.328314 -2.27838e-19)
(1.28399 0.331813 -5.93744e-20)
(1.24085 0.332965 -4.64571e-20)
(1.19417 0.332434 0)
(1.14432 0.329427 -8.43113e-21)
(1.09152 0.322944 1.0197e-20)
(1.03602 0.311822 2.02808e-20)
(0.978134 0.294785 6.64004e-20)
(0.925541 0.273822 0)
(0.884506 0.253775 -1.15067e-19)
(0.852971 0.236471 -7.42661e-20)
(0.828136 0.221961 -4.48543e-20)
(0.808206 0.210096 2.9646e-19)
(0.79188 0.200729 3.64289e-20)
(0.776896 0.193528 1.74255e-19)
(0.738599 0.18214 -8.44268e-19)
(0.547168 0.135263 5.02652e-19)
(0.120874 0.0302497 -5.99628e-19)
(0.286501 0.0882108 2.80993e-19)
(1.24626 0.366954 -5.29181e-20)
(1.31681 0.394183 3.95145e-20)
(1.28366 0.394295 1.08509e-19)
(1.23902 0.391368 6.7824e-20)
(1.19049 0.386794 3.09013e-21)
(1.13844 0.37985 8.22334e-21)
(1.08312 0.369609 4.86869e-21)
(1.02483 0.354937 -4.36725e-20)
(0.963973 0.334631 0)
(0.908812 0.311067 -4.89213e-20)
(0.866046 0.289288 -2.96581e-21)
(0.833524 0.27088 -8.32055e-20)
(0.808247 0.255685 0)
(0.788258 0.243345 -6.46601e-20)
(0.772129 0.233586 -1.57423e-19)
(0.757567 0.225954 4.36627e-19)
(0.720776 0.213298 -4.36599e-19)
(0.535608 0.158671 6.19373e-19)
(0.118678 0.0355172 -6.37286e-19)
(0.279929 0.0998195 -9.91873e-22)
(1.23672 0.425547 6.37023e-20)
(1.31172 0.456738 1.87461e-19)
(1.27834 0.454063 -6.57591e-20)
(1.23288 0.447561 3.84781e-20)
(1.18319 0.439348 0)
(1.12968 0.428813 2.02738e-20)
(1.07259 0.415085 -9.96031e-22)
(1.01223 0.397072 -1.85644e-20)
(0.949008 0.373587 0)
(0.891698 0.347354 -4.66076e-20)
(0.847498 0.323604 -6.72693e-20)
(0.814214 0.303749 9.09871e-20)
(0.788664 0.287478 -5.87417e-20)
(0.768711 0.27432 -2.85463e-19)
(0.752816 0.263864 1.75956e-19)
(0.738661 0.255561 5.61102e-20)
(0.703083 0.241558 0)
(0.523434 0.179741 -6.02669e-19)
(0.115923 0.0401543 -2.18802e-20)
(0.274896 0.110934 4.50837e-20)
(1.22488 0.48026 -7.2531e-20)
(1.30268 0.515474 -1.01666e-19)
(1.26936 0.510489 -2.01725e-19)
(1.22357 0.500973 1.84618e-19)
(1.17327 0.489593 -1.02651e-19)
(1.11879 0.475816 -4.36608e-20)
(1.0604 0.458884 9.90315e-22)
(0.998455 0.437802 2.10406e-20)
(0.933324 0.411334 -1.5693e-19)
(0.87417 0.382456 -5.82183e-20)
(0.828671 0.356553 0)
(0.794727 0.33498 9.97527e-20)
(0.768966 0.317329 1.24229e-19)
(0.749104 0.303041 1.53555e-19)
(0.733489 0.291662 -1.92923e-19)
(0.719737 0.282487 -5.82131e-20)
(0.685287 0.266999 6.90832e-20)
(0.510663 0.198553 0)
(0.11273 0.0441559 -4.80705e-20)
(0.270823 0.121585 -5.15375e-19)
(1.21192 0.53124 3.31157e-19)
(1.29098 0.570338 1.10508e-19)
(1.25776 0.563433 -1.52604e-19)
(1.21191 0.55132 1.09192e-19)
(1.1613 0.537158 -7.09435e-21)
(1.10626 0.52051 4.44385e-20)
(1.047 0.500698 -3.51635e-22)
(0.983874 0.476848 -3.19616e-20)
(0.917191 0.447693 -5.74065e-23)
(0.856333 0.416277 -1.7035e-19)
(0.809536 0.388136 1.73306e-19)
(0.774883 0.364616 -1.12699e-19)
(0.748885 0.345291 1.41394e-19)
(0.729122 0.329625 0)
(0.713814 0.317086 -1.05639e-19)
(0.700512 0.306896 -2.66312e-21)
(0.667111 0.289781 -3.04646e-19)
(0.497223 0.21525 -4.47673e-20)
(0.109079 0.0474863 0)
(0.267419 0.131656 0)
(1.19838 0.578762 3.53833e-19)
(1.27756 0.621469 2.55598e-19)
(1.24444 0.612935 1.71039e-19)
(1.19864 0.598577 1.06129e-19)
(1.14794 0.58195 0)
(1.09263 0.562733 3.78878e-20)
(1.03285 0.540354 -2.74363e-21)
(0.968855 0.514048 6.4583e-20)
(0.900867 0.482562 -1.8037e-20)
(0.838327 0.448858 -1.25086e-19)
(0.790109 0.418478 8.57543e-20)
(0.754566 0.39282 -4.36892e-21)
(0.728222 0.371547 1.49408e-19)
(0.708516 0.354214 9.88241e-20)
(0.693523 0.340272 -2.31267e-19)
(0.680729 0.328821 2.81071e-19)
(0.648358 0.309972 8.44374e-20)
(0.482995 0.229743 3.47564e-19)
(0.104868 0.0500937 -9.18295e-19)
(0.264531 0.141402 -1.29411e-19)
(1.1846 0.623024 2.03264e-19)
(1.26302 0.669111 -1.56955e-19)
(1.22998 0.659086 -1.96213e-19)
(1.1843 0.642748 0)
(1.13364 0.623929 8.63177e-20)
(1.07826 0.60242 -1.13082e-19)
(1.01826 0.577774 -1.17995e-20)
(0.953725 0.549339 0)
(0.88461 0.515912 -2.8154e-19)
(0.820372 0.480282 3.39972e-19)
(0.770445 0.447762 0)
(0.733705 0.419811 1.35341e-19)
(0.706807 0.396296 -4.69837e-21)
(0.687056 0.37699 -3.157e-19)
(0.672341 0.361354 1.23662e-19)
(0.660071 0.348462 0)
(0.628823 0.327608 4.6097e-19)
(0.467728 0.242156 0)
(0.100135 0.0518659 -4.40566e-19)
(0.26208 0.150763 1.42702e-19)
(1.17105 0.66447 2.3116e-19)
(1.24774 0.713435 -1.63958e-19)
(1.2148 0.702059 0)
(1.1693 0.683934 1.42681e-19)
(1.11877 0.663152 0)
(1.06348 0.639579 1.43482e-19)
(1.00349 0.612912 2.00636e-20)
(0.938741 0.582691 2.95254e-21)
(0.868737 0.547734 -1.37261e-19)
(0.802693 0.510672 3.20663e-20)
(0.750687 0.476239 0)
(0.712295 0.445874 -2.89806e-19)
(0.684481 0.419825 4.98771e-21)
(0.664481 0.398165 0)
(0.64997 0.380517 5.35565e-21)
(0.63826 0.365869 4.23355e-19)
(0.608083 0.342811 -4.09891e-19)
(0.451243 0.252212 1.20179e-19)
(0.0946712 0.0527962 0)
(0.25973 0.159636 0)
(1.15764 0.703278 2.56204e-19)
(1.23219 0.75464 1.89998e-19)
(1.19915 0.742063 -3.90451e-21)
(1.15394 0.722283 8.76476e-20)
(1.10363 0.699717 2.03096e-19)
(1.04856 0.674267 -4.78971e-20)
(0.988749 0.64578 1.3301e-20)
(0.924074 0.614054 2.56189e-20)
(0.853507 0.578078 -2.04773e-19)
(0.785589 0.540163 -6.06034e-21)
(0.731015 0.504192 -1.15289e-19)
(0.69036 0.471407 4.80361e-19)
(0.661108 0.4425 -6.28475e-21)
(0.640544 0.418031 -2.56184e-19)
(0.626138 0.397918 -4.6826e-19)
(0.614955 0.381202 0)
(0.585805 0.355579 0)
(0.433188 0.259892 1.35277e-19)
(0.0883363 0.0527859 -7.76164e-20)
(0.257868 0.168175 1.74099e-19)
(1.14447 0.740052 -5.54589e-19)
(1.21655 0.792932 -2.01856e-19)
(1.18333 0.779269 0)
(1.1384 0.757962 -2.42477e-21)
(1.08838 0.73374 2.39711e-19)
(1.03367 0.706556 -1.5372e-19)
(0.974232 0.676408 -9.48957e-20)
(0.909882 0.643408 1.25239e-20)
(0.839111 0.60694 -1.47567e-19)
(0.769384 0.568871 -2.80887e-19)
(0.711646 0.531929 3.07496e-19)
(0.667978 0.496859 0)
(0.636621 0.464825 -1.16714e-19)
(0.61505 0.437022 -2.85281e-19)
(0.600506 0.413747 -3.4535e-19)
(0.589624 0.394545 -4.20869e-19)
(0.561415 0.365894 1.26746e-19)
(0.413036 0.264921 -7.35082e-20)
(0.0809208 0.0516079 1.6232e-21)
(0.256044 0.176323 0)
(1.13153 0.77451 0)
(1.20093 0.828563 3.444e-21)
(1.16758 0.813851 0)
(1.12287 0.79116 -3.2275e-19)
(1.07317 0.765369 -2.08379e-19)
(1.0189 0.736542 0)
(0.960048 0.704839 -1.91539e-20)
(0.896309 0.670746 -1.54026e-20)
(0.825717 0.634246 -3.2999e-19)
(0.754335 0.596931 0)
(0.692924 0.559765 -1.97622e-19)
(0.645344 0.522753 -7.59569e-21)
(0.610983 0.487391 -6.21483e-21)
(0.587603 0.455539 3.09843e-19)
(0.572549 0.42844 -2.94601e-22)
(0.561759 0.405893 -9.29961e-19)
(0.534855 0.373693 2.81451e-19)
(0.390547 0.266865 8.36737e-20)
(0.0723413 0.0490117 0)
(0.254293 0.184074 -6.29093e-19)
(1.11894 0.806884 -3.32722e-19)
(1.18538 0.861804 -4.9363e-19)
(1.15199 0.846009 6.96802e-19)
(1.10748 0.822029 -5.97585e-19)
(1.05811 0.794751 0)
(1.00434 0.764341 -1.27169e-19)
(0.946221 0.731128 3.87319e-20)
(0.883455 0.696065 6.63949e-21)
(0.813468 0.659953 2.6617e-20)
(0.740609 0.624394 3.40209e-19)
(0.675235 0.588003 -6.66482e-20)
(0.622648 0.549658 -3.03173e-19)
(0.58394 0.511103 -1.4427e-19)
(0.557473 0.47397 1.75834e-19)
(0.541587 0.442681 7.77636e-24)
(0.531595 0.415497 2.6113e-19)
(0.505794 0.378792 -6.19584e-19)
(0.36433 0.265005 7.43361e-19)
(0.0624157 0.0448191 1.04933e-19)
(0.252531 0.191483 2.28841e-19)
(1.1068 0.837218 -1.79111e-19)
(1.1701 0.892797 9.46138e-21)
(1.13662 0.875954 3.87395e-19)
(1.09231 0.850744 1.37266e-19)
(1.04327 0.822033 4.11173e-19)
(0.990042 0.790078 -5.36101e-20)
(0.932772 0.755335 1.81941e-19)
(0.871311 0.719332 8.41996e-20)
(0.802487 0.683991 -1.53206e-19)
(0.728507 0.651167 0)
(0.65902 0.61695 -3.07591e-19)
(0.60029 0.578113 4.47503e-19)
(0.555176 0.536041 0)
(0.524246 0.49379 -3.80378e-19)
(0.506703 0.456811 2.40278e-19)
(0.497407 0.424554 -2.87199e-19)
(0.471738 0.381604 -3.4909e-19)
(0.333356 0.259205 -6.16686e-19)
(0.0508325 0.0387622 -4.73802e-19)
(0.251046 0.198814 -2.48583e-19)
(1.0948 0.865696 1.91098e-19)
(1.15516 0.921685 4.48944e-19)
(1.12156 0.903847 5.28073e-19)
(1.07744 0.877466 -2.86222e-19)
(1.02869 0.847372 2.78703e-19)
(0.976019 0.813879 -1.68377e-19)
(0.919707 0.777541 2.18658e-19)
(0.859842 0.740538 7.20962e-20)
(0.792843 0.706235 1.14765e-19)
(0.718541 0.677098 6.92402e-19)
(0.644847 0.646798 0)
(0.578638 0.607998 0)
(0.525219 0.562613 -1.686e-19)
(0.488809 0.516739 0)
(0.46881 0.470732 5.3019e-19)
(0.458404 0.430726 6.40258e-19)
(0.432794 0.379753 0)
(0.296494 0.247472 0)
(0.0376013 0.0305687 5.30165e-19)
(0.249531 0.205663 2.7117e-19)
(1.08309 0.892469 2.23486e-19)
(1.14063 0.948632 3.19905e-19)
(1.10689 0.929858 -4.63244e-19)
(1.06292 0.902357 -3.14773e-19)
(1.01443 0.870914 -3.63718e-19)
(0.962294 0.835889 2.48442e-19)
(0.906997 0.797835 4.40078e-21)
(0.849019 0.759705 -7.81703e-21)
(0.784554 0.726521 -1.98879e-20)
(0.711022 0.702114 3.42741e-19)
(0.632854 0.67738 0)
(0.558282 0.63991 4.6441e-19)
(0.495654 0.593333 3.59711e-19)
(0.452129 0.54126 9.40631e-19)
(0.42615 0.489015 2.89793e-19)
(0.412023 0.43729 -3.63898e-19)
(0.387084 0.371467 -2.15717e-19)
(0.254692 0.227773 0)
(0.0247317 0.0206616 5.90436e-19)
(0.24846 0.212572 -5.88495e-19)
(1.07177 0.917638 0)
(1.12649 0.973787 3.50929e-19)
(1.09264 0.954125 -3.74311e-19)
(1.04879 0.925565 3.49193e-19)
(1.0005 0.89281 5.22167e-19)
(0.948872 0.856244 -5.65771e-19)
(0.89461 0.816342 8.22209e-21)
(0.838758 0.776871 0)
(0.777654 0.744656 -4.2614e-20)
(0.706123 0.725973 -6.641e-19)
(0.623432 0.708623 4.03278e-20)
(0.539883 0.673864 6.44975e-19)
(0.468808 0.627876 0)
(0.414983 0.572175 6.42401e-19)
(0.3779 0.508056 0)
(0.354476 0.443144 0)
(0.330031 0.352405 -2.47153e-19)
(0.213791 0.190768 0)
(0.0308168 0.0165277 1.61577e-19)
(0.247283 0.219022 -6.35711e-19)
(1.06079 0.94143 0)
(1.11273 0.997347 5.62999e-19)
(1.07882 0.976882 0)
(1.03502 0.947359 -1.85963e-19)
(0.986837 0.913365 0)
(0.935663 0.875303 -4.04687e-20)
(0.882397 0.833446 -3.87148e-20)
(0.828861 0.792356 -1.48854e-20)
(0.772013 0.760817 7.35317e-21)
(0.703738 0.748995 1.39495e-20)
(0.616638 0.741355 3.48152e-19)
(0.524193 0.711528 6.29519e-19)
(0.443901 0.666165 9.2748e-20)
(0.375537 0.60894 5.07855e-19)
(0.319857 0.54294 0)
(0.27607 0.456043 8.08736e-19)
(0.242315 0.315837 -4.89149e-19)
(0.11952 0.148101 5.61018e-19)
(-0.042733 0.382703 -6.78005e-19)
(0.246354 0.225402 5.1375e-19)
(1.04999 0.963974 8.18142e-19)
(1.09922 1.01961 0)
(1.06527 0.998523 4.8302e-21)
(1.02139 0.968236 4.99455e-19)
(0.973124 0.933149 -9.83441e-19)
(0.922263 0.893673 -2.43156e-19)
(0.869856 0.849736 0)
(0.818817 0.806618 -1.50822e-19)
(0.767384 0.775397 7.32135e-21)
(0.704208 0.771945 0)
(0.613134 0.776979 0)
(0.510161 0.755995 5.63135e-19)
(0.414109 0.715653 -2.98214e-19)
(0.328646 0.657764 -5.11686e-19)
(0.256907 0.587851 0)
(0.172348 0.485445 4.08748e-19)
(0.0714699 0.556202 -4.8447e-19)
(0.059243 1.73717 -2.65685e-19)
(0.0947747 2.73132 -3.43582e-19)
(0.245567 0.231024 -3.66948e-19)
(1.03937 0.985355 -1.01746e-18)
(1.08596 1.04051 3.16055e-19)
(1.05207 1.01899 3.05509e-19)
(1.008 0.988088 0)
(0.95946 0.952035 -6.95807e-19)
(0.908862 0.911265 -3.99081e-19)
(0.857118 0.865052 2.46794e-20)
(0.808715 0.819333 -2.41884e-20)
(0.763734 0.787709 -1.04832e-19)
(0.708365 0.793215 2.23644e-19)
(0.616191 0.813511 3.5662e-19)
(0.49739 0.807691 5.68112e-19)
(0.383258 0.766871 -6.99991e-19)
(0.279214 0.709883 -7.62135e-19)
(0.197331 0.658906 0)
(0.10722 0.905875 0)
(0.158394 2.42707 2.10576e-19)
(0.165 3.13792 0)
(0.163411 3.34495 4.58552e-19)
(0.248306 0.236069 0)
(1.02873 1.00548 0)
(1.07291 1.05987 0)
(1.03899 1.03815 8.37012e-20)
(0.994638 1.00681 4.36803e-19)
(0.945702 0.970013 -5.20168e-19)
(0.895466 0.928072 -2.82487e-19)
(0.844114 0.879469 2.72431e-20)
(0.79848 0.83039 -2.83006e-19)
(0.760964 0.797254 -3.91493e-20)
(0.716897 0.811384 2.81283e-19)
(0.627276 0.854478 -4.50724e-20)
(0.490358 0.867244 6.37899e-20)
(0.352732 0.820364 1.01804e-19)
(0.239546 0.779665 1.52822e-21)
(0.170084 1.00562 4.1266e-21)
(0.211604 2.52737 -1.01337e-18)
(0.237864 3.24215 -3.8269e-19)
(0.217632 3.39968 1.73306e-19)
(0.196509 3.42816 -1.77333e-19)
(0.153618 0.179464 1.9783e-19)
(1.01248 1.02605 0)
(1.06067 1.07802 -6.06063e-19)
(1.02651 1.05653 -7.75649e-19)
(0.981872 1.02502 8.93443e-19)
(0.93243 0.987593 5.49073e-19)
(0.881654 0.944312 3.2814e-19)
(0.830908 0.894298 -4.23631e-19)
(0.786881 0.841838 2.73324e-19)
(0.757709 0.803692 0)
(0.731404 0.82313 3.25189e-20)
(0.646786 0.891725 -2.42899e-19)
(0.493216 0.932274 0)
(0.320186 0.890788 9.34241e-20)
(0.224423 0.950988 2.08956e-19)
(0.212813 2.14047 -2.5215e-19)
(0.315773 3.26295 2.71732e-19)
(0.294342 3.41606 1.29199e-19)
(0.248564 3.45053 1.43718e-19)
(0.218132 3.46682 1.69989e-19)
(0.295346 0.280943 -3.43295e-19)
(0.989751 1.03128 0)
(1.04344 1.10237 5.99339e-19)
(1.00749 1.083 7.73643e-19)
(0.96125 1.05108 -8.9328e-19)
(0.91015 1.01221 -5.61638e-19)
(0.857395 0.965601 -4.81717e-19)
(0.806187 0.90964 -3.33366e-20)
(0.767178 0.849196 -3.70979e-19)
(0.756897 0.807158 -4.01044e-19)
(0.760239 0.83877 -1.1459e-20)
(0.689557 0.960117 1.85751e-19)
(0.497975 1.06788 6.10083e-20)
(0.287384 1.13328 -9.51377e-20)
(0.315579 2.02266 -1.93496e-19)
(0.410087 3.22716 1.27574e-19)
(0.408994 3.448 -1.06374e-19)
(0.361349 3.4912 -5.62443e-20)
(0.311002 3.53123 3.11395e-20)
(0.235861 3.52386 6.02574e-22)
(0.284446 0.278586 0)
(0.986322 1.05181 1.57859e-19)
(1.03253 1.12211 -1.18684e-19)
(0.995197 1.10219 -8.57446e-20)
(0.947863 1.07005 -5.78575e-19)
(0.895729 1.03037 5.45552e-19)
(0.84168 0.981825 3.18621e-19)
(0.790002 0.922617 -3.44559e-20)
(0.75353 0.855924 4.51805e-19)
(0.755924 0.805971 -5.30966e-20)
(0.799704 0.842257 4.96608e-19)
(0.758677 1.01436 3.27473e-20)
(0.538406 1.17454 -5.72693e-20)
(0.330158 1.40855 -8.7188e-20)
(0.454495 2.79059 3.39386e-20)
(0.528234 3.40675 -3.59046e-21)
(0.465989 3.52011 -1.05452e-19)
(0.422834 3.56965 -1.49058e-19)
(0.34107 3.61727 2.09988e-19)
(0.260091 3.60112 7.8694e-20)
(0.266875 0.274897 3.8562e-19)
(0.980762 1.07572 1.05353e-18)
(1.02083 1.14369 -3.33685e-19)
(0.981903 1.12298 -3.22502e-19)
(0.933469 1.09043 0)
(0.880017 1.04968 7.76311e-19)
(0.824364 0.998921 4.75688e-19)
(0.771426 0.93536 -3.54657e-20)
(0.736343 0.86002 5.29751e-20)
(0.749282 0.792656 7.16586e-19)
(0.830432 0.827899 4.58037e-19)
(0.854057 1.04446 -1.151e-19)
(0.630223 1.30175 -4.7106e-19)
(0.428191 1.79232 5.73495e-19)
(0.605775 3.19215 2.67715e-19)
(0.629425 3.4968 0)
(0.549805 3.57697 0)
(0.479669 3.66543 2.06419e-19)
(0.392052 3.73497 0)
(0.279672 3.70714 2.75351e-19)
(0.254441 0.275225 -5.59466e-19)
(0.972818 1.10136 -8.71117e-19)
(1.00768 1.16686 0)
(0.967193 1.14505 3.56279e-21)
(0.91752 1.11187 -5.49851e-19)
(0.862556 1.06998 1.13445e-18)
(0.804998 1.01688 3.12066e-19)
(0.750064 0.948308 -3.73945e-20)