/*--------------------------------*- C++ -*----------------------------------*\
| =========                 |                                                 |
| \\      /  F ield         | OpenFOAM: The Open Source CFD Toolbox           |
|  \\    /   O peration     | Version:  2306                                  |
|   \\  /    A nd           | Website:  www.openfoam.com                      |
|    \\/     M anipulation  |                                                 |
\*---------------------------------------------------------------------------*/
FoamFile
{
    version     2.0;
    format      ascii;
    arch        "LSB;label=32;scalar=64";
    class       surfaceScalarField;
    location    "20";
    object      phi;
}
// * * * * * * * * * * * * * * * * * * * * * * * * * * * * * * * * * * * * * //

dimensions      [0 3 -1 0 0 0 0];

oriented        oriented;

internalField   nonuniform List<scalar> 
17370
(
-0.0910969
0.0935416
0.286566
-0.0749488
0.0569469
0.364777
-0.0409282
0.0299417
0.427155
-0.0211819
0.0155763
0.504857
-0.0113201
0.00861694
0.602105
-0.00648509
0.00503712
0.720505
-0.00382693
0.0029651
0.863768
-0.00220805
0.00164282
1.03602
-0.00112548
0.000717803
1.24291
-0.000320524
-5.51988e-05
1.49157
0.000423357
-0.000830477
1.4916
0.00123633
-0.00174851
1.2432
0.00230785
-0.00305806
1.03639
0.00391263
-0.00511362
0.864108
0.0065538
-0.00867883
0.721183
0.0113766
-0.0156267
0.603465
0.0212264
-0.0299795
0.508192
0.0409598
-0.0569723
0.432181
0.0749684
-0.0935533
0.36536
0.0911064
0.197904
-0.127353
0.0881607
0.0391921
-0.364742
0.353805
-0.0726044
0.0835412
-0.446566
0.454373
-0.0816651
0.0738585
-0.520973
0.529527
-0.0657461
0.0571921
-0.612857
0.621022
-0.0494428
0.0412776
-0.727
0.733798
-0.0343469
0.0275489
-0.8675
0.872429
-0.0222003
0.0172715
-1.03853
1.04185
-0.0135683
0.0102444
-1.24469
1.24706
-0.00772211
0.00535427
-1.49282
1.49478
-0.00343231
0.00146627
-1.49267
1.49445
0.000296467
-0.00207204
-1.24409
1.24599
0.00401285
-0.00590911
-1.03758
1.04007
0.00824421
-0.0107337
-0.86615
0.86982
0.0140209
-0.01769
-0.724489
0.729803
0.0225817
-0.0278956
-0.608909
0.615809
0.034657
-0.0415563
-0.515003
0.522727
0.0496901
-0.0574132
-0.439774
0.447865
0.0659399
-0.0740305
-0.375176
0.377021
0.0818107
-0.0836551
-0.256951
0.223491
0.0726813
-0.0392215
-0.0686753
0.058961
0.00971437
-0.051983
0.058657
-0.374559
0.367885
-0.0577535
0.0539161
-0.453829
0.457666
-0.048549
0.0442012
-0.527732
0.53208
-0.0399677
0.0361768
-0.621086
0.624877
-0.0319561
0.0279008
-0.73486
0.738915
-0.0234599
0.0195103
-0.874021
0.87797
-0.0154468
0.0120053
-1.04335
1.04679
-0.00852623
0.00553645
-1.24858
1.25157
-0.0023816
-0.000567307
-1.49682
1.49977
0.00349418
-0.00661373
-1.49733
1.50045
0.00955319
-0.0129684
-1.25007
1.25348
0.0163488
-0.0203416
-1.04573
1.04973
0.0242257
-0.0285951
-0.877357
0.881726
0.0325883
-0.0367472
-0.73936
0.743519
0.0404845
-0.0446617
-0.626389
0.630566
0.0489623
-0.0542841
-0.534983
0.540305
0.0580745
-0.0589212
-0.457982
0.458828
0.0521818
-0.0319121
-0.336513
0.316243
0.00974713
-0.0685832
0.0588361
-0.0532217
0.0491964
0.00402527
-0.0330072
0.043447
-0.358451
0.348012
-0.0471322
0.0465299
-0.459537
0.460139
-0.0435396
0.0402537
-0.536029
0.539315
-0.0365252
0.0331875
-0.628422
0.631759
-0.0296368
0.0265105
-0.7422
0.745326
-0.0231931
0.0200915
-0.88146
0.884562
-0.0165957
0.0133167
-1.05022
1.0535
-0.0097021
0.00637707
-1.2548
1.25813
-0.00268114
-0.000840735
-1.50309
1.50661
0.004346
-0.00799199
-1.50392
1.50757
0.0112442
-0.014763
-1.25703
1.26055
0.017949
-0.0213407
-1.05345
1.05684
0.0243488
-0.0275666
-0.88532
0.888538
0.0306041
-0.03406
-0.747039
0.750495
0.0373173
-0.0409646
-0.634626
0.638273
0.0441828
-0.0470983
-0.544585
0.5475
0.0476242
-0.0438348
-0.457072
0.453283
0.0332747
-0.0160876
-0.297006
0.279819
0.00406582
-0.0530608
0.048995
-0.0461046
0.0436227
0.00248196
-0.0226053
0.0328331
-0.337457
0.327229
-0.0385216
0.0394814
-0.459846
0.458886
-0.0382753
0.0360213
-0.541939
0.544193
-0.0334295
0.0309014
-0.634714
0.637242
-0.0279257
0.025108
-0.748354
0.751171
-0.0219411
0.019032
-0.887546
0.890455
-0.0158167
0.012828
-1.05661
1.05959
-0.0094425
0.00621363
-1.26143
1.26466
-0.00248692
-0.00115147
-1.51023
1.51386
0.00476459
-0.00841848
-1.51125
1.51491
0.011554
-0.0148155
-1.26396
1.26722
0.0176795
-0.0207509
-1.06002
1.06309
0.0235295
-0.0265587
-0.891704
0.894733
0.0292552
-0.0321054
-0.753718
0.756568
0.0345243
-0.037005
-0.641292
0.643773
0.0391687
-0.0402616
-0.54935
0.550443
0.0391879
-0.0333389
-0.448216
0.442367
0.0229395
-0.0100191
-0.264868
0.251948
0.00253081
-0.0458587
0.0433279
-0.0415753
0.0398552
0.00172009
-0.016325
0.0253409
-0.317547
0.308532
-0.0317438
0.0337721
-0.45736
0.455331
-0.0332947
0.0315897
-0.546165
0.54787
-0.0293926
0.0273216
-0.639465
0.641536
-0.0249938
0.0227611
-0.753693
0.755926
-0.0201379
0.0175916
-0.893213
0.895759
-0.0146429
0.0118363
-1.0625
1.0653
-0.00862251
0.00554556
-1.2678
1.27088
-0.0019722
-0.00152517
-1.51746
1.52095
0.00498921
-0.00846584
-1.51848
1.52196
0.011419
-0.0144727
-1.27036
1.27342
0.0171181
-0.0198835
-1.06603
1.06879
0.0222584
-0.0246894
-0.897498
0.899929
0.026757
-0.0289217
-0.759017
0.761182
0.0308506
-0.032904
-0.645988
0.648041
0.0344798
-0.0348036
-0.551097
0.551421
0.032604
-0.0259723
-0.436026
0.429394
0.0167323
-0.00703734
-0.240771
0.231076
0.00177902
-0.0412266
0.0394476
-0.0383941
0.037146
0.00124815
-0.0120447
0.0195892
-0.30024
0.292696
-0.0260103
0.0287901
-0.452883
0.450103
-0.0289915
0.0279231
-0.549278
0.550346
-0.0260484
0.0242449
-0.643484
0.645288
-0.0221928
0.0202202
-0.757991
0.759963
-0.0179369
0.0157064
-0.898105
0.900335
-0.013083
0.0105127
-1.068
1.07057
-0.00751832
0.00462895
-1.27388
1.27677
-0.00128724
-0.00195566
-1.52433
1.52757
0.00516013
-0.00838073
-1.52532
1.52854
0.0111088
-0.0138897
-1.27635
1.27913
0.0162454
-0.0186283
-1.07135
1.07374
0.0206392
-0.0226897
-0.902117
0.904167
0.024452
-0.0262896
-0.763177
0.765014
0.0279154
-0.0296173
-0.649928
0.65163
0.0305033
-0.030094
-0.551383
0.550973
0.0270799
-0.0203583
-0.422644
0.415922
0.0125358
-0.00518975
-0.222642
0.215296
0.00131958
-0.0379213
0.0366017
-0.0360874
0.0351985
0.000888922
-0.00874412
0.0147526
-0.28592
0.279911
-0.0206193
0.0237023
-0.447109
0.444026
-0.024453
0.0238891
-0.551112
0.551676
-0.0223765
0.020841
-0.646946
0.648482
-0.0190522
0.0173069
-0.761828
0.763574
-0.0152794
0.0133147
-0.902457
0.904422
-0.0110319
0.00880103
-1.07298
1.07521
-0.00617167
0.00357875
-1.27952
1.28212
-0.000510628
-0.00250632
-1.5307
1.53372
0.00547102
-0.00838139
-1.53162
1.53453
0.0107658
-0.0131147
-1.28172
1.28407
0.0150697
-0.0170373
-1.07593
1.0779
0.0187145
-0.0204366
-0.90607
0.907792
0.021921
-0.0234413
-0.766688
0.768208
0.0247516
-0.0260282
-0.653122
0.654398
0.0263616
-0.025326
-0.550221
0.549186
0.021931
-0.0156831
-0.409374
0.403127
0.00933676
-0.00382192
-0.208918
0.203403
0.000976133
-0.0354643
0.0344882
-0.0344535
0.0338341
0.00061943
-0.00613929
0.0107152
-0.274639
0.270063
-0.0157144
0.018736
-0.440946
0.437925
-0.0198269
0.0195021
-0.552112
0.552437
-0.0183127
0.0169808
-0.649923
0.651255
-0.0154384
0.0139764
-0.765199
0.766661
-0.0122736
0.0106112
-0.906228
0.907891
-0.00864221
0.00670464
-1.07727
1.07921
-0.00441311
0.00215207
-1.28453
1.28679
0.000528695
-0.0031577
-1.53657
1.53919
0.00571735
-0.00819006
-1.53722
1.53969
0.0101874
-0.0121412
-1.2862
1.28815
0.0137311
-0.0153089
-1.07966
1.08124
0.016614
-0.0179313
-0.90934
0.910657
0.0190605
-0.0202595
-0.769572
0.770771
0.0213019
-0.0221756
-0.655466
0.656339
0.0221946
-0.0207247
-0.547911
0.546441
0.0173034
-0.0118354
-0.397252
0.391784
0.00685456
-0.0027914
-0.198651
0.194587
0.000727056
-0.033647
0.0329199
-0.0333381
0.0329742
0.000363919
-0.00375829
0.0069601
-0.266172
0.26297
-0.0109561
0.0137628
-0.434995
0.432189
-0.0151375
0.0151513
-0.552621
0.552607
-0.0143925
0.0134116
-0.652436
0.653417
-0.0122594
0.0111354
-0.767943
0.769067
-0.00979543
0.00841812
-0.909402
0.910779
-0.00672021
0.00498864
-1.08104
1.08277
-0.00289161
0.000808833
-1.28895
1.29103
0.00162303
-0.00397027
-1.54165
1.544
0.00623538
-0.00842658
-1.54201
1.5442
0.0101689
-0.0118168
-1.28996
1.29161
0.0131115
-0.014304
-1.08262
1.08382
0.0152259
-0.0160982
-0.911711
0.912583
0.0168068
-0.0175218
-0.771743
0.772458
0.0181226
-0.0184683
-0.656991
0.657337
0.0180553
-0.0161854
-0.544786
0.542917
0.0128728
-0.0083077
-0.38675
0.382184
0.00462376
-0.00185838
-0.191184
0.188419
0.000496421
-0.0323064
0.0318099
-0.0327403
0.0326234
0.000116816
-0.00171493
0.00364088
-0.260437
0.258511
-0.00650579
0.00892657
-0.429542
0.427121
-0.010541
0.0110136
-0.552354
0.551881
-0.0108228
0.0102288
-0.654193
0.654787
-0.00937163
0.00845721
-0.770107
0.771021
-0.00729185
0.00605614
-0.91208
0.913316
-0.0045271
0.00296319
-1.08439
1.08596
-0.00108274
-0.000764822
-1.29298
1.29483
0.00293112
-0.00501239
-1.54622
1.5483
0.00698449
-0.00882548
-1.54623
1.54807
0.010248
-0.0115682
-1.29309
1.29441
0.0125701
-0.0134671
-1.08486
1.08576
0.0141179
-0.0146733
-0.913319
0.913874
0.0150569
-0.0153519
-0.77294
0.773235
0.0154656
-0.0151032
-0.65731
0.656947
0.0141112
-0.0118744
-0.540826
0.53859
0.00884339
-0.00530068
-0.378124
0.374582
0.00279068
-0.00107911
-0.186237
0.184526
0.000282619
-0.0314315
0.0311489
-0.0325918
0.0326191
-2.72353e-05
-0.000538122
0.00157765
-0.257083
0.256044
-0.00339167
0.00515567
-0.425001
0.423237
-0.00655126
0.00711412
-0.551309
0.550747
-0.007126
0.00673539
-0.655265
0.655656
-0.00609012
0.00535803
-0.771862
0.772594
-0.00440093
0.00336963
-0.914466
0.915497
-0.00205298
0.000709082
-1.08741
1.08875
0.00092411
-0.00254892
-1.29655
1.29817
0.00446565
-0.00629798
-1.55024
1.55207
0.0079846
-0.00946874
-1.54974
1.55122
0.01052
-0.0114219
-1.29554
1.29644
0.0120267
-0.0124639
-1.08645
1.08688
0.0127222
-0.0128778
-0.914216
0.914372
0.0129523
-0.0129697
-0.773352
0.773369
0.0128168
-0.0121559
-0.656383
0.655722
0.0109755
-0.0088293
-0.53635
0.534203
0.0063191
-0.00366305
-0.371527
0.368871
0.00188908
-0.000712561
-0.183153
0.181977
0.000177041
-0.0309396
0.0307626
-0.0326877
0.0327796
-9.18974e-05
-3.6598e-05
0.000635128
-0.255271
0.254672
-0.00179318
0.00296637
-0.421806
0.420633
-0.00389313
0.00420949
-0.550319
0.550002
-0.00407403
0.00366827
-0.656041
0.656447
-0.00300181
0.00231337
-0.773352
0.77404
-0.00145225
0.000538704
-0.916447
0.917361
0.000595367
-0.00176029
-1.08993
1.09109
0.00318278
-0.00461588
-1.29965
1.30108
0.0062987
-0.00787418
-1.55375
1.55533
0.00927562
-0.0104336
-1.55256
1.55372
0.0111837
-0.0117491
-1.29713
1.2977
0.012094
-0.0123114
-1.08719
1.0874
0.0123804
-0.0123269
-0.914384
0.91433
0.012158
-0.0118662
-0.773195
0.772903
0.0114638
-0.0107092
-0.655011
0.654256
0.00955114
-0.00762891
-0.532205
0.530282
0.00548938
-0.00325789
-0.366501
0.364269
0.00173249
-0.000674452
-0.180906
0.179848
0.000170541
-0.0306068
0.0304363
-0.032879
0.0329931
-0.000114028
0.000230733
0.000179942
-0.254184
0.253773
-0.00111932
0.00212892
-0.419615
0.418606
-0.00293364
0.00314735
-0.549803
0.549589
-0.00288991
0.00232301
-0.65696
0.657527
-0.00162342
0.000915574
-0.774818
0.775526
2.50783e-06
-0.0010006
-0.918269
0.919267
0.00227495
-0.00358513
-1.09221
1.09352
0.00516572
-0.00668132
-1.30245
1.30397
0.00837206
-0.0098947
-1.5568
1.55832
0.0112073
-0.0122526
-1.5548
1.55585
0.0129003
-0.013333
-1.29817
1.29861
0.0134726
-0.0134121
-1.08752
1.08746
0.0132435
-0.0130509
-0.914194
0.914002
0.0128439
-0.0125001
-0.772461
0.772117
0.0120648
-0.011228
-0.653477
0.65264
0.00995813
-0.00791247
-0.52841
0.526365
0.00570572
-0.00344099
-0.362087
0.359822
0.00188295
-0.000769515
-0.178791
0.177677
0.000208265
-0.0302662
0.0300579
-0.033123
0.0332703
-0.000147301
0.000534396
-0.000319542
-0.253449
0.253234
-0.00048531
0.0015834
-0.417596
0.416498
-0.00272055
0.00326408
-0.549271
0.548727
-0.00323686
0.00288753
-0.658037
0.658387
-0.00220135
0.00137918
-0.776443
0.777265
-0.000228806
-0.00109982
-0.920361
0.921689
0.00279496
-0.00452573
-1.09491
1.09664
0.00656888
-0.00849742
-1.30558
1.30751
0.0106229
-0.0125056
-1.55994
1.56182
0.0141224
-0.0154307
-1.55702
1.55833
0.0162533
-0.016859
-1.29912
1.29973
0.017169
-0.0172531
-1.08735
1.08743
0.0171505
-0.0167988
-0.913622
0.91327
0.0162851
-0.015649
-0.771643
0.771007
0.0148447
-0.0134045
-0.651638
0.650198
0.011457
-0.00872859
-0.524116
0.521387
0.00612684
-0.00367382
-0.35751
0.355057
0.00204948
-0.00087677
-0.176562
0.175389
0.000253455
-0.0298503
0.0295968
-0.0334451
0.0336465
-0.00020145
0.00107311
-0.00120986
-0.253211
0.253347
0.000719694
0.000320548
-0.415457
0.414417
-0.00178702
0.0028667
-0.547903
0.546823
-0.0033452
0.00326955
-0.658535
0.65861
-0.00277836
0.00198307
-0.778287
0.779083
-0.000601908
-0.00106508
-0.923117
0.924784
0.00325339
-0.00547026
-1.09849
1.10071
0.00807399
-0.0105641
-1.30963
1.31212
0.0133237
-0.015778
-1.56394
1.5664
0.017897
-0.019656
-1.55989
1.56164
0.0207837
-0.0215795
-1.3005
1.30129
0.0220498
-0.0222994
-1.08753
1.08778
0.0222031
-0.0217069
-0.912736
0.912239
0.0209896
-0.0197931
-0.770087
0.76889
0.0180616
-0.0155135
-0.648275
0.645727
0.0125946
-0.00913489
-0.518371
0.514912
0.00626322
-0.00377729
-0.352649
0.350163
0.00216534
-0.000964833
-0.17425
0.17305
0.000291362
-0.0293525
0.0290612
-0.0338992
0.0341836
-0.000284394
0.00170778
-0.00231501
-0.253679
0.254286
0.00245357
-0.00186281
-0.413655
0.413064
0.000548165
0.000758921
-0.545581
0.544274
-0.00176063
0.0019787
-0.658518
0.6583
-0.0015797
0.000712107
-0.78012
0.780987
0.000883369
-0.00285534
-0.926485
0.928457
0.00539574
-0.00794438
-1.10296
1.10551
0.0109318
-0.0138056
-1.31474
1.31761
0.0169964
-0.0197932
-1.56901
1.57181
0.0221655
-0.0240872
-1.56354
1.56547
0.0252831
-0.0260972
-1.3022
1.30302
0.0264536
-0.0264291
-1.08783
1.08781
0.0260418
-0.0252805
-0.911482
0.91072
0.0240825
-0.0220716
-0.767231
0.76522
0.0194975
-0.0161045
-0.642768
0.639375
0.0126672
-0.00902318
-0.511431
0.507787
0.0062375
-0.00389287
-0.347855
0.34551
0.00231837
-0.00106815
-0.171893
0.170643
0.000330009
-0.0287823
0.0284523
-0.0345406
0.0349348
-0.000394166
0.00246126
-0.00357433
-0.255141
0.256254
0.00444391
-0.00466202
-0.412984
0.413202
0.00410218
-0.00325756
-0.54328
0.542436
0.00245301
-0.00217346
-0.657939
0.657659
0.00261226
-0.00369912
-0.78202
0.783106
0.00553285
-0.00762825
-0.930333
0.932428
0.0102759
-0.0129238
-1.10798
1.11062
0.0160112
-0.0189273
-1.32044
1.32336
0.0220869
-0.0247592
-1.57453
1.5772
0.0268859
-0.0284404
-1.56725
1.5688
0.0292622
-0.0296439
-1.30373
1.30411
0.0295404
-0.0290053
-1.08745
1.08691
0.0281696
-0.0267572
-0.909534
0.908122
0.0249138
-0.0222822
-0.76275
0.760118
0.0193664
-0.0157742
-0.635878
0.632286
0.0124229
-0.00904981
-0.504429
0.501056
0.00649805
-0.00425619
-0.343373
0.341131
0.0026276
-0.00123845
-0.169413
0.168024
0.000386572
-0.0281354
0.0277488
-0.0354133
0.03595
-0.000536686
0.00337165
-0.00502701
-0.257692
0.259347
0.00664796
-0.00768441
-0.413863
0.4149
0.00814484
-0.00818374
-0.542268
0.542307
0.00819518
-0.00850769
-0.657723
0.658036
0.00941192
-0.0107774
-0.784187
0.785552
0.0127703
-0.0149387
-0.934325
0.936493
0.0176201
-0.0202611
-1.11311
1.11575
0.0232667
-0.0259821
-1.32607
1.32879
0.0287644
-0.0309457
-1.57958
1.58176
0.0324715
-0.0333046
-1.57
1.57083
0.0334364
-0.0330099
-1.30418
1.30375
0.0321873
-0.0308839
-1.08589
1.08459
0.0293257
-0.0271992
-0.906153
0.904027
0.0249232
-0.0220672
-0.757211
0.754355
0.0191612
-0.0157979
-0.628862
0.625498
0.0127692
-0.00970944
-0.498089
0.495029
0.00727388
-0.00494247
-0.339058
0.336727
0.00311263
-0.00148034
-0.166624
0.164992
0.000461951
-0.027377
0.026915
-0.0365724
0.0372735
-0.000701071
0.00441021
-0.00665285
-0.261336
0.263579
0.00901922
-0.0108491
-0.416392
0.418222
0.0122727
-0.0132345
-0.543161
0.544123
0.0142174
-0.0153563
-0.658875
0.660014
0.0170269
-0.0189212
-0.786942
0.788837
0.0213445
-0.0237956
-0.938531
0.940982
0.026673
-0.0293783
-1.11822
1.12092
0.0323018
-0.0347678
-1.33124
1.3337
0.0370697
-0.0386121
-1.58355
1.58509
0.0393501
-0.0392443
-1.57118
1.57107
0.0385008
-0.0371605
-1.30289
1.30155
0.0355563
-0.0334196
-1.08272
1.08059
0.0311768
-0.0285243
-0.901455
0.898803
0.0259487
-0.0229856
-0.75127
0.748307
0.0201647
-0.0170193
-0.622329
0.619183
0.0141843
-0.0111943
-0.492338
0.489348
0.00862519
-0.00598167
-0.334503
0.33186
0.00381027
-0.00181791
-0.163316
0.161323
0.000566959
-0.026467
0.0259001
-0.0380732
0.0390173
-0.000944103
0.00585337
-0.00883588
-0.266181
0.269164
0.0120557
-0.0146796
-0.42059
0.423214
0.0169913
-0.0188019
-0.545957
0.547768
0.0207406
-0.0227766
-0.661726
0.663762
0.0253484
-0.0279609
-0.790802
0.793414
0.0310447
-0.0339713
-0.943349
0.946276
0.0372151
-0.0401016
-1.12348
1.12636
0.0430392
-0.0453292
-1.33592
1.33821
0.0472038
-0.048115
-1.58621
1.58712
0.0480474
-0.0469795
-1.57043
1.56936
0.0453294
-0.0430052
-1.2997
1.29737
0.0405493
-0.0376202
-1.07796
1.07503
0.0348099
-0.0316678
-0.895716
0.892573
0.0287817
-0.0256334
-0.745036
0.741888
0.0227558
-0.0195958
-0.616103
0.612943
0.0166862
-0.0134571
-0.486644
0.483415
0.0105189
-0.00736342
-0.32929
0.326134
0.00470366
-0.00224231
-0.159275
0.156814
0.000697576
-0.0253556
0.024658
-0.0400527
0.0413412
-0.00128843
0.00785755
-0.0118131
-0.272513
0.276469
0.0160615
-0.0195396
-0.426475
0.429953
0.0227232
-0.0253613
-0.550617
0.553255
0.028288
-0.0312675
-0.666413
0.669392
0.0348625
-0.0383438
-0.796115
0.799596
0.0422651
-0.0458279
-0.949166
0.952729
0.0496081
-0.0528142
-1.12915
1.13236
0.0558866
-0.058083
-1.34027
1.34246
0.0595865
-0.0598884
-1.58761
1.58791
0.05902
-0.0570037
-1.56776
1.56575
0.0544563
-0.0511415
-1.29451
1.2912
0.0478379
-0.0440905
-1.07161
1.06786
0.0406402
-0.0369092
-0.888922
0.885191
0.0335923
-0.0300803
-0.738278
0.734766
0.0269365
-0.0234961
-0.60966
0.606219
0.0202579
-0.01653
-0.480391
0.476663
0.0129941
-0.00912731
-0.323033
0.319166
0.00583314
-0.00277379
-0.154301
0.151242
0.000859135
-0.0239995
0.0231404
-0.0427087
0.044504
-0.00179531
0.0107412
-0.0160072
-0.280783
0.286049
0.0215394
-0.0259961
-0.43433
0.438786
0.0301415
-0.0336945
-0.55723
0.560783
0.0377445
-0.0418152
-0.673033
0.677104
0.0465994
-0.0510899
-0.803158
0.807649
0.0559917
-0.0603101
-0.956274
0.960592
0.0647337
-0.0683236
-1.13546
1.13905
0.0715609
-0.0736574
-1.34441
1.34651
0.0747501
-0.0743833
-1.58776
1.58739
0.0726426
-0.0695987
-1.56316
1.56011
0.0661023
-0.0617662
-1.28734
1.283
0.0575812
-0.0529315
-1.06358
1.05893
0.0487292
-0.0442623
-0.880847
0.87638
0.040356
-0.0362799
-0.730606
0.72653
0.0326647
-0.0287033
-0.602441
0.59848
0.0249133
-0.0204601
-0.473033
0.468579
0.0161257
-0.011279
-0.315382
0.310535
0.00715512
-0.00336427
-0.148176
0.144385
0.00102761
-0.0223437
0.0213161
-0.0463582
0.0489766
-0.00261838
0.0151772
-0.0222646
-0.291703
0.29879
0.0294531
-0.0351124
-0.444661
0.450321
0.0404207
-0.0450925
-0.566083
0.570755
0.0505422
-0.0559258
-0.681852
0.687236
0.0620836
-0.0676929
-0.812189
0.817798
0.0736416
-0.0787227
-0.964867
0.969948
0.0837427
-0.0876328
-1.14248
1.14637
0.0909094
-0.0927662
-1.34827
1.35012
0.093272
-0.0920634
-1.58646
1.58526
0.0892865
-0.0850595
-1.5564
1.55218
0.0804986
-0.0750419
-1.27806
1.27261
0.0698819
-0.0642126
-1.05368
1.04801
0.0591362
-0.0537814
-0.871189
0.865834
0.0491307
-0.0443057
-0.721615
0.71679
0.0400399
-0.0353496
-0.59396
0.58927
0.0307988
-0.0253612
-0.464106
0.458669
0.0199904
-0.0139432
-0.305854
0.299807
0.00878589
-0.00409332
-0.140638
0.135945
0.0012358
-0.0203569
0.0191211
-0.0515785
0.0556508
-0.00407225
0.0224565
-0.0321817
-0.30642
0.316145
0.0416239
-0.0489019
-0.45833
0.465608
0.0556848
-0.0618012
-0.577722
0.583838
0.069029
-0.0759225
-0.693268
0.700161
0.0835112
-0.0901826
-0.823394
0.830066
0.0970249
-0.102664
-0.974885
0.980524
0.107995
-0.111889
-1.14993
1.15382
0.114854
-0.116143
-1.35145
1.35273
0.115707
-0.113353
-1.58331
1.58095
0.10928
-0.103651
-1.54716
1.54153
0.0978657
-0.0911428
-1.26646
1.25974
0.0848878
-0.078077
-1.04166
1.03485
0.0720173
-0.0656476
-0.85965
0.853281
0.0601269
-0.0544054
-0.710936
0.705214
0.0493466
-0.0437456
-0.583758
0.578158
0.0382407
-0.0315495
-0.453074
0.446383
0.0248625
-0.0172937
-0.293976
0.286408
0.0108244
-0.0049793
-0.131385
0.12554
0.00147549
-0.0179828
0.0165074
-0.0594827
0.0666836
-0.0072009
0.0358969
-0.0498018
-0.327128
0.341033
0.0624797
-0.0716862
-0.476554
0.48576
0.0801039
-0.0878836
-0.592901
0.600681
0.0969486
-0.105188
-0.707466
0.715705
0.113832
-0.121113
-0.83652
0.843801
0.128279
-0.133902
-0.985757
0.99138
0.138905
-0.142202
-1.15708
1.16038
0.144232
-0.144391
-1.35318
1.35334
0.142486
-0.138549
-1.5776
1.57366
0.132843
-0.125559
-1.53494
1.52766
0.118369
-0.110237
-1.25224
1.2441
0.102777
-0.0947361
-1.0273
1.01925
0.0876248
-0.0801822
-0.845999
0.838556
0.0737407
-0.0670603
-0.698273
0.691592
0.0611351
-0.0544965
-0.571442
0.564804
0.0477574
-0.0394486
-0.439302
0.430993
0.0310718
-0.0215824
-0.279024
0.269534
0.0134346
-0.00610014
-0.120046
0.112711
0.00173724
-0.0151856
0.0134484
-0.0735921
0.0771648
-0.00357269
0.0258726
-0.0379996
-0.357957
0.370084
0.0489939
-0.0576164
-0.500096
0.508718
0.0665315
-0.0760602
-0.611449
0.620977
0.0867415
-0.096294
-0.723531
0.733084
0.106916
-0.116289
-0.850293
0.859666
0.126013
-0.134342
-0.996068
1.0044
0.14261
-0.149213
-1.16257
1.16918
0.155067
-0.158854
-1.35228
1.35607
0.160807
-0.160063
-1.56843
1.56769
0.156492
-0.150503
-1.51922
1.51323
0.143503
-0.134657
-1.23508
1.22623
0.126058
-0.115796
-1.01042
1.00016
0.10647
-0.096324
-0.830155
0.820009
0.0873532
-0.0778909
-0.683538
0.674075
0.0691704
-0.0597162
-0.556599
0.547145
0.0504274
-0.0387754
-0.422022
0.41037
0.0280216
-0.0172394
-0.25999
0.249208
0.00926419
-0.0034432
-0.105993
0.100172
0.000695205
-0.012
0.0113048
-0.0844313
0.0816734
0.00275783
0.0035818
-0.0108676
-0.385093
0.392378
0.0191672
-0.0259488
-0.52208
0.528862
0.0343236
-0.0426818
-0.631449
0.639807
0.0523589
-0.0611756
-0.742487
0.751304
0.0705405
-0.0790169
-0.868554
0.877031
0.0878286
-0.0950952
-1.01244
1.01971
0.102519
-0.108116
-1.17563
1.18122
0.113016
-0.115876
-1.35958
1.36244
0.116649
-0.114989
-1.56608
1.56442
0.11063
-0.103988
-1.50636
1.49971
0.0963457
-0.0869959
-1.21681
1.20746
0.0780386
-0.0678478
-0.989491
0.979301
0.0583581
-0.0479152
-0.808744
0.798301
0.0386875
-0.0293862
-0.662035
0.652733
0.0215459
-0.0135773
-0.534523
0.526554
0.0066186
-0.00033258
-0.398041
0.391755
-0.00315846
0.00475166
-0.237528
0.235935
-0.00454201
0.00290744
-0.0934198
0.0950543
-0.00121805
-0.00987972
0.0110978
-0.0844787
0.0812717
0.00320705
-0.00473324
0.00127484
-0.402786
0.406245
0.00395299
-0.00930427
-0.539589
0.54494
0.0163876
-0.0236484
-0.648758
0.656019
0.0319318
-0.0395058
-0.759572
0.767146
0.0477754
-0.0551188
-0.884869
0.892212
0.0625359
-0.0690266
-1.02682
1.03331
0.0754963
-0.0804945
-1.18645
1.19145
0.0844823
-0.0866072
-1.36474
1.36686
0.0870333
-0.0850432
-1.5622
1.56021
0.0805563
-0.0740342
-1.49259
1.48607
0.0667768
-0.0582158
-1.19813
1.18957
0.0497509
-0.0404527
-0.96893
0.959631
0.0318516
-0.0224596
-0.788016
0.778624
0.0143728
-0.00614576
-0.642133
0.633906
-0.000553911
0.0070142
-0.515959
0.509499
-0.0115957
0.0144913
-0.383623
0.380728
-0.0144597
0.011949
-0.230865
0.233376
-0.00861214
0.00462772
-0.0948894
0.0988738
-0.00162328
-0.0111975
0.0128208
-0.0825444
0.0794748
0.00306963
-0.00758158
0.00630082
-0.413833
0.415114
-0.00314307
-0.0009858
-0.5533
0.557429
0.00719956
-0.0132668
-0.663197
0.669264
0.0203311
-0.0268259
-0.774439
0.780934
0.0338856
-0.0401867
-0.899156
0.905457
0.0469475
-0.0525045
-1.03945
1.04501
0.0582514
-0.062299
-1.19612
1.20017
0.0658587
-0.0677535
-1.3689
1.3708
0.0679655
-0.0658403
-1.55801
1.55588
0.0618503
-0.0560982
-1.47932
1.47357
0.0496932
-0.0418865
-1.18113
1.17333
0.0345754
-0.0266389
-0.950417
0.94248
0.0192383
-0.011527
-0.769564
0.761852
0.00457574
0.00224715
-0.624849
0.618026
-0.00770632
0.0124359
-0.501116
0.496386
-0.0153771
0.016848
-0.374741
0.37327
-0.0157691
0.0121588
-0.231484
0.235094
-0.0085323
0.00439243
-0.100505
0.104645
-0.00147946
-0.013321
0.0148004
-0.0805643
0.0779925
0.0025718
-0.00801003
0.00803992
-0.421008
0.420978
-0.00561981
0.00235712
-0.564503
0.567766
0.00265591
-0.00805092
-0.675439
0.680834
0.0139885
-0.0197268
-0.787021
0.792759
0.0258724
-0.0313872
-0.911445
0.916959
0.0372608
-0.0422979
-1.05052
1.05556
0.0472808
-0.0511541
-1.20419
1.20806
0.0543784
-0.0561288
-1.37247
1.37422
0.0563999
-0.0545634
-1.55382
1.55199
0.0511029
-0.0459477
-1.46748
1.46232
0.0404195
-0.0338552
-1.16588
1.15932
0.0276583
-0.0208466
-0.934687
0.927876
0.0147526
-0.00834054
-0.75425
0.747838
0.00281919
0.00263565
-0.610869
0.605414
-0.00679634
0.0102057
-0.489825
0.486416
-0.0122206
0.0128875
-0.368994
0.368327
-0.011595
0.00868542
-0.233915
0.236824
-0.00592574
0.00297093
-0.105729
0.108683
-0.00103581
-0.0151403
0.0161761
-0.0789436
0.076798
0.00214557
-0.00743553
0.00771109
-0.425767
0.425491
-0.00632787
0.00355243
-0.573318
0.576094
0.00109317
-0.00572339
-0.685885
0.690515
0.0108993
-0.0159352
-0.797955
0.80299
0.0214497
-0.0264412
-0.922256
0.927248
0.0319025
-0.0364176
-1.06041
1.06492
0.0410434
-0.0446837
-1.21177
1.21541
0.0477138
-0.0494157
-1.37585
1.37755
0.0497955
-0.0486218
-1.55026
1.54909
0.0456202
-0.0412881
-1.457
1.45267
0.0364748
-0.0307858
-1.15289
1.1472
0.0256733
-0.0197652
-0.921287
0.915379
0.0145877
-0.00934424
-0.741652
0.736409
0.00480573
-0.000361534
-0.599879
0.595434
-0.00303064
0.00590061
-0.481365
0.478495
-0.00724402
0.00769927
-0.364991
0.364535
-0.00705254
0.00513171
-0.23519
0.237111
-0.00336996
0.00173013
-0.108725
0.110364
-0.00063367
-0.0161193
0.016753
-0.077796
0.0761453
0.00165076
-0.00626296
0.00669406
-0.429261
0.42883
-0.00543234
0.00326963
-0.58115
0.583313
0.000913738
-0.00511877
-0.695027
0.699232
0.0100762
-0.0144757
-0.807826
0.812225
0.0193897
-0.0238892
-0.932318
0.936817
0.0291554
-0.0333568
-1.06955
1.07375
0.0375998
-0.0411869
-1.21897
1.22255
0.0445476
-0.0463056
-1.37939
1.38115
0.0470083
-0.0460921
-1.54767
1.54676
0.0438379
-0.039846
-1.4483
1.44431
0.0357688
-0.0309167
-1.14154
1.13669
0.0263434
-0.0213609
-0.9097
0.904717
0.0168031
-0.0120543
-0.731085
0.726336
0.00831077
-0.0043368
-0.590711
0.586737
0.00120825
0.00128478
-0.474312
0.471819
-0.00273749
0.00355834
-0.361538
0.360717
-0.00343047
0.00255802
-0.235057
0.23593
-0.00171557
0.000945326
-0.10952
0.110291
-0.00041141
-0.0163955
0.0168069
-0.0772096
0.0759175
0.00129205
-0.00502894
0.00548797
-0.432052
0.431593
-0.00423172
0.002123
-0.588018
0.590127
0.00174254
-0.00552622
-0.703314
0.707098
0.00983002
-0.0141073
-0.816719
0.820996
0.0187045
-0.0233831
-0.941226
0.945905
0.028008
-0.0321019
-1.07812
1.08222
0.0365617
-0.0400189
-1.22611
1.22957
0.0430575
-0.0453694
-1.38292
1.38523
0.0464433
-0.0460065
-1.546
1.54557
0.0441179
-0.0408739
-1.4406
1.43736
0.0372468
-0.0328292
-1.13159
1.12717
0.0287225
-0.0241504
-0.899606
0.895034
0.0199924
-0.0157802
-0.721652
0.717439
0.0120421
-0.00841236
-0.58247
0.57884
0.00556465
-0.0029333
-0.468127
0.465496
0.0012091
-0.000263237
-0.357599
0.356653
-0.000257303
0.000435235
-0.233422
0.233244
-0.000473327
0.000389594
-0.108737
0.108821
-0.000261511
-0.0162522
0.0165137
-0.0771643
0.0760822
0.00108208
-0.00368908
0.00393079
-0.434658
0.434416
-0.00286642
0.000702387
-0.594325
0.596489
0.00289923
-0.00657407
-0.711058
0.714733
0.0107274
-0.0146463
-0.825196
0.829115
0.0193932
-0.0233492
-0.950107
0.954063
0.0279911
-0.0319638
-1.08653
1.0905
0.0363842
-0.0401091
-1.23308
1.23681
0.0435267
-0.0457376
-1.38739
1.3896
0.0472735
-0.0473441
-1.54513
1.5452
0.0461612
-0.0432664
-1.43403
1.43114
0.0400577
-0.0359716
-1.12283
1.11874
0.0321464
-0.0277577
-0.890165
0.885776
0.0238956
-0.0197448
-0.712953
0.708802
0.0161358
-0.0125057
-0.574851
0.571221
0.00952033
-0.00696387
-0.461884
0.459327
0.00492894
-0.00352005
-0.353141
0.351732
0.00236366
-0.00137009
-0.230424
0.22943
0.000606283
3.03163e-06
-0.106707
0.106098
-0.000165357
-0.0157358
0.0159012
-0.0773847
0.0766272
0.000757473
-0.00252386
0.00236302
-0.437472
0.437633
-0.00144524
-0.000868568
-0.599852
0.602166
0.00414019
-0.00768816
-0.718326
0.721874
0.0116813
-0.01574
-0.833006
0.837065
0.0199229
-0.0240608
-0.958286
0.962424
0.0286999
-0.0325098
-1.09494
1.09875
0.0370704
-0.0408089
-1.2404
1.24414
0.0443571
-0.0471564
-1.39227
1.39507
0.0492515
-0.049672
-1.54536
1.54578
0.0487744
-0.0465676
-1.42839
1.42618
0.0438352
-0.039997
-1.11449
1.11065
0.0362603
-0.0321742
-0.8812
0.877114
0.0280463
-0.0240718
-0.704306
0.700331
0.0204602
-0.0166939
-0.56742
0.563654
0.0137182
-0.0107873
-0.455503
0.452572
0.00848432
-0.00638332
-0.348139
0.346038
0.00477137
-0.00306304
-0.226209
0.2245
0.00156588
-0.000400486
-0.103691
0.102526
-5.45458e-05
-0.0149556
0.0150101
-0.0779979
0.0773912
0.000606714
-0.00158276
0.00148817
-0.440508
0.440602
-0.000128786
-0.002194
-0.605377
0.607699
0.00557997
-0.00898287
-0.725125
0.728528
0.0128259
-0.0165106
-0.840888
0.844573
0.0208308
-0.0246839
-0.966621
0.970474
0.0292969
-0.0335546
-1.10305
1.1073
0.0378018
-0.0418986
-1.24797
1.25207
0.0459114
-0.0488645
-1.39783
1.40079
0.0514023
-0.0526462
-1.54647
1.54771
0.0522166
-0.0505935
-1.42383
1.42221
0.0479921
-0.0444694
-1.10675
1.10322
0.0409638
-0.0368088
-0.872527
0.868372
0.0328021
-0.0286799
-0.695744
0.691621
0.0249725
-0.0209901
-0.559557
0.555575
0.0177098
-0.01455
-0.448748
0.445588
0.0117155
-0.00909465
-0.342119
0.339498
0.00688844
-0.00455704
-0.220764
0.218432
0.00257459
-0.000906277
-0.0998414
0.0981731
0.000117405
-0.0140121
0.0138946
-0.0788502
0.078407
0.000443189
-0.00059694
0.000349687
-0.443706
0.443954
0.00109823
-0.0035848
-0.610671
0.613158
0.00682529
-0.010056
-0.731671
0.734902
0.0139762
-0.0175226
-0.8483
0.851847
0.0217036
-0.0256843
-0.974835
0.978816
0.0302179
-0.0344569
-1.11146
1.1157
0.0389411
-0.0430944
-1.25613
1.26029
0.047332
-0.0510619
-1.40407
1.4078
0.0540944
-0.0556851
-1.54895
1.55054
0.055969
-0.0546696
-1.42048
1.41918
0.052565
-0.0494509
-1.09955
1.09644
0.0458767
-0.0417558