/*--------------------------------*- C++ -*----------------------------------*\
| =========                 |                                                 |
| \\      /  F ield         | OpenFOAM: The Open Source CFD Toolbox           |
|  \\    /   O peration     | Version:  2306                                  |
|   \\  /    A nd           | Website:  www.openfoam.com                      |
|    \\/     M anipulation  |                                                 |
\*---------------------------------------------------------------------------*/
FoamFile
{
    version     2.0;
    format      ascii;
    arch        "LSB;label=32;scalar=64";
    class       volVectorField;
    location    "20";
    object      U;
}
// * * * * * * * * * * * * * * * * * * * * * * * * * * * * * * * * * * * * * //

dimensions      [0 1 -1 0 0 0 0];

internalField   nonuniform List<vector> 
8800
(
(0.984957 -0.0884494 0)
(1.00213 -0.0568191 0)
(0.999686 -0.0305511 0)
(1.00002 -0.0158496 0)
(1.00004 -0.00869768 0)
(1.00003 -0.00506254 0)
(1.00002 -0.00298884 0)
(1.00001 -0.00169574 0)
(1.00001 -0.000811776 0)
(1.00005 -0.000128552 0)
(1.00001 0.000551392 0)
(1.00001 0.00131349 0)
(1.00001 0.00236187 0)
(1.00002 0.00396957 0)
(1.00003 0.00667182 0)
(1.00005 0.0117063 0)
(0.999925 0.0220346 0)
(0.999203 0.0411618 0)
(1.00744 0.0768943 0)
(0.773648 0.0450691 0)
(0.361048 -0.0151669 0)
(1.04559 -0.0741755 0)
(1.08713 -0.0678523 0)
(1.04779 -0.0522575 0)
(1.02461 -0.0383607 0)
(1.01237 -0.0260781 0)
(1.00642 -0.0167224 0)
(1.00357 -0.0102318 0)
(1.00218 -0.00564285 0)
(1.00154 -0.0021135 0)
(1.00142 0.00102716 0)
(1.00177 0.00429187 0)
(1.00271 0.00818648 0)
(1.0047 0.0135505 0)
(1.00883 0.0213121 0)
(1.01743 0.0321608 0)
(1.03458 0.0455224 0)
(1.0656 0.0596608 0)
(1.09414 0.0729008 0)
(0.842387 0.0556786 0)
(0.217183 -0.00164097 0)
(1.07595 -0.0502682 0)
(1.09987 -0.0486063 0)
(1.06463 -0.0400408 0)
(1.03988 -0.0328639 0)
(1.02365 -0.0255782 0)
(1.0139 -0.01824 0)
(1.00841 -0.0116261 0)
(1.00556 -0.00595705 0)
(1.00442 -0.000752518 0)
(1.00473 0.00428748 0)
(1.0066 0.00955162 0)
(1.01056 0.0155572 0)
(1.01788 0.0224746 0)
(1.03054 0.0297629 0)
(1.05077 0.0368109 0)
(1.08057 0.0442101 0)
(1.10647 0.051492 0)
(0.943315 0.0411943 0)
(0.216809 0.00165246 0)
(0.176137 -0.000638789 0)
(1.01898 -0.0352578 0)
(1.10571 -0.041219 0)
(1.07817 -0.036034 0)
(1.05275 -0.0299838 0)
(1.03537 -0.0242656 0)
(1.02332 -0.0186276 0)
(1.01543 -0.0127651 0)
(1.01086 -0.00681711 0)
(1.00888 -0.000755573 0)
(1.00943 0.00523833 0)
(1.01252 0.0110779 0)
(1.01855 0.016837 0)
(1.02834 0.0224039 0)
(1.04279 0.0278691 0)
(1.06368 0.0336048 0)
(1.09424 0.039663 0)
(1.09478 0.0414138 0)
(0.830082 0.022565 0)
(0.175513 0.00065211 0)
(0.154803 -0.000477251 0)
(0.958112 -0.0252307 0)
(1.10422 -0.0346195 0)
(1.08784 -0.0322052 0)
(1.06122 -0.0277463 0)
(1.04325 -0.0228066 0)
(1.03086 -0.0176477 0)
(1.02218 -0.0123245 0)
(1.01654 -0.00669866 0)
(1.01386 -0.000554029 0)
(1.0146 0.00564356 0)
(1.01857 0.0113259 0)
(1.02553 0.0165532 0)
(1.0358 0.0215428 0)
(1.05059 0.0264052 0)
(1.07238 0.0309076 0)
(1.10131 0.0348113 0)
(1.07044 0.0331509 0)
(0.743856 0.0140041 0)
(0.153871 0.000492007 0)
(0.140628 -0.000345961 0)
(0.902216 -0.0186485 0)
(1.09686 -0.0292599 0)
(1.09584 -0.0282767 0)
(1.06858 -0.0245426 0)
(1.04972 -0.0206268 0)
(1.03673 -0.016237 0)
(1.02772 -0.0113843 0)
(1.02177 -0.00608827 0)
(1.01886 -0.000180562 0)
(1.01958 0.00579025 0)
(1.02373 0.0111417 0)
(1.0309 0.0159162 0)
(1.04155 0.0202339 0)
(1.05704 0.0240742 0)
(1.07988 0.027588 0)
(1.10398 0.0304398 0)
(1.03989 0.0268284 0)
(0.679354 0.00970611 0)
(0.139324 0.000363312 0)
(0.13051 -0.000258438 0)
(0.854373 -0.0139242 0)
(1.08506 -0.0245974 0)
(1.10148 -0.024871 0)
(1.07519 -0.0217396 0)
(1.05558 -0.0183622 0)
(1.04204 -0.0145464 0)
(1.03262 -0.0101528 0)
(1.02641 -0.00520014 0)
(1.02332 0.00031026 0)
(1.02397 0.00581258 0)
(1.02819 0.0107504 0)
(1.03559 0.0150478 0)
(1.04664 0.0187451 0)
(1.06273 0.021945 0)
(1.08622 0.0248796 0)
(1.10381 0.0267767 0)
(1.00742 0.0216526 0)
(0.630698 0.0070851 0)
(0.128755 0.000279633 0)
(0.123191 -0.00018656 0)
(0.815292 -0.0101848 0)
(1.07064 -0.0199678 0)
(1.10445 -0.0211742 0)
(1.08061 -0.0186822 0)
(1.06068 -0.0157064 0)
(1.04688 -0.012365 0)
(1.03713 -0.008578 0)
(1.03062 -0.00419843 0)
(1.02732 0.000870754 0)
(1.02788 0.00597683 0)
(1.03214 0.0103155 0)
(1.03972 0.0138893 0)
(1.05099 0.0169143 0)
(1.06732 0.0196019 0)
(1.09107 0.0220315 0)
(1.10074 0.0229871 0)
(0.975941 0.0170562 0)
(0.593911 0.00518206 0)
(0.120889 0.000212823 0)
(0.118021 -0.000136291 0)
(0.784876 -0.00719925 0)
(1.05586 -0.0155664 0)
(1.10629 -0.0172718 0)
(1.08555 -0.0152627 0)
(1.06544 -0.0127284 0)
(1.05153 -0.00989241 0)
(1.04173 -0.00662886 0)
(1.03508 -0.00284517 0)
(1.03157 0.0016 0)
(1.03201 0.00602649 0)
(1.03623 0.00965368 0)
(1.04371 0.0125485 0)
(1.05493 0.0149481 0)
(1.0713 0.0169969 0)
(1.09476 0.0189196 0)
(1.09569 0.0191927 0)
(0.947709 0.0131124 0)
(0.566488 0.00374844 0)
(0.11505 0.000169508 0)
(0.11462 -8.16929e-05 0)
(0.762497 -0.00446806 0)
(1.04182 -0.0111888 0)
(1.107 -0.0133631 0)
(1.08937 -0.0120208 0)
(1.06868 -0.0101231 0)
(1.05441 -0.00790374 0)
(1.04455 -0.00508706 0)
(1.03796 -0.0015968 0)
(1.03444 0.00243901 0)
(1.03461 0.0063354 0)
(1.03848 0.00952322 0)
(1.04571 0.0118825 0)
(1.05694 0.0135686 0)
(1.07381 0.0148477 0)
(1.09687 0.0159523 0)
(1.08906 0.0153862 0)
(0.923556 0.00941599 0)
(0.546907 0.00246734 0)
(0.110827 0.00012351 0)
(0.113023 -1.46064e-05 0)
(0.747914 -0.00212984 0)
(1.02911 -0.00696053 0)
(1.10598 -0.00957052 0)
(1.09197 -0.00915917 0)
(1.0717 -0.00772562 0)
(1.05776 -0.00581159 0)
(1.04804 -0.00325593 0)
(1.04134 -0.000140599 0)
(1.03754 0.00344561 0)
(1.03752 0.00685907 0)
(1.04119 0.00945155 0)
(1.04813 0.0113071 0)
(1.05888 0.0124737 0)
(1.07522 0.0131996 0)
(1.09677 0.0133599 0)
(1.08067 0.0116847 0)
(0.904028 0.00615291 0)
(0.534319 0.00144198 0)
(0.108216 6.80369e-05 0)
(0.112792 2.46088e-05 0)
(0.739657 -0.000771648 0)
(1.0189 -0.00382675 0)
(1.10367 -0.00610423 0)
(1.09357 -0.00606097 0)
(1.07398 -0.00496985 0)
(1.06029 -0.00340337 0)
(1.05077 -0.00121484 0)
(1.04414 0.00149986 0)
(1.04024 0.00466218 0)
(1.0398 0.00757853 0)
(1.04298 0.00951384 0)
(1.04935 0.010644 0)
(1.05964 0.0111088 0)
(1.07558 0.0112538 0)
(1.09487 0.010935 0)
(1.07162 0.00886843 0)
(0.889257 0.00427176 0)
(0.526332 0.000975072 0)
(0.10673 3.76901e-05 0)
(0.113253 4.45643e-05 0)
(0.735177 -0.000191579 0)
(1.01198 -0.00213507 0)
(1.10188 -0.00364704 0)
(1.09476 -0.00342191 0)
(1.07597 -0.00232776 0)
(1.06242 -0.000878041 0)
(1.05295 0.00100229 0)
(1.04628 0.00336073 0)
(1.04218 0.00613665 0)
(1.04128 0.0085633 0)
(1.0439 0.0099569 0)
(1.0498 0.010571 0)
(1.05962 0.0107538 0)
(1.07511 0.0104222 0)
(1.09242 0.00971776 0)
(1.06348 0.00763857 0)
(0.877736 0.00374742 0)
(0.520059 0.000926855 0)
(0.105598 3.71381e-05 0)
(0.113945 4.62366e-05 0)
(0.732345 0.000113892 0)
(1.00704 -0.00146518 0)
(1.10107 -0.0027626 0)
(1.0965 -0.00225851 0)
(1.07813 -0.00111784 0)
(1.06469 0.000416667 0)
(1.05537 0.0025224 0)
(1.04877 0.0051295 0)
(1.04443 0.00791076 0)
(1.04295 0.0101908 0)
(1.04483 0.0113754 0)
(1.05013 0.0116992 0)
(1.05933 0.0113701 0)
(1.074 0.0110323 0)
(1.0898 0.010188 0)
(1.0558 0.00792535 0)
(0.86706 0.00391969 0)
(0.513821 0.00103876 0)
(0.104344 5.21451e-05 0)
(0.114828 5.22016e-05 0)
(0.730415 0.000477482 0)
(1.00208 -0.000903238 0)
(1.09983 -0.00278975 0)
(1.0982 -0.00271715 0)
(1.08052 -0.00161285 0)
(1.06727 0.000350291 0)
(1.05809 0.00316231 0)
(1.05131 0.00652608 0)
(1.04648 0.0100171 0)
(1.04434 0.0128281 0)
(1.04551 0.0143634 0)
(1.04987 0.0149559 0)
(1.05849 0.0147772 0)
(1.07267 0.0138604 0)
(1.08634 0.012432 0)
(1.04652 0.00890363 0)
(0.855682 0.00415534 0)
(0.507201 0.00116062 0)
(0.102808 7.06938e-05 0)
(0.116008 6.2334e-05 0)
(0.730247 0.00111938 0)
(0.996915 0.00026447 0)
(1.09659 -0.00219928 0)
(1.09879 -0.0028572 0)
(1.08318 -0.00217283 0)
(1.07079 0.00013876 0)
(1.0619 0.0037671 0)
(1.05493 0.00805281 0)
(1.04947 0.0126103 0)
(1.0465 0.0162824 0)
(1.04675 0.018385 0)
(1.05025 0.0192592 0)
(1.05742 0.0190922 0)
(1.07015 0.0177997 0)
(1.07979 0.014839 0)
(1.03413 0.00948515 0)
(0.843791 0.00421618 0)
(0.500399 0.00126291 0)
(0.101002 8.56114e-05 0)
(0.117699 8.47811e-05 0)
(0.732086 0.00180126 0)
(0.992995 0.00197536 0)
(1.09159 -0.000168915 0)
(1.09872 -0.00177409 0)
(1.0858 -0.00109736 0)
(1.07492 0.00156374 0)
(1.06644 0.00574829 0)
(1.05922 0.0106825 0)
(1.053 0.0159435 0)
(1.04902 0.0200449 0)
(1.04812 0.022303 0)
(1.05039 0.0229915 0)
(1.0558 0.0223198 0)
(1.06561 0.0201939 0)
(1.06978 0.0156484 0)
(1.01986 0.00938611 0)
(0.832346 0.00425995 0)
(0.493472 0.00139313 0)
(0.0989479 9.84637e-05 0)
(0.120108 0.000118348 0)
(0.736912 0.00267537 0)
(0.992325 0.00415525 0)
(1.08731 0.00313395 0)
(1.09771 0.00188513 0)
(1.08858 0.00258734 0)
(1.07952 0.00563789 0)
(1.07135 0.0100045 0)
(1.06383 0.0150968 0)
(1.05667 0.0202977 0)
(1.0514 0.023993 0)
(1.0492 0.0255593 0)
(1.04977 0.0254178 0)
(1.0532 0.023928 0)
(1.05886 0.0206073 0)
(1.05799 0.015354 0)
(1.00601 0.0092462 0)
(0.821649 0.00457005 0)
(0.486062 0.00161605 0)
(0.0965953 0.000115505 0)
(0.123402 0.00016451 0)
(0.745156 0.00369842 0)
(0.995217 0.00630289 0)
(1.08612 0.00704053 0)
(1.09785 0.0071364 0)
(1.09183 0.008666 0)
(1.0842 0.0119329 0)
(1.07631 0.0163537 0)
(1.06828 0.0213012 0)
(1.05987 0.0258708 0)
(1.05297 0.0285302 0)
(1.04921 0.0288414 0)
(1.04787 0.0273839 0)
(1.04878 0.0245967 0)
(1.05093 0.0204793 0)
(1.04645 0.0152212 0)
(0.99362 0.00968939 0)
(0.811154 0.0052475 0)
(0.477594 0.00193475 0)
(0.0938215 0.000137084 0)
(0.127741 0.000215909 0)
(0.756657 0.00483279 0)
(1.00202 0.00870467 0)
(1.08885 0.0110614 0)
(1.1005 0.0127053 0)
(1.09604 0.0155108 0)
(1.08927 0.0194927 0)
(1.08131 0.024227 0)
(1.07235 0.0290263 0)
(1.0623 0.0327926 0)
(1.05344 0.0340969 0)
(1.04777 0.0328301 0)
(1.04431 0.0299634 0)
(1.04298 0.0259301 0)
(1.04257 0.02127 0)
(1.0358 0.0161515 0)
(0.982238 0.0109777 0)
(0.799795 0.00631756 0)
(0.467422 0.00237936 0)
(0.0904633 0.000167515 0)
(0.133428 0.000295463 0)
(0.771845 0.00641066 0)
(1.01286 0.0116747 0)
(1.09528 0.015515 0)
(1.10607 0.0187659 0)
(1.10196 0.0230424 0)
(1.09518 0.0281142 0)
(1.08652 0.0334415 0)
(1.07605 0.0382549 0)
(1.06386 0.0413082 0)
(1.05258 0.0412234 0)
(1.04476 0.0383043 0)
(1.03928 0.0339143 0)
(1.03601 0.0288379 0)
(1.03378 0.0236099 0)
(1.02551 0.0183769 0)
(0.970697 0.0130765 0)
(0.786563 0.00775478 0)
(0.454947 0.0029395 0)
(0.0863544 0.000205023 0)
(0.140975 0.000409751 0)
(0.791611 0.0085942 0)
(1.02774 0.0155256 0)
(1.10544 0.0208344 0)
(1.11473 0.025747 0)
(1.10995 0.0316745 0)
(1.10226 0.0381129 0)
(1.09212 0.044318 0)
(1.07948 0.0493515 0)
(1.06455 0.0517873 0)
(1.05044 0.0503259 0)
(1.04016 0.0457887 0)
(1.03274 0.0398493 0)
(1.0278 0.0336141 0)
(1.02416 0.0275998 0)
(1.0147 0.0218741 0)
(0.957861 0.0159801 0)
(0.770511 0.00962286 0)
(0.439568 0.00363713 0)
(0.0813471 0.000251146 0)
(0.151138 0.000579594 0)
(0.817161 0.0117228 0)
(1.04735 0.020703 0)
(1.11958 0.0276277 0)
(1.12674 0.0344293 0)
(1.12043 0.0422788 0)
(1.11088 0.0503264 0)
(1.09833 0.0575929 0)
(1.08272 0.0629026 0)
(1.06438 0.0646636 0)
(1.04697 0.0617031 0)
(1.03395 0.0554459 0)
(1.02454 0.0478962 0)
(1.01802 0.040291 0)
(1.01314 0.0332031 0)
(1.00245 0.026613 0)
(0.942733 0.0197216 0)
(0.751092 0.0119401 0)
(0.420877 0.00443612 0)
(0.0753286 0.000294048 0)
(0.165187 0.000861335 0)
(0.850512 0.0164722 0)
(1.07296 0.0280771 0)
(1.13831 0.0369088 0)
(1.14257 0.0461008 0)
(1.13375 0.0561603 0)
(1.12123 0.0659413 0)
(1.10518 0.0742069 0)
(1.08568 0.079598 0)
(1.06321 0.0804001 0)
(1.04204 0.0756527 0)
(1.02604 0.0674541 0)
(1.0145 0.058119 0)
(1.00633 0.0489174 0)
(1.00018 0.0404704 0)
(0.987998 0.0326834 0)
(0.924413 0.0244206 0)
(0.727442 0.0147938 0)
(0.398247 0.00542289 0)
(0.068159 0.000346968 0)
(0.185347 0.00136446 0)
(0.895019 0.0240855 0)
(1.10676 0.0392895 0)
(1.16277 0.0504626 0)
(1.16275 0.0627653 0)
(1.14992 0.0751767 0)
(1.13302 0.0864632 0)
(1.11229 0.0952753 0)
(1.08798 0.100179 0)
(1.06072 0.0994387 0)
(1.0354 0.092443 0)
(1.01624 0.0819947 0)
(1.00239 0.070647 0)
(0.992429 0.0596414 0)
(0.98481 0.049604 0)
(0.970651 0.0403414 0)
(0.90191 0.030341 0)
(0.698422 0.0183966 0)
(0.370955 0.00664523 0)
(0.0597278 0.000401215 0)
(0.215019 0.00250353 0)
(0.956353 0.0375483 0)
(1.1509 0.0581317 0)
(1.19427 0.0721509 0)
(1.18719 0.0875901 0)
(1.16835 0.1018 0)
(1.1455 0.113658 0)
(1.11892 0.121951 0)
(1.089 0.125316 0)
(1.05647 0.122133 0)
(1.02675 0.112272 0)
(1.00431 0.0992222 0)
(0.988024 0.0856603 0)
(0.97609 0.0727246 0)
(0.966694 0.0609855 0)
(0.949872 0.0501199 0)
(0.874173 0.0378888 0)
(0.662912 0.0229719 0)
(0.33902 0.00823366 0)
(0.0503076 0.000438668 0)
(0.256061 0.00908012 -2.52768e-20)
(1.03865 0.0653466 -2.00285e-20)
(1.20347 0.090747 5.61781e-21)
(1.23046 0.107776 0)
(1.21344 0.124451 1.00201e-35)
(1.18706 0.138439 1.84387e-22)
(1.15716 0.149148 -2.33824e-21)
(1.12398 0.155543 0)
(1.08791 0.156357 9.23257e-35)
(1.0496 0.150045 -7.08938e-21)
(1.01501 0.136978 0)
(0.988832 0.121223 -1.02459e-20)
(0.969584 0.105453 -3.13747e-20)
(0.955127 0.0907053 -1.51852e-20)
(0.943262 0.0775371 -4.7834e-21)
(0.922877 0.0653765 -2.89317e-21)
(0.83836 0.0508117 0)
(0.617525 0.0314086 2.06161e-21)
(0.301394 0.0125891 2.43565e-21)
(0.0416407 0.00139957 4.2557e-20)
(0.282684 0.025202 -4.66579e-20)
(1.10567 0.109917 9.94067e-22)
(1.24807 0.138743 -2.74433e-21)
(1.2629 0.156885 0)
(1.23693 0.171864 4.45054e-21)
(1.20323 0.184092 2.53299e-21)
(1.16635 0.192888 -1.42401e-21)
(1.12644 0.197152 -1.17344e-20)
(1.0838 0.195497 0)
(1.03894 0.186323 3.01585e-20)
(0.998293 0.170424 3.35304e-20)
(0.967059 0.152376 1.08202e-20)
(0.943547 0.134809 4.28401e-20)
(0.925329 0.118523 6.31472e-20)
(0.909596 0.104002 0)
(0.883385 0.0905337 9.37491e-20)
(0.792979 0.073593 1.3612e-19)
(0.570941 0.0488631 1.50865e-19)
(0.273284 0.0227495 -1.74053e-19)
(0.0366356 0.00312982 -3.17155e-21)
(0.280162 0.0411685 0)
(1.14523 0.167426 -1.44895e-20)
(1.28037 0.198806 0)
(1.28806 0.21576 2.37505e-20)
(1.2553 0.227214 0)
(1.21526 0.236028 1.22761e-20)
(1.17211 0.241563 1.33184e-21)
(1.12599 0.24266 -1.69531e-20)
(1.07721 0.237851 -3.11225e-21)
(1.02625 0.225476 1.45912e-20)
(0.980084 0.206763 7.85017e-20)
(0.944291 0.186741 -5.88149e-22)
(0.916967 0.167943 -3.22582e-20)
(0.895432 0.15097 -6.27272e-20)
(0.876754 0.13599 7.60479e-20)
(0.848517 0.122026 -1.36581e-19)
(0.763548 0.102759 -1.85843e-20)
(0.557651 0.0731381 0)
(0.281451 0.0371885 1.81607e-22)
(0.0420565 0.00595026 0)
(0.271472 0.0548513 -3.54981e-19)
(1.16406 0.227872 1.48685e-19)
(1.30138 0.264441 8.09621e-20)
(1.30462 0.279377 -1.55567e-20)
(1.2671 0.28695 2.38118e-20)
(1.22229 0.29173 -2.94889e-20)
(1.17408 0.293413 1.04701e-21)
(1.12274 0.290778 0)
(1.06859 0.282372 -5.65546e-20)
(1.01218 0.266517 0)
(0.961193 0.244975 -4.00564e-20)
(0.921599 0.223104 -5.66372e-20)
(0.891251 0.203301 -3.62624e-20)
(0.867276 0.18593 -4.68582e-20)
(0.846745 0.170871 0)
(0.818508 0.156624 0)
(0.741652 0.13643 -1.25688e-19)
(0.55702 0.101791 2.49762e-20)
(0.295745 0.0549149 -1.45182e-20)
(0.0487917 0.00955067 -1.66988e-20)
(0.262707 0.0670811 2.62278e-19)
(1.17004 0.28789 0)
(1.31286 0.330889 -2.26766e-19)
(1.31346 0.344181 -5.84672e-20)
(1.27264 0.348051 -4.46395e-20)
(1.22431 0.348879 0)
(1.17221 0.346662 -6.09773e-21)
(1.11664 0.340189 1.47779e-20)
(1.05804 0.328009 2.45281e-20)
(0.996992 0.308528 7.4288e-20)
(0.941974 0.28403 0)
(0.899381 0.260269 -1.23634e-19)
(0.866845 0.239422 -7.92855e-20)
(0.84127 0.221627 -4.78143e-20)
(0.819731 0.206573 3.13941e-19)
(0.792355 0.192433 3.85335e-20)
(0.722828 0.17177 1.83564e-19)
(0.555443 0.13178 -8.81179e-19)
(0.304358 0.0734829 5.21166e-19)
(0.0534378 0.0132791 -6.21371e-19)
(0.254984 0.0780994 2.76907e-19)
(1.16805 0.345532 -5.22513e-20)
(1.31726 0.396336 3.98967e-20)
(1.31621 0.408328 1.08717e-19)
(1.273 0.408763 6.68681e-20)
(1.22204 0.405878 3.32414e-21)
(1.16688 0.399944 5.44294e-21)
(1.10789 0.389745 1.04519e-20)
(1.0456 0.373837 -5.40302e-20)
(0.980693 0.350678 0)
(0.922295 0.323076 -5.29856e-20)
(0.877443 0.29721 -3.03214e-21)
(0.843409 0.275105 -8.88776e-20)
(0.816879 0.25666 0)
(0.794968 0.241369 -6.85686e-20)
(0.768873 0.227108 -1.66762e-19)
(0.705518 0.205392 4.60154e-19)
(0.549597 0.159849 -4.55216e-19)
(0.305869 0.0900264 6.41956e-19)
(0.0551405 0.0164494 -6.61288e-19)
(0.24877 0.0883293 -8.30397e-22)
(1.16126 0.400219 6.3954e-20)
(1.31639 0.459578 1.90663e-19)
(1.31432 0.470721 -6.65796e-20)
(1.26936 0.468079 3.81786e-20)
(1.21633 0.4618 0)
(1.15871 0.452398 1.77102e-20)
(1.0969 0.438658 -7.48026e-21)
(1.03146 0.419163 -2.44562e-20)
(0.963259 0.392331 0)
(0.902027 0.361479 -5.16849e-20)
(0.855287 0.333233 -7.2952e-20)
(0.820143 0.30954 9.73344e-20)
(0.793129 0.29006 -6.24016e-20)
(0.771319 0.274055 -3.02398e-19)
(0.746577 0.259228 1.85846e-19)
(0.68774 0.235817 5.85376e-20)
(0.539429 0.184447 0)
(0.302031 0.103846 -6.24921e-19)
(0.0548162 0.0189424 -2.26861e-20)
(0.243948 0.0980861 4.53774e-20)
(1.1517 0.451823 -7.35399e-20)
(1.3117 0.520086 -1.04233e-19)
(1.30891 0.53072 -2.04881e-19)
(1.26264 0.525376 1.85222e-19)
(1.20798 0.516067 -9.90753e-20)
(1.14836 0.503476 -3.72685e-20)
(1.08416 0.486446 -1.04213e-20)
(1.01599 0.463537 2.50301e-20)
(0.944802 0.433101 -1.81814e-19)
(0.88102 0.398899 -6.37864e-20)
(0.832725 0.367984 0)
(0.796885 0.342306 1.06533e-19)
(0.76972 0.321398 1.31832e-19)
(0.748194 0.304329 1.62364e-19)
(0.72458 0.288456 -2.02828e-19)
(0.668846 0.262999 -6.0946e-20)
(0.52565 0.205741 7.17377e-20)
(0.294189 0.115031 0)
(0.0532787 0.0208245 -4.94359e-20)
(0.2403 0.107496 -5.26603e-19)
(1.14077 0.500484 3.36725e-19)
(1.30432 0.577622 1.14631e-19)
(1.30094 0.58798 -1.56344e-19)
(1.25363 0.580305 1.10742e-19)
(1.19767 0.568301 -7.76444e-21)
(1.13639 0.552845 3.65147e-20)
(1.07014 0.532807 -4.87741e-21)
(0.999544 0.506702 -4.41697e-20)
(0.925641 0.4728 3.47566e-22)
(0.859557 0.435178 -1.90049e-19)
(0.80983 0.401378 1.86277e-19)
(0.773392 0.373379 -1.19491e-19)
(0.746157 0.350688 1.48759e-19)
(0.724945 0.332212 0)
(0.702231 0.314926 -1.10157e-19)
(0.648586 0.286842 -2.39397e-21)
(0.508986 0.223673 -3.13921e-19)
(0.283254 0.123678 -4.60676e-20)
(0.0506837 0.0220316 0)
(0.237651 0.116656 0)
(1.12926 0.546429 3.65348e-19)
(1.295 0.632105 2.67145e-19)
(1.29111 0.642386 1.76363e-19)
(1.24294 0.632677 1.06657e-19)
(1.18592 0.618294 0)
(1.12327 0.600283 3.47463e-20)
(1.05526 0.577536 -2.41724e-21)
(0.982487 0.548509 9.36725e-20)
(0.90609 0.511309 -2.2172e-20)
(0.83766 0.470247 -1.39397e-19)
(0.786377 0.433373 9.31517e-20)
(0.749263 0.402772 -3.91628e-21)
(0.72202 0.377967 1.56651e-19)
(0.701146 0.357744 1.02469e-19)
(0.679165 0.33874 -2.39908e-19)
(0.626808 0.307566 2.8965e-19)
(0.48982 0.238284 8.60058e-20)
(0.269864 0.129961 3.52858e-19)
(0.0472999 0.0225475 -9.32885e-19)
(0.235863 0.125713 -1.35101e-19)
(1.11772 0.589822 2.1067e-19)
(1.28439 0.6836 -1.66324e-19)
(1.27999 0.693909 -2.0458e-19)
(1.23111 0.682405 0)
(1.17323 0.665926 8.61784e-20)
(1.10942 0.645665 -1.00234e-19)
(1.03986 0.620507 5.11867e-22)
(0.96509 0.588843 0)
(0.886191 0.548587 -3.44821e-19)
(0.815375 0.504148 3.80189e-19)
(0.762502 0.464039 0)
(0.724537 0.43056 1.41528e-19)
(0.697202 0.403281 -3.93632e-21)
(0.676646 0.381009 -3.24236e-19)
(0.6552 0.359954 1.27353e-19)
(0.603478 0.325266 0)
(0.46851 0.249686 4.66704e-19)
(0.2545 0.133871 0)
(0.0433702 0.0224859 -4.44641e-19)
(0.234746 0.13467 1.50556e-19)
(1.10637 0.630932 2.4076e-19)
(1.27311 0.732095 -1.74179e-19)
(1.26799 0.742592 0)
(1.21854 0.729487 1.46565e-19)
(1.15996 0.711163 0)
(1.09515 0.688919 1.31529e-19)
(1.0242 0.661645 1.44225e-20)
(0.94754 0.627657 9.30455e-21)
(0.866205 0.584633 -1.70275e-19)
(0.792913 0.536978 3.68233e-20)
(0.738257 0.493593 0)
(0.699281 0.457017 -3.01023e-19)
(0.671624 0.426966 4.07356e-21)
(0.65129 0.402317 0)
(0.630147 0.37885 4.83486e-21)
(0.578451 0.340114 4.26548e-19)
(0.445013 0.257832 -4.08509e-19)
(0.237317 0.135387 1.19889e-19)
(0.0389096 0.0217928 0)
(0.233953 0.14341 0)
(1.09544 0.669807 2.69251e-19)
(1.26133 0.777767 2.04012e-19)
(1.25546 0.788484 -4.36573e-21)
(1.20555 0.773948 9.16645e-20)
(1.14639 0.754008 2.02885e-19)
(1.08074 0.730035 -4.23153e-20)
(1.00854 0.700931 5.36695e-21)
(0.930132 0.664939 5.64005e-20)
(0.846388 0.619487 -2.65037e-19)
(0.770407 0.568842 -6.28584e-21)
(0.713625 0.522173 -1.22918e-19)
(0.673405 0.482302 4.93455e-19)
(0.645232 0.449244 -4.86485e-21)
(0.624985 0.421894 -2.55711e-19)
(0.603903 0.395593 -4.66885e-19)
(0.551701 0.352226 0)
(0.419405 0.262865 0)
(0.218437 0.134406 1.31713e-19)
(0.0341202 0.0204743 -7.5864e-20)
(0.233746 0.152043 1.87081e-19)
(1.08507 0.706427 -5.89738e-19)
(1.24927 0.820741 -2.18272e-19)
(1.24267 0.831655 0)
(1.1924 0.815848 -3.01671e-21)
(1.13279 0.794494 2.43301e-19)
(1.06642 0.76903 -1.41393e-19)
(0.993128 0.738369 -6.25747e-20)
(0.913082 0.700695 5.71433e-20)
(0.826903 0.653177 -2.03564e-19)
(0.748041 0.599854 -3.21135e-19)
(0.688742 0.54999 3.27597e-19)
(0.646848 0.506651 0)
(0.61794 0.470254 -1.1513e-19)
(0.597627 0.439898 -2.80787e-19)
(0.576363 0.410312 -3.38351e-19)
(0.523114 0.361589 -4.0976e-19)
(0.391595 0.264647 1.22044e-19)
(0.197798 0.130666 -7.12765e-20)
(0.028951 0.0185041 7.97205e-22)
(0.233524 0.160521 0)
(1.07541 0.740906 0)
(1.23715 0.861119 4.92048e-21)
(1.22984 0.872192 0)
(1.1793 0.855269 -3.43528e-19)
(1.11932 0.832678 -2.14609e-19)
(1.05236 0.80593 0)
(0.978116 0.773968 -1.52137e-20)
(0.896529 0.734921 6.96512e-20)
(0.80794 0.685732 -4.67212e-19)
(0.726005 0.630117 0)
(0.663798 0.577246 -2.09771e-19)
(0.619713 0.530364 -5.96567e-21)
(0.58966 0.490329 -4.9189e-21)
(0.569096 0.456533 2.99715e-19)
(0.547429 0.423071 -8.19313e-22)
(0.492611 0.368126 -8.90026e-19)
(0.361399 0.262916 2.65901e-19)
(0.175511 0.124181 7.85368e-20)
(0.0234424 0.0159121 0)
(0.233333 0.168701 -6.8654e-19)
(1.06617 0.773625 -3.62388e-19)
(1.2251 0.899012 -5.45097e-19)
(1.21712 0.910205 7.63422e-19)
(1.16637 0.89228 -6.43085e-19)
(1.10613 0.868619 0)
(1.03871 0.840777 -1.19709e-19)
(0.963623 0.807747 2.84831e-20)
(0.88062 0.767633 7.40431e-21)
(0.789682 0.717184 3.69601e-20)
(0.704487 0.659713 4.01633e-19)
(0.638956 0.604145 -7.16529e-20)
(0.592141 0.553759 -3.04263e-19)
(0.560362 0.509776 -1.36756e-19)
(0.53924 0.471964 1.66878e-19)
(0.516919 0.433816 -6.51233e-22)
(0.460105 0.371607 2.44026e-19)
(0.328674 0.257361 -5.76706e-19)
(0.151753 0.114865 6.83179e-19)
(0.0178882 0.0128768 9.74748e-20)
(0.233046 0.176545 2.51778e-19)
(1.05733 0.804612 -1.98146e-19)
(1.21325 0.934541 1.16643e-20)
(1.20462 0.945819 4.30561e-19)
(1.15374 0.92699 1.50026e-19)
(1.09332 0.902389 4.27123e-19)
(1.02555 0.873621 -5.2849e-20)
(0.949758 0.83973 1.36031e-19)
(0.865478 0.79883 -3.26188e-20)
(0.772258 0.747524 -2.53651e-19)
(0.683694 0.6887 0)
(0.614439 0.630854 -3.22396e-19)
(0.564238 0.577148 4.41565e-19)
(0.529973 0.528968 0)
(0.507777 0.486376 -3.57052e-19)
(0.48454 0.442332 2.21008e-19)
(0.425544 0.371505 -2.6365e-19)
(0.294269 0.247791 -3.15524e-19)
(0.127577 0.103205 -5.55701e-19)
(0.0124964 0.00953896 -4.26989e-19)
(0.232918 0.18416 -2.76182e-19)
(1.04875 0.833861 2.11529e-19)
(1.20165 0.967793 5.06419e-19)
(1.19242 0.979124 5.90811e-19)
(1.14149 0.959489 -3.13523e-19)
(1.08096 0.934072 2.93964e-19)
(1.01295 0.904516 -1.64185e-19)
(0.936594 0.869963 1.67694e-19)
(0.851168 0.828533 -7.04892e-21)
(0.755789 0.776753 2.41094e-19)
(0.663804 0.717102 8.51059e-19)
(0.590497 0.657503 0)
(0.536245 0.600849 0)
(0.498467 0.54842 -1.58024e-19)
(0.474263 0.500133 0)
(0.449648 0.448198 4.81007e-19)
(0.3887 0.366686 5.75743e-19)
(0.259035 0.233395 0)
(0.104313 0.0894535 0)
(0.00769614 0.00623487 4.64463e-19)
(0.232522 0.19127 3.04054e-19)
(1.04044 0.861392 2.529e-19)
(1.19036 0.998893 3.63088e-19)
(1.18058 1.01025 -5.26211e-19)
(1.12967 0.989881 -3.48743e-19)
(1.06912 0.963745 -3.88897e-19)
(1.00098 0.933526 2.42851e-19)
(0.924172 0.898472 7.77094e-22)
(0.83775 0.856743 -9.47763e-21)
(0.740361 0.804853 -1.18655e-20)
(0.644993 0.744914 4.30545e-19)
(0.567376 0.68415 0)
(0.508487 0.625106 4.45232e-19)
(0.465979 0.56874 3.32998e-19)
(0.43813 0.513958 8.50042e-19)
(0.410905 0.451142 2.5947e-19)
(0.348647 0.35502 -3.17352e-19)
(0.224887 0.211794 -1.857e-19)
(0.0859759 0.0735616 0)
(0.00473821 0.00347208 5.04148e-19)
(0.232308 0.198298 -6.66855e-19)
(1.0324 0.887314 0)
(1.17939 1.02792 4.04553e-19)
(1.16914 1.03928 -4.30009e-19)
(1.11832 1.01826 3.93696e-19)
(1.05781 0.991494 5.66485e-19)
(0.989653 0.960709 -5.61133e-19)
(0.912515 0.925298 5.84485e-21)
(0.825252 0.88347 0)
(0.726034 0.831779 -2.22392e-19)
(0.627404 0.772094 -8.90268e-19)
(0.545336 0.710805 4.37511e-20)
(0.481365 0.650058 6.04616e-19)
(0.432869 0.590581 0)
(0.398905 0.529086 5.7358e-19)
(0.36616 0.45197 0)
(0.301673 0.333944 0)
(0.192264 0.174727 -2.06519e-19)
(0.0869136 0.0453438 0)
(0.0246573 0.0102653 1.36036e-19)
(0.231777 0.204689 -7.27019e-19)
(1.02459 0.911905 0)
(1.16873 1.05507 6.52788e-19)
(1.15807 1.06645 0)
(1.10741 1.04487 -2.12878e-19)
(1.04699 1.01759 0)
(0.978901 0.986368 -4.17505e-20)
(0.901529 0.950771 -2.88944e-20)
(0.813559 0.909069 -1.36461e-21)
(0.712667 0.85791 -2.16089e-19)
(0.61092 0.79905 2.31708e-20)
(0.524279 0.738004 3.61248e-19)
(0.454779 0.676224 5.84432e-19)
(0.398989 0.614932 8.35995e-20)
(0.355627 0.547709 4.4869e-19)
(0.312106 0.453972 0)
(0.236403 0.305267 6.91825e-19)
(0.135446 0.110342 -4.05787e-19)
(0.0530187 0.057631 4.6279e-19)
(-0.0567449 0.399109 -5.46115e-19)
(0.231228 0.210808 5.91563e-19)
(1.01678 0.935113 9.54652e-19)
(1.15832 1.08066 0)
(1.14723 1.09216 9.46516e-21)
(1.09677 1.07028 5.77334e-19)
(1.03641 1.0427 -1.0906e-18)
(0.968449 1.01127 -2.46133e-19)
(0.890853 0.975794 0)
(0.802209 0.934593 -5.39846e-20)
(0.699679 0.884514 -6.14299e-21)
(0.594748 0.827228 0)
(0.503222 0.767505 0)
(0.427573 0.705485 5.12727e-19)
(0.363396 0.643746 -2.61397e-19)
(0.306374 0.573721 -4.47932e-19)
(0.244674 0.465125 0)
(0.131307 0.286457 3.48003e-19)
(0.0246211 0.435507 -4.03941e-19)
(0.0430536 1.79343 -2.12357e-19)
(0.0781316 2.75887 -2.84154e-19)
(0.230498 0.216161 -4.29188e-19)
(1.00914 0.957018 -1.20029e-18)
(1.14813 1.10469 3.74157e-19)
(1.13665 1.11628 3.62075e-19)
(1.08646 1.09427 0)
(1.02612 1.06654 -7.791e-19)
(0.958467 1.03511 -4.114e-19)
(0.880642 0.999949 1.91645e-20)
(0.791427 0.95953 -7.19495e-21)
(0.687399 0.910965 1.60824e-19)
(0.579429 0.855887 3.93067e-19)
(0.4831 0.798719 3.70255e-19)
(0.400978 0.737309 5.02721e-19)
(0.328503 0.675272 -5.95622e-19)
(0.257147 0.60902 -6.62218e-19)
(0.167705 0.496177 0)
(0.0713093 0.809242 0)
(0.125896 2.48048 1.80349e-19)
(0.131645 3.1671 0)
(0.133217 3.37381 3.86826e-19)
(0.232632 0.221311 0)
(1.00224 0.977812 0)
(1.13792 1.12703 0)
(1.12609 1.13859 1.00538e-19)
(1.07617 1.11663 5.12925e-19)
(1.01591 1.08898 -5.93164e-19)
(0.948861 1.05778 -2.94033e-19)
(0.870839 1.02313 2.17378e-20)
(0.781164 0.983732 -1.31296e-19)
(0.67583 0.937101 -2.0137e-20)
(0.565068 0.884851 7.04894e-19)
(0.464231 0.831392 -4.3468e-20)
(0.375525 0.772113 5.64143e-20)
(0.295867 0.706801 8.45674e-20)
(0.213515 0.650839 2.7312e-21)
(0.135296 0.910079 3.34034e-21)
(0.174619 2.6153 -9.04946e-19)
(0.19317 3.26978 -3.38336e-19)
(0.17653 3.42396 1.53195e-19)
(0.158466 3.45006 -1.56023e-19)
(0.151962 0.173722 2.35725e-19)
(0.989739 1.00056 0)
(1.1275 1.14783 -7.2536e-19)
(1.11619 1.15961 -9.25311e-19)
(1.06652 1.13801 1.06981e-18)
(1.00656 1.11057 6.30426e-19)
(0.939483 1.07937 3.40837e-19)
(0.861508 1.04542 -3.7012e-19)
(0.771566 1.00728 1.40528e-19)
(0.665296 0.962907 0)
(0.552171 0.913999 2.99768e-19)
(0.447329 0.864936 -2.73401e-19)
(0.352006 0.811827 0)
(0.266136 0.741818 7.19075e-20)
(0.194772 0.841919 1.75106e-19)
(0.184652 2.28801 -2.19555e-19)
(0.264345 3.30688 2.39764e-19)
(0.240703 3.44407 1.15588e-19)
(0.200495 3.46979 1.28707e-19)
(0.17398 3.48175 1.60249e-19)
(0.270529 0.25641 -4.24964e-19)
(0.971619 1.00702 0)
(1.10824 1.17069 7.38701e-19)
(1.10249 1.19075 9.56893e-19)
(1.05108 1.16938 -1.0891e-18)
(0.990991 1.14247 -6.64645e-19)
(0.92339 1.1126 -5.26575e-19)
(0.845236 1.07984 -2.75331e-20)
(0.754598 1.04392 -2.03904e-19)
(0.646545 1.00362 4.7362e-22)
(0.529798 0.961462 1.11794e-20)
(0.418757 0.921028 2.08344e-19)
(0.310349 0.882517 4.54766e-20)
(0.242243 0.982939 -6.59073e-20)
(0.269284 2.16841 -1.53675e-19)
(0.341278 3.30679 1.05065e-19)
(0.329172 3.48346 -9.39595e-20)
(0.286816 3.509 -5.29058e-20)
(0.245875 3.53856 1.34879e-20)
(0.18658 3.53005 -4.822e-22)
(0.258543 0.252896 0)
(0.968123 1.02773 1.93758e-19)
(1.09995 1.19245 -1.47027e-19)
(1.09255 1.21247 -1.07155e-19)
(1.04141 1.19114 -7.17585e-19)
(0.981567 1.16444 6.50473e-19)
(0.913883 1.13475 3.551e-19)
(0.835928 1.10278 -2.89445e-20)
(0.745373 1.06836 2.53191e-19)
(0.636991 1.03095 -2.81115e-20)
(0.519011 0.993778 -3.68033e-19)
(0.405692 0.959896 2.95258e-20)
(0.299626 0.944986 -3.89761e-20)
(0.286075 1.38943 -5.39939e-20)
(0.378876 2.99991 3.66878e-20)
(0.416515 3.47264 2.09514e-21)
(0.367568 3.5493 -6.54018e-20)
(0.325176 3.57659 -1.00365e-19)
(0.268788 3.6019 1.47085e-19)
(0.202983 3.59518 4.87361e-20)
(0.241974 0.249907 4.7191e-19)
(0.962817 1.05066 1.31354e-18)
(1.091 1.216 -4.21337e-19)
(1.08217 1.23558 -4.08152e-19)
(1.03129 1.21409 0)
(0.971731 1.18739 9.54172e-19)
(0.904253 1.15791 5.42687e-19)
(0.826779 1.12668 -3.05133e-20)
(0.736641 1.0938 2.632e-20)
(0.628454 1.05942 1.3431e-19)
(0.510034 1.02743 -1.02862e-19)
(0.396362 1.00117 -1.96319e-19)
(0.306334 1.05243 -2.50254e-19)
(0.363289 1.98369 2.76989e-19)
(0.476268 3.35091 1.24044e-19)
(0.471609 3.54796 0)
(0.413823 3.59693 0)
(0.373532 3.64867 1.48486e-19)
(0.299508 3.71977 0)
(0.215565 3.67933 2.24712e-19)
(0.230508 0.250354 -6.91776e-19)
(0.955342 1.0742 -1.09724e-18)
(1.08063 1.24055 0)
(1.07061 1.25943 1.07877e-20)
(1.02002 1.23753 -7.02192e-19)
(0.960862 1.21069 1.42068e-18)
(0.893921 1.18141 3.65623e-19)
(0.817156 1.15081 -3.80101e-20)
(0.727711 1.11936 2.84744e-19)
(0.620159 1.08794 -1.48028e-20)
(0.502111 1.06123 0)
(0.390307 1.04446 0)