/*--------------------------------*- C++ -*----------------------------------*\
| =========                 |                                                 |
| \\      /  F ield         | OpenFOAM: The Open Source CFD Toolbox           |
|  \\    /   O peration     | Version:  2306                                  |
|   \\  /    A nd           | Website:  www.openfoam.com                      |
|    \\/     M anipulation  |                                                 |
\*---------------------------------------------------------------------------*/
FoamFile
{
    version     2.0;
    format      ascii;
    arch        "LSB;label=32;scalar=64";
    class       volVectorField;
    location    "62";
    object      U;
}
// * * * * * * * * * * * * * * * * * * * * * * * * * * * * * * * * * * * * * //

dimensions      [0 1 -1 0 0 0 0];

internalField   nonuniform List<vector> 
8800
(
(0.984957 -0.088452 0)
(1.00213 -0.0568251 0)
(0.999651 -0.0305581 0)
(0.999996 -0.0158652 0)
(1.00008 -0.00872529 0)
(1.00009 -0.00509113 0)
(1.00006 -0.00300258 0)
(1.00002 -0.00169097 0)
(1 -0.0007852 0)
(1.00006 -8.20034e-05 0)
(0.999986 0.000631661 0)
(0.999994 0.00139158 0)
(1.00002 0.00241762 0)
(1.00005 0.00401094 0)
(1.00004 0.00671651 0)
(1.00001 0.01174 0)
(0.999835 0.0220504 0)
(0.999167 0.0411655 0)
(1.00748 0.0768942 0)
(0.773654 0.0450713 0)
(0.361009 -0.015171 0)
(1.04557 -0.074199 0)
(1.0871 -0.0678866 0)
(1.04775 -0.0522975 0)
(1.02459 -0.0383949 0)
(1.01241 -0.0261182 0)
(1.00651 -0.0167691 0)
(1.00363 -0.0102462 0)
(1.00219 -0.00559146 0)
(1.00152 -0.00197592 0)
(1.00138 0.00125907 0)
(1.00173 0.00458723 0)
(1.0027 0.0084959 0)
(1.00472 0.0138285 0)
(1.00881 0.0215466 0)
(1.01734 0.0323599 0)
(1.03444 0.0456963 0)
(1.06548 0.0598011 0)
(1.09407 0.0729186 0)
(0.842197 0.0557161 0)
(0.21709 -0.00164634 0)
(1.07587 -0.0503528 0)
(1.09983 -0.0487128 0)
(1.06465 -0.0401638 0)
(1.03999 -0.0330028 0)
(1.02381 -0.0257036 0)
(1.01402 -0.0183084 0)
(1.00853 -0.0115649 0)
(1.00567 -0.00574607 0)
(1.00448 -0.000414729 0)
(1.00479 0.00473188 0)
(1.00663 0.0100632 0)
(1.01056 0.0161032 0)
(1.01786 0.0229998 0)
(1.03049 0.0302487 0)
(1.05063 0.0372428 0)
(1.08034 0.0445776 0)
(1.10617 0.0517877 0)
(0.942788 0.0413411 0)
(0.216439 0.00166852 0)
(0.175922 -0.000645203 0)
(1.0187 -0.0354072 0)
(1.10559 -0.0414146 0)
(1.07813 -0.0362509 0)
(1.05289 -0.0302263 0)
(1.03562 -0.0244978 0)
(1.02359 -0.0187561 0)
(1.01566 -0.0127153 0)
(1.01099 -0.00655889 0)
(1.00892 -0.000271087 0)
(1.00945 0.0059292 0)
(1.01254 0.0118913 0)
(1.01859 0.0176954 0)
(1.02832 0.0232481 0)
(1.04264 0.028658 0)
(1.06335 0.0343091 0)
(1.09375 0.0402701 0)
(1.09409 0.0418927 0)
(0.828729 0.0227951 0)
(0.174818 0.000668708 0)
(0.15438 -0.000487056 0)
(0.957352 -0.0255508 0)
(1.10411 -0.0350849 0)
(1.08797 -0.0326427 0)
(1.06147 -0.0280926 0)
(1.04359 -0.0230936 0)
(1.03116 -0.0178168 0)
(1.02244 -0.0122923 0)
(1.0168 -0.00636677 0)
(1.01409 0.000118897 0)
(1.01472 0.00660606 0)
(1.01854 0.0124919 0)
(1.02543 0.0177791 0)
(1.03564 0.0227211 0)
(1.05029 0.0275182 0)
(1.07197 0.031989 0)
(1.10065 0.0358621 0)
(1.06905 0.0339971 0)
(0.741089 0.0143767 0)
(0.152718 0.000513229 0)
(0.139861 -0.00035826 0)
(0.900412 -0.0192054 0)
(1.09649 -0.0301377 0)
(1.0961 -0.0292563 0)
(1.06912 -0.0255048 0)
(1.05042 -0.0214016 0)
(1.03746 -0.0166661 0)
(1.02842 -0.0114024 0)
(1.02241 -0.00567359 0)
(1.01936 0.000692076 0)
(1.01996 0.00706808 0)
(1.02397 0.0127107 0)
(1.03104 0.0176654 0)
(1.04155 0.0221164 0)
(1.05682 0.0260621 0)
(1.07941 0.0295401 0)
(1.1029 0.0322046 0)
(1.03707 0.0281519 0)
(0.674378 0.0102647 0)
(0.137515 0.000388976 0)
(0.129219 -0.000273725 0)
(0.850687 -0.0148313 0)
(1.08412 -0.0260318 0)
(1.10178 -0.0263569 0)
(1.07597 -0.0230492 0)
(1.05675 -0.0194003 0)
(1.04335 -0.0151836 0)
(1.03394 -0.0102912 0)
(1.02767 -0.00477333 0)
(1.02441 0.00140218 0)
(1.02488 0.00755166 0)
(1.02887 0.012913 0)
(1.03607 0.0174581 0)
(1.04687 0.0213016 0)
(1.06252 0.0246183 0)
(1.08554 0.0276102 0)
(1.10204 0.0293909 0)
(1.00223 0.023638 0)
(0.622383 0.00788797 0)
(0.126041 0.000310769 0)
(0.121104 -0.000211039 0)
(0.808368 -0.0116605 0)
(1.06883 -0.022433 0)
(1.10532 -0.0237278 0)
(1.08222 -0.0208555 0)
(1.06257 -0.0174249 0)
(1.04889 -0.0134993 0)
(1.03922 -0.00893712 0)
(1.03267 -0.00369135 0)
(1.02917 0.0022549 0)
(1.02947 0.00813825 0)
(1.0334 0.0131489 0)
(1.04067 0.0172311 0)
(1.05156 0.0205845 0)
(1.06744 0.0235029 0)
(1.09083 0.0261898 0)
(1.09831 0.0270665 0)
(0.966986 0.0200924 0)
(0.580595 0.00634169 0)
(0.116913 0.000255864 0)
(0.114814 -0.000162881 0)
(0.772712 -0.00928693 0)
(1.05202 -0.0192644 0)
(1.10768 -0.0212951 0)
(1.0881 -0.0188008 0)
(1.06804 -0.015524 0)
(1.05411 -0.0117633 0)
(1.04425 -0.00740674 0)
(1.03747 -0.00240321 0)
(1.0337 0.00328373 0)
(1.03377 0.00885978 0)
(1.03758 0.0134904 0)
(1.04478 0.0171634 0)
(1.05568 0.0201343 0)
(1.07178 0.0227256 0)
(1.09485 0.0250703 0)
(1.09175 0.0251374 0)
(0.932672 0.0173529 0)
(0.546012 0.00528342 0)
(0.109394 0.000217139 0)
(0.109908 -0.000124586 0)
(0.742789 -0.00744588 0)
(1.03476 -0.0164547 0)
(1.1091 -0.0190054 0)
(1.09368 -0.0168226 0)
(1.07333 -0.0136429 0)
(1.05912 -0.00997795 0)
(1.04907 -0.00574542 0)
(1.04207 -0.000914617 0)
(1.03801 0.00452265 0)
(1.0378 0.00977593 0)
(1.04138 0.0140444 0)
(1.04844 0.0173552 0)
(1.05933 0.0199787 0)
(1.07563 0.0222795 0)
(1.09758 0.0242532 0)
(1.08274 0.0235539 0)
(0.899863 0.0152697 0)
(0.516575 0.00454543 0)
(0.102993 0.000190241 0)
(0.106097 -9.28987e-05 0)
(0.717778 -0.00596227 0)
(1.01787 -0.0139322 0)
(1.10967 -0.0167924 0)
(1.09915 -0.0148904 0)
(1.07853 -0.011727 0)
(1.06403 -0.00809813 0)
(1.05375 -0.00393202 0)
(1.0465 0.000784303 0)
(1.04213 0.00601005 0)
(1.04155 0.0109596 0)
(1.04483 0.0148881 0)
(1.0517 0.017855 0)
(1.06256 0.02014 0)
(1.07904 0.0221779 0)
(1.09897 0.0237543 0)
(1.07168 0.022315 0)
(0.868679 0.0137292 0)
(0.490823 0.00403724 0)
(0.0973673 0.000172648 0)
(0.103192 -6.54946e-05 0)
(0.697035 -0.00471894 0)
(1.00197 -0.0116304 0)
(1.10957 -0.0146191 0)
(1.10446 -0.0129181 0)
(1.08373 -0.00972497 0)
(1.0689 -0.00607454 0)
(1.05836 -0.00191492 0)
(1.05081 0.00273707 0)
(1.04604 0.00779994 0)
(1.04503 0.0124781 0)
(1.04793 0.0160798 0)
(1.05459 0.0187092 0)
(1.06538 0.0206592 0)
(1.082 0.02244 0)
(1.09935 0.0236059 0)
(1.05883 0.021427 0)
(0.838965 0.0126411 0)
(0.467665 0.00370229 0)
(0.0922551 0.000162302 0)
(0.101072 -4.02918e-05 0)
(0.680089 -0.00362804 0)
(0.987518 -0.00947869 0)
(1.10899 -0.0123995 0)
(1.10958 -0.0108191 0)
(1.089 -0.00757351 0)
(1.07382 -0.00384367 0)
(1.06297 0.000372391 0)
(1.05504 0.00501245 0)
(1.0498 0.00996215 0)
(1.04825 0.0143974 0)
(1.05071 0.0176813 0)
(1.05709 0.0199731 0)
(1.0678 0.0215817 0)
(1.08447 0.0230916 0)
(1.09873 0.0238406 0)
(1.04438 0.0209088 0)
(0.8104 0.0119348 0)
(0.446248 0.00350281 0)
(0.0874543 0.000157764 0)
(0.0996742 -1.5453e-05 0)
(0.666636 -0.00262039 0)
(0.974868 -0.00740286 0)
(1.10824 -0.0100749 0)
(1.11465 -0.00853423 0)
(1.09442 -0.00520032 0)
(1.07887 -0.00132986 0)
(1.06763 0.00300344 0)
(1.05925 0.00769439 0)
(1.05341 0.0125806 0)
(1.05122 0.0167959 0)
(1.05315 0.0197652 0)
(1.05921 0.0217107 0)
(1.0698 0.0229576 0)
(1.08649 0.0242025 0)
(1.09688 0.024495 0)
(1.02836 0.0207402 0)
(0.782564 0.0115528 0)
(0.425876 0.00341259 0)
(0.0828019 0.000157855 0)
(0.098982 1.12356e-05 0)
(0.656519 -0.00164189 0)
(0.964335 -0.00533073 0)
(1.10766 -0.00758126 0)
(1.11979 -0.00598882 0)
(1.10008 -0.00251757 0)
(1.0841 0.00156007 0)
(1.07242 0.00607484 0)
(1.06348 0.0108833 0)
(1.05692 0.015754 0)
(1.05395 0.0197674 0)
(1.05525 0.0224174 0)
(1.06092 0.0240013 0)
(1.07136 0.0248648 0)
(1.08797 0.025812 0)
(1.09373 0.0256008 0)
(1.01078 0.0209585 0)
(0.754996 0.011469 0)
(0.405972 0.00341768 0)
(0.0781644 0.000162077 0)
(0.0990166 3.62581e-05 0)
(0.649709 -0.000645054 0)
(0.956222 -0.0031891 0)
(1.10758 -0.00484645 0)
(1.12517 -0.00309553 0)
(1.10607 0.000574093 0)
(1.08963 0.00492989 0)
(1.07741 0.00970381 0)
(1.06779 0.0146989 0)
(1.06035 0.0196001 0)
(1.05645 0.0234245 0)
(1.05699 0.0257412 0)
(1.06219 0.0269424 0)
(1.07246 0.0274092 0)
(1.08869 0.0279907 0)
(1.08911 0.0271715 0)
(0.991466 0.0215881 0)
(0.727169 0.0116643 0)
(0.386008 0.00350893 0)
(0.0734199 0.000169942 0)
(0.0998109 7.29254e-05 0)
(0.64628 0.000377852 0)
(0.950844 -0.000903873 0)
(1.10837 -0.00178559 0)
(1.13099 0.000242018 0)
(1.1125 0.00418688 0)
(1.09555 0.00890987 0)
(1.08269 0.0140277 0)
(1.07223 0.0192831 0)
(1.06374 0.0242637 0)
(1.05871 0.0279085 0)
(1.05834 0.0298672 0)
(1.06298 0.0306644 0)
(1.07303 0.030704 0)
(1.08853 0.0308648 0)
(1.08275 0.029298 0)
(0.970173 0.0226613 0)
(0.698518 0.0121306 0)
(0.365492 0.00367917 0)
(0.0684607 0.000180929 0)
(0.101576 0.000107956 0)
(0.646615 0.00154136 0)
(0.948543 0.00160262 0)
(1.11045 0.00171793 0)
(1.13745 0.00411952 0)
(1.11952 0.00847555 0)
(1.10198 0.0136646 0)
(1.08833 0.0192198 0)
(1.07686 0.0248124 0)
(1.06708 0.0299153 0)
(1.0607 0.0333815 0)
(1.05926 0.0349401 0)
(1.06323 0.0352941 0)
(1.07301 0.0348688 0)
(1.08724 0.0345455 0)
(1.07439 0.0320662 0)
(0.946524 0.0242171 0)
(0.668425 0.0128648 0)
(0.343957 0.00392339 0)
(0.0631893 0.000194575 0)
(0.104374 0.000157652 0)
(0.651116 0.00297808 0)
(0.949823 0.00449631 0)
(1.11431 0.00574237 0)
(1.14476 0.00871328 0)
(1.12727 0.0136222 0)
(1.10904 0.0193919 0)
(1.09444 0.025492 0)
(1.08172 0.0315021 0)
(1.07038 0.0367577 0)
(1.06239 0.0400134 0)
(1.05972 0.0411118 0)
(1.06288 0.0409863 0)
(1.07233 0.0400356 0)
(1.08463 0.0391709 0)
(1.06368 0.0355782 0)
(0.920019 0.0262936 0)
(0.636228 0.0138621 0)
(0.320956 0.00423402 0)
(0.0575219 0.000210099 0)
(0.108478 0.000223443 0)
(0.660281 0.00465783 0)
(0.955137 0.00791563 0)
(1.12044 0.0104952 0)
(1.15323 0.0142197 0)
(1.13597 0.0198571 0)
(1.1169 0.0263489 0)
(1.10112 0.0331166 0)
(1.08686 0.0396213 0)
(1.07362 0.0450364 0)
(1.06374 0.0480146 0)
(1.05963 0.0485825 0)
(1.06185 0.0479145 0)
(1.07087 0.046381 0)
(1.08078 0.044901 0)
(1.05015 0.0399404 0)
(0.890014 0.0289207 0)
(0.601208 0.0151083 0)
(0.296063 0.00459913 0)
(0.0513926 0.000226271 0)
(0.114226 0.000312102 0)
(0.674853 0.00675053 0)
(0.965136 0.012064 0)
(1.12942 0.0162139 0)
(1.16319 0.0209097 0)
(1.14587 0.0275062 0)
(1.12575 0.0348865 0)
(1.10847 0.0424469 0)
(1.0923 0.049499 0)
(1.07677 0.055035 0)
(1.06467 0.0576276 0)
(1.05885 0.0575267 0)
(1.06004 0.0562538 0)
(1.06859 0.0540739 0)
(1.07543 0.0518631 0)
(1.03321 0.0452355 0)
(0.855728 0.0321023 0)
(0.562623 0.0165693 0)
(0.268917 0.00499762 0)
(0.0447678 0.000241343 0)
(0.122131 0.000439787 0)
(0.695797 0.00949345 0)
(0.980692 0.0172474 0)
(1.14191 0.0232397 0)
(1.17513 0.0291786 0)
(1.15727 0.0370252 0)
(1.13576 0.0454798 0)
(1.11656 0.0539429 0)
(1.098 0.0615399 0)
(1.07972 0.067076 0)
(1.06504 0.0691023 0)
(1.05728 0.0681743 0)
(1.05734 0.0661518 0)
(1.0654 0.0632433 0)
(1.06826 0.060188 0)
(1.01209 0.0515319 0)
(0.816239 0.035811 0)
(0.519745 0.0181804 0)
(0.239265 0.00539746 0)
(0.03766 0.000253015 0)
(0.132918 0.00062251 0)
(0.724369 0.0132596 0)
(1.00296 0.0239385 0)
(1.15871 0.032122 0)
(1.18966 0.0396281 0)
(1.17053 0.0490851 0)
(1.14711 0.0587991 0)
(1.12539 0.0682122 0)
(1.10384 0.0762351 0)
(1.08229 0.0815156 0)
(1.06468 0.0826851 0)
(1.05481 0.080729 0)
(1.05365 0.0778124 0)
(1.06102 0.0740175 0)
(1.0586 0.0699223 0)
(0.985791 0.0588313 0)
(0.770518 0.0399411 0)
(0.471947 0.0198257 0)
(0.207044 0.00575034 0)
(0.030147 0.000258288 0)
(0.147836 0.000913745 0)
(0.762567 0.0186721 0)
(1.03361 0.0329248 0)
(1.18074 0.0438016 0)
(1.20753 0.0533642 0)
(1.18595 0.0647339 0)
(1.15982 0.07581 0)
(1.13479 0.0860425 0)
(1.10955 0.0941549 0)
(1.08419 0.0987208 0)
(1.06335 0.0986042 0)
(1.05125 0.0953344 0)
(1.04883 0.0913653 0)
(1.05506 0.0866912 0)
(1.04576 0.0811184 0)
(0.953056 0.0670031 0)
(0.717538 0.0442809 0)
(0.418883 0.0213295 0)
(0.172506 0.00599238 0)
(0.0223942 0.000253734 0)
(0.169077 0.00141729 0)
(0.813646 0.0268757 0)
(1.07519 0.0457555 0)
(1.20915 0.0601307 0)
(1.22936 0.0724768 0)
(1.20362 0.0855853 0)
(1.17364 0.0978209 0)
(1.14434 0.108361 0)
(1.11467 0.11589 0)
(1.08502 0.119025 0)
(1.06075 0.117037 0)
(1.04641 0.112089 0)
(1.04275 0.106876 0)
(1.0475 0.10129 0)
(1.02872 0.0937441 0)
(0.912345 0.0757497 0)
(0.6565 0.0484923 0)
(0.360799 0.0224641 0)
(0.136385 0.00605218 0)
(0.0146768 0.000235553 0)
(0.200023 0.00253195 0)
(0.883338 0.0405339 0)
(1.13138 0.0662648 0)
(1.24435 0.0847046 0)
(1.25486 0.0996747 0)
(1.22292 0.113978 0)
(1.18775 0.126423 0)
(1.1532 0.136143 0)
(1.11849 0.141972 0)
(1.08425 0.14267 0)
(1.05652 0.138057 0)
(1.04005 0.130999 0)
(1.03528 0.124301 0)
(1.03799 0.1176 0)
(1.00609 0.107538 0)
(0.861859 0.0844687 0)
(0.587364 0.052066 0)
(0.299254 0.0230381 0)
(0.100302 0.00589989 0)
(0.00747177 0.000200478 0)
(0.242218 0.0087599 9.34689e-20)
(0.975708 0.067693 8.34414e-20)
(1.19988 0.100752 -2.92157e-20)
(1.28321 0.121191 0)
(1.28124 0.138564 -7.46497e-34)
(1.2417 0.152235 1.09108e-20)
(1.20057 0.163123 -1.9583e-20)
(1.16027 0.17061 0)
(1.12017 0.173659 4.00492e-34)
(1.08107 0.171115 -2.40457e-20)
(1.04967 0.163377 0)
(1.03093 0.154003 -2.84427e-20)
(1.02517 0.145937 -8.37955e-20)
(1.02518 0.13894 -3.94945e-20)
(0.974143 0.125044 -1.186e-20)
(0.795852 0.0947536 -7.04124e-21)
(0.504838 0.0554735 0)
(0.232541 0.0234441 4.90729e-21)
(0.0643051 0.00585738 5.77072e-21)
(0.000766963 0.000175689 1.02493e-19)
(0.27164 0.0240816 6.92825e-20)
(1.05206 0.110327 1.05459e-21)
(1.25642 0.149884 7.80569e-21)
(1.31791 0.170444 0)
(1.30432 0.187734 -3.79638e-20)
(1.25774 0.199205 -4.31157e-20)
(1.21071 0.207759 -1.97981e-20)
(1.16458 0.212731 -7.02776e-20)
(1.11885 0.212957 0)
(1.07444 0.207228 1.02585e-19)
(1.03882 0.196446 1.01567e-19)
(1.01746 0.18475 3.0126e-20)
(1.00963 0.174803 1.09665e-19)
(1.00184 0.165214 1.5388e-19)
(0.924367 0.145664 0)
(0.707368 0.105911 2.15891e-19)
(0.408296 0.0587906 3.08949e-19)
(0.163373 0.0232314 3.42e-19)
(0.0286038 0.00461654 -3.8915e-19)
(-0.00600816 -0.00047626 -7.21759e-21)
(0.272862 0.0401012 0)
(1.10036 0.165693 1.24586e-20)
(1.29446 0.210268 0)
(1.34485 0.23033 -4.96141e-20)
(1.3224 0.244601 0)
(1.26989 0.252175 -8.48361e-20)
(1.21732 0.256991 4.04671e-20)
(1.16564 0.258358 -1.41571e-19)
(1.11453 0.254917 -3.15415e-21)
(1.06504 0.245386 5.30932e-20)
(1.02539 0.231152 2.23142e-19)
(1.00146 0.216871 -4.72157e-22)
(0.991249 0.20488 -7.96292e-20)
(0.975691 0.192485 -1.44807e-19)
(0.87949 0.166548 1.70855e-19)
(0.64479 0.116871 -3.01966e-19)
(0.353161 0.0620573 -3.97684e-20)
(0.128833 0.0228974 0)
(0.0116448 0.00277199 -2.07874e-23)
(-0.0094354 -0.00133015 0)
(0.266456 0.0538638 1.62476e-19)
(1.12637 0.224277 -8.00705e-20)
(1.31783 0.275171 -6.17656e-20)
(1.36265 0.295429 2.3485e-20)
(1.33406 0.305795 -3.95777e-20)
(1.2771 0.308837 1.77789e-19)
(1.21995 0.309239 8.4458e-20)
(1.16346 0.30636 0)
(1.10753 0.298701 -2.66523e-19)
(1.05336 0.284905 0)
(1.0099 0.266906 -1.17138e-19)
(0.983432 0.249826 -1.44334e-19)
(0.970824 0.23557 -8.66705e-20)
(0.949058 0.219897 -1.05109e-19)
(0.842598 0.187648 0)
(0.604795 0.129464 0)
(0.325248 0.0679738 -2.58129e-19)
(0.113278 0.0238898 5.08336e-20)
(0.00324376 0.00108169 -2.97113e-20)
(-0.0116715 -0.00230133 -3.42172e-20)
(0.258787 0.0659609 -6.5918e-20)
(1.13769 0.282704 0)
(1.33057 0.340962 1.26472e-19)
(1.37226 0.361916 6.61779e-20)
(1.33939 0.368458 9.14519e-20)
(1.27919 0.366971 0)
(1.21844 0.362848 8.27307e-20)
(1.158 0.355537 1.5668e-19)
(1.09791 0.343445 1.36591e-19)
(1.03951 0.325174 2.49952e-19)
(0.992501 0.30321 0)
(0.963536 0.283162 -3.11264e-19)
(0.948583 0.266506 -1.87233e-19)
(0.922175 0.247638 -1.10588e-19)
(0.811803 0.209882 6.7419e-19)
(0.57956 0.144248 7.97574e-20)
(0.313064 0.0764488 3.73084e-19)
(0.1101 0.0265616 -1.76659e-18)
(0.00136145 0.000130262 1.04182e-18)
(-0.0127228 -0.00316915 -1.23572e-18)
(0.251428 0.0768786 -3.273e-20)
(1.13964 0.339138 1.21399e-20)
(1.33561 0.405759 -1.37073e-20)
(1.3753 0.427897 -6.72222e-20)
(1.33933 0.430854 -7.73293e-20)
(1.27671 0.425021 3.59078e-21)
(1.21313 0.416532 -8.96202e-20)
(1.14942 0.404875 1.62123e-19)
(1.08574 0.388383 -2.93965e-19)
(1.0236 0.365616 0)
(0.97329 0.339624 -1.41127e-19)
(0.941897 0.316541 -3.21228e-21)
(0.924633 0.297441 -2.04877e-19)
(0.894963 0.275581 0)
(0.78512 0.232946 -1.46084e-19)
(0.562956 0.161035 -3.45173e-19)
(0.310332 0.0872257 9.14934e-19)
(0.114028 0.0310707 -9.02227e-19)
(0.00447547 0.000492517 1.27773e-18)
(-0.0124602 -0.00372215 -1.30756e-18)
(0.245211 0.0869507 -8.15541e-22)
(1.13577 0.392906 -4.365e-21)
(1.33509 0.468564 -3.79096e-20)
(1.3732 0.492172 2.69346e-20)
(1.33495 0.491942 -3.89474e-20)
(1.27048 0.482048 0)
(1.20462 0.469448 -8.35449e-20)
(1.13818 0.453652 -1.69836e-19)
(1.07142 0.432923 -1.52869e-19)
(1.00591 0.405773 0)
(0.952548 0.37582 -1.46593e-19)
(0.91881 0.34974 -1.81323e-19)
(0.899365 0.328248 2.22346e-19)
(0.867382 0.303533 -1.34727e-19)
(0.760479 0.256418 -6.39308e-19)
(0.549961 0.179304 3.77736e-19)
(0.311142 0.0995554 1.11386e-19)
(0.121304 0.0373246 0)
(0.0106678 0.0023201 -1.23715e-18)
(-0.0111676 -0.00387773 -4.47157e-20)
(0.240246 0.0965031 1.54286e-21)
(1.12839 0.44382 -7.44703e-22)
(1.33053 0.528916 1.76513e-20)
(1.36719 0.554039 9.64563e-20)
(1.3272 0.551057 -1.43622e-19)
(1.26133 0.537468 1.69278e-19)
(1.19361 0.521061 1.80009e-19)
(1.12485 0.50139 -2.71436e-19)
(1.05535 0.47666 9.42094e-20)
(0.986779 0.44531 -6.14964e-19)
(0.930588 0.411522 -1.65711e-19)
(0.894627 0.382502 0)
(0.873136 0.358688 2.41357e-19)
(0.839419 0.331227 2.8909e-19)
(0.736208 0.280069 3.45088e-19)
(0.53745 0.198372 -4.11344e-19)
(0.312404 0.112789 -1.21361e-19)
(0.129032 0.0449805 1.42563e-19)
(0.0180268 0.00533561 0)
(-0.00929749 -0.00367358 -9.72226e-20)
(0.236441 0.105688 -6.00207e-20)
(1.11913 0.491984 2.56402e-20)
(1.32317 0.586658 -1.5614e-20)
(1.35832 0.613168 5.8302e-20)
(1.31689 0.607801 -6.4594e-20)
(1.24994 0.590883 -8.13226e-21)
(1.1807 0.571022 -1.96766e-19)
(1.10994 0.54779 -9.82205e-20)
(1.03799 0.519324 -2.65694e-19)
(0.966608 0.484 6.33283e-22)
(0.907767 0.446508 -5.19485e-19)
(0.869727 0.414611 4.37672e-19)
(0.84638 0.388521 -2.65424e-19)
(0.811223 0.358404 3.1886e-19)
(0.71141 0.303391 0)
(0.523697 0.217494 -2.24004e-19)
(0.311312 0.126342 3.25075e-22)
(0.135389 0.0533786 -6.23046e-19)
(0.0251286 0.00910487 -9.10226e-20)
(-0.0071953 -0.00318765 0)
(0.233684 0.114647 0)
(1.10895 0.537629 3.41508e-20)
(1.31391 0.642051 -1.07011e-20)
(1.34738 0.66942 -5.29318e-20)
(1.3047 0.661965 -8.2239e-20)
(1.23691 0.642071 0)
(1.16641 0.619108 -8.94755e-20)
(1.09392 0.592642 -2.09954e-21)
(1.01976 0.560748 5.69604e-19)
(0.945729 0.521695 -8.45548e-20)
(0.884354 0.480624 -3.75106e-19)
(0.844366 0.445935 2.27701e-19)
(0.819312 0.417591 -4.45121e-21)
(0.782797 0.384738 3.39416e-19)
(0.685507 0.325972 2.0861e-19)
(0.508151 0.235792 -4.84307e-19)
(0.307107 0.139538 5.7185e-19)
(0.138872 0.0616571 1.69104e-19)
(0.0306598 0.0129872 6.93652e-19)
(-0.00526834 -0.00256683 -1.82463e-18)
(0.231893 0.123548 -2.87059e-20)
(1.09853 0.580939 3.37837e-20)
(1.30342 0.69448 -1.83854e-20)
(1.33497 0.722765 4.05194e-20)
(1.2912 0.71345 0)
(1.22276 0.690904 -7.79205e-20)
(1.15121 0.665185 3.00822e-19)
(1.07718 0.635821 2.15566e-19)
(1.00097 0.600813 0)
(0.924413 0.558298 -1.21764e-18)
(0.860579 0.51379 1.01501e-18)
(0.81874 0.476371 0)
(0.792094 0.445725 3.1039e-19)
(0.754257 0.40998 -4.45123e-21)
(0.658949 0.347131 -6.68267e-19)
(0.490453 0.25246 2.60658e-19)
(0.299791 0.151478 0)
(0.13884 0.0689935 9.11459e-19)
(0.0338636 0.0163461 0)
(-0.00378507 -0.00199721 -8.63997e-19)
(0.230917 0.132437 3.69905e-20)
(1.08829 0.622107 5.14398e-20)
(1.29212 0.744048 -1.61042e-20)
(1.32157 0.773213 0)
(1.27684 0.762232 -6.96995e-20)
(1.20789 0.73734 0)
(1.13546 0.709181 -2.97064e-19)
(1.06005 0.67725 -1.00239e-19)
(0.98193 0.639459 1.00615e-19)
(0.902921 0.593763 -6.02287e-19)
(0.836638 0.545989 1.04854e-19)
(0.792979 0.505826 0)
(0.76484 0.472719 -6.63039e-19)
(0.725645 0.433822 4.3527e-21)
(0.631612 0.366427 0)
(0.470641 0.267 2.55897e-21)
(0.289357 0.161333 8.36722e-19)
(0.13557 0.0745481 -7.87175e-19)
(0.0345569 0.0186333 2.31117e-19)
(-0.00289092 -0.0016193 0)
(0.230439 0.141218 0)
(1.07856 0.661197 6.68462e-20)
(1.28026 0.790919 3.54115e-20)
(1.3076 0.820811 -4.97092e-21)
(1.262 0.808337 -2.29717e-20)
(1.19264 0.781378 -1.7569e-19)
(1.11947 0.75108 1.11443e-19)
(1.04281 0.716897 -1.18254e-19)
(0.962897 0.676648 4.48897e-19)
(0.881463 0.628083 -9.63175e-19)
(0.812684 0.577214 -7.95956e-21)
(0.767175 0.53424 -2.90497e-19)
(0.737557 0.498446 1.07577e-18)
(0.69693 0.456033 -5.15449e-21)
(0.603705 0.383592 -5.18636e-19)
(0.448986 0.279005 -9.21067e-19)
(0.276179 0.168869 0)
(0.129559 0.0780905 0)
(0.0333166 0.0196836 2.49466e-19)
(-0.00249683 -0.00148933 -1.44221e-19)
(0.230612 0.150031 5.74658e-20)
(1.06938 0.698108 -1.57242e-19)
(1.26814 0.835186 -3.81763e-20)
(1.29338 0.865639 0)
(1.24696 0.851824 -3.00942e-21)
(1.17729 0.823046 -1.61033e-19)
(1.10349 0.79089 2.69302e-19)
(1.02572 0.754755 4.65957e-19)
(0.944087 0.712376 5.83685e-19)
(0.860237 0.661271 -7.87063e-19)
(0.788859 0.60749 -8.72523e-19)
(0.741375 0.561625 7.76857e-19)
(0.710237 0.522892 0)
(0.668044 0.476404 -2.36044e-19)
(0.575136 0.398325 -5.60406e-19)
(0.425465 0.288177 -6.61787e-19)
(0.260661 0.173586 -7.79632e-19)
(0.12112 0.0794311 2.29553e-19)
(0.0305017 0.0195898 -1.34047e-19)
(-0.00248302 -0.00157339 5.6348e-22)
(0.230929 0.158754 0)
(1.0609 0.733302 0)
(1.25599 0.876948 4.91475e-21)
(1.2791 0.907822 0)
(1.23195 0.892783 5.07433e-20)
(1.16206 0.862406 1.09465e-19)
(1.08774 0.828638 0)
(1.00895 0.790835 5.54033e-20)
(0.925687 0.746645 9.74482e-19)
(0.839422 0.693352 -1.80914e-18)
(0.765285 0.636874 0)
(0.715617 0.588074 -5.00021e-19)
(0.682788 0.546077 -6.07026e-21)
(0.638852 0.494783 -4.71386e-21)
(0.545981 0.410338 5.99334e-19)
(0.400657 0.294275 -2.60481e-22)
(0.243333 0.175428 -1.67896e-18)
(0.110825 0.0786072 4.93657e-19)
(0.026457 0.0184216 1.45173e-19)
(-0.00270359 -0.0017941 0)
(0.231359 0.167341 -2.4287e-19)
(1.05285 0.766849 -1.14533e-19)
(1.24391 0.916287 -1.34964e-19)
(1.26496 0.947478 8.31634e-20)
(1.21716 0.931289 5.99137e-20)
(1.14711 0.899519 0)
(1.07236 0.86437 1.63294e-19)
(0.992661 0.825164 -1.23401e-19)
(0.90785 0.779474 7.75833e-21)
(0.819179 0.72436 1.3321e-19)
(0.742089 0.665449 1.12968e-18)
(0.689931 0.613744 -1.75393e-19)
(0.655103 0.568064 -6.62411e-19)
(0.609201 0.51101 -2.74621e-19)
(0.516243 0.419311 3.25041e-19)
(0.375133 0.297075 1.05952e-22)
(0.224724 0.174294 4.51769e-19)
(0.0994735 0.0757367 -1.06126e-18)
(0.0218902 0.0164035 1.24866e-18)
(-0.00305191 -0.00211669 1.79361e-19)
(0.231677 0.175677 9.43045e-20)
(1.04525 0.798836 -6.59272e-20)
(1.23202 0.953303 1.22098e-20)
(1.25106 0.98474 6.74518e-20)
(1.20271 0.967455 5.56222e-22)
(1.13258 0.934461 -1.91102e-19)
(1.05749 0.898138 4.73883e-20)
(0.97697 0.857762 -5.14376e-19)
(0.890706 0.810866 -1.0742e-18)
(0.799637 0.754302 -1.07801e-18)
(0.719409 0.693312 0)
(0.664362 0.638815 -7.69753e-19)
(0.627068 0.588963 9.54233e-19)
(0.578822 0.524974 0)
(0.485833 0.424901 -6.95809e-19)
(0.349411 0.296184 4.13122e-19)
(0.206112 0.17004 -4.85285e-19)
(0.0883283 0.0711585 -5.70428e-19)
(0.0174865 0.0139174 -1.00477e-18)
(-0.00341822 -0.00247659 -7.71756e-19)
(0.232344 0.183879 -1.08189e-19)
(1.03794 0.829253 7.04841e-20)
(1.22039 0.98807 1.57227e-19)
(1.2375 1.01967 1.07337e-19)
(1.1887 1.00137 6.98809e-21)
(1.11854 0.96732 -1.02793e-19)
(1.04321 0.929995 1.58112e-19)
(0.961968 0.888674 -5.28543e-19)
(0.874341 0.840845 -6.36209e-19)
(0.780918 0.7832 1.12846e-18)
(0.697375 0.720553 2.47976e-18)
(0.638982 0.663452 0)
(0.598589 0.608948 0)
(0.54737 0.536719 -3.15704e-19)
(0.454409 0.426735 0)
(0.323663 0.290761 8.87098e-19)
(0.188789 0.161874 1.04223e-18)
(0.0793623 0.0648404 0)
(0.0144572 0.0113477 0)
(-0.00368824 -0.00279976 8.28291e-19)
(0.232677 0.191648 1.25286e-19)
(1.03093 0.858091 1.02786e-19)
(1.20907 1.02071 1.15131e-19)
(1.22436 1.05239 -1.1369e-19)
(1.1752 1.03316 -6.72937e-21)
(1.10508 0.998172 1.0445e-19)
(1.02958 0.960001 -2.16987e-19)
(0.947719 0.917927 -8.875e-22)
(0.858834 0.869418 -1.0051e-20)
(0.763116 0.811053 -9.4009e-21)
(0.676133 0.747236 1.27644e-18)
(0.613905 0.687793 0)
(0.56964 0.628279 9.65097e-19)
(0.514463 0.546484 6.73412e-19)
(0.421237 0.424658 1.61976e-18)
(0.29738 0.279587 4.77347e-19)
(0.174106 0.147244 -5.60226e-19)
(0.0766897 0.053916 -3.28007e-19)
(0.018523 0.00748617 0)
(-0.00201793 -0.00242186 8.89269e-19)
(0.233311 0.19943 -2.85817e-19)
(1.02421 0.88544 0)
(1.19806 1.05127 1.40727e-19)
(1.21166 1.08299 -1.00227e-19)
(1.16225 1.0629 2.90987e-20)
(1.09221 1.0271 -1.09023e-19)
(1.01664 0.988214 4.20856e-19)
(0.934261 0.945558 -4.28881e-20)
(0.844231 0.896596 0)
(0.746313 0.837839 -1.24407e-18)
(0.655825 0.773382 -2.77398e-18)
(0.589286 0.71196 1.13454e-19)
(0.540303 0.647272 1.33095e-18)
(0.479834 0.554734 0)
(0.385207 0.419165 1.09199e-18)
(0.268305 0.261754 0)
(0.160222 0.120576 0)
(0.0850747 0.0244433 -3.54191e-19)
(0.0510202 -0.00814627 0)
(0.0272418 0.0106268 2.37992e-19)
(0.233586 0.206616 -3.23214e-19)
(1.01772 0.911642 0)
(1.18735 1.07995 2.38242e-19)
(1.19935 1.1117 0)
(1.14983 1.09086 -2.40749e-20)
(1.0799 1.0544 0)
(1.00434 1.01495 2.06004e-20)
(0.921497 0.971904 7.24594e-20)
(0.830408 0.922741 7.94566e-20)
(0.730339 0.863944 -1.36218e-18)
(0.636264 0.799427 8.31688e-20)
(0.564884 0.736574 9.11566e-19)
(0.510176 0.666741 1.29657e-18)
(0.442604 0.562115 1.74673e-19)
(0.344458 0.411815 8.54956e-19)
(0.231631 0.238185 0)
(0.135238 0.0779508 1.17841e-18)
(0.0736952 -0.0201734 -6.8205e-19)
(0.0411914 0.0457921 7.87699e-19)
(-0.0595434 0.435654 -9.34588e-19)
(0.233837 0.213607 2.69953e-19)
(1.0112 0.936468 4.19027e-19)
(1.17686 1.10708 0)
(1.18729 1.13897 9.7311e-21)
(1.13773 1.11764 8.34142e-20)
(1.06787 1.08075 1.18983e-19)
(0.992362 1.041 1.45181e-19)
(0.909015 0.997901 0)
(0.816831 0.94894 5.27452e-19)
(0.714523 0.890674 -7.12219e-20)
(0.616538 0.826851 0)
(0.539449 0.763337 0)
(0.47732 0.6882 1.16287e-18)
(0.400422 0.569176 -5.40138e-19)
(0.295867 0.404671 -8.6681e-19)
(0.182611 0.212473 0)
(0.0784601 0.0852433 5.88035e-19)
(0.00600328 0.440891 -6.73564e-19)
(0.0315741 1.8949 -3.70809e-19)
(0.0623733 2.81093 -4.88733e-19)
(0.233864 0.219842 -2.04304e-19)
(1.00476 0.960084 -5.41197e-19)
(1.16661 1.13265 1.43927e-19)
(1.1755 1.16467 1.0963e-19)
(1.12599 1.14299 0)
(1.0562 1.10587 6.08067e-20)
(0.9809 1.06605 1.96944e-19)
(0.897006 1.02312 -3.50962e-20)
(0.803772 0.974676 7.8702e-20)
(0.699246 0.917424 1.29962e-18)
(0.597242 0.854985 1.40228e-18)
(0.513919 0.791903 1.02341e-18)
(0.442545 0.711651 1.17049e-18)
(0.354833 0.574853 -1.26978e-18)
(0.245341 0.401721 -1.30932e-18)
(0.122319 0.25495 0)
(0.0438762 0.832085 0)
(0.09846 2.55399 3.2406e-19)
(0.10129 3.20244 0)
(0.103917 3.38828 7.14177e-19)
(0.23692 0.22563 0)
(0.998973 0.982763 0)
(1.15632 1.15648 0)
(1.16374 1.18865 3.48665e-20)
(1.11424 1.16667 7.99572e-20)
(1.04467 1.12961 1.84254e-20)
(0.969856 1.09 1.25941e-19)
(0.885414 1.04744 -3.42408e-20)
(0.791179 0.999799 6.58871e-19)
(0.684522 0.944045 -1.79341e-20)
(0.578502 0.88369 2.77246e-18)
(0.488613 0.822163 -1.18076e-19)
(0.405928 0.737929 1.41837e-19)
(0.308312 0.577115 1.83919e-19)
(0.184349 0.414732 -7.21585e-21)
(0.0997956 0.964208 3.56056e-21)
(0.138759 2.72586 -1.71489e-18)
(0.146063 3.29364 -6.35615e-19)
(0.135326 3.42581 3.21114e-19)
(0.123085 3.44772 -3.53142e-19)
(0.156782 0.177731 1.18152e-19)
(0.988661 1.00741 0)
(1.1457 1.17876 -2.89076e-19)
(1.15245 1.21133 -3.05818e-19)
(1.10323 1.18937 2.18932e-19)
(1.03413 1.1526 -8.92171e-21)
(0.959134 1.11288 -1.28583e-19)
(0.874322 1.07098 3.79433e-19)
(0.779193 1.02446 -5.37666e-19)
(0.670617 0.970698 0)
(0.560695 0.913151 1.35935e-18)
(0.464054 0.853905 -8.35671e-19)
(0.36872 0.769673 0)
(0.254279 0.577826 1.65937e-19)
(0.143758 0.748218 4.03965e-19)
(0.154263 2.5008 -4.71707e-19)
(0.209597 3.32309 5.21358e-19)
(0.19038 3.43808 2.82558e-19)
(0.158105 3.45962 3.11287e-19)
(0.13681 3.46988 5.01641e-19)
(0.277003 0.263925 -2.07621e-19)
(0.97259 1.01718 0)
(1.12768 1.20438 3.24474e-19)
(1.13785 1.24187 3.44895e-19)
(1.08606 1.22254 -2.58965e-19)
(1.01624 1.18618 -3.78211e-20)
(0.940242 1.14806 1.18065e-19)
(0.854937 1.10741 2.97627e-20)
(0.75852 1.0631 5.149e-19)
(0.64725 1.01337 1.12375e-18)
(0.532148 0.962297 7.69714e-20)
(0.425099 0.90847 7.44307e-19)
(0.300839 0.809134 1.3226e-19)
(0.213438 0.926264 -1.68031e-19)
(0.227875 2.35235 -3.76097e-19)
(0.287542 3.32591 3.5424e-19)
(0.271126 3.46643 -3.99652e-19)
(0.235719 3.48845 -2.31971e-19)
(0.199224 3.51588 -1.89733e-19)
(0.14858 3.50972 -1.81804e-20)
(0.266164 0.2615 0)
(0.970474 1.0402 9.77815e-20)
(1.11941 1.22798 -6.85341e-20)
(1.12735 1.26563 -4.28145e-20)
(1.07532 1.24577 -1.88034e-19)
(1.00544 1.20962 4.75864e-20)
(0.929148 1.17167 -6.02143e-20)
(0.843647 1.13185 2.67448e-20)
(0.746708 1.08902 -5.37545e-19)
(0.63415 1.04217 -2.71857e-20)
(0.516237 0.995969 -2.47051e-18)
(0.404044 0.946303 1.06303e-19)
(0.283501 0.87501 -1.2438e-19)
(0.253875 1.48599 -1.56493e-19)
(0.327521 3.10338 3.49197e-20)
(0.347034 3.46464 9.32708e-22)
(0.306307 3.51989 5.90301e-19)
(0.269393 3.54661 2.88671e-19)
(0.22099 3.56975 -7.22118e-20)
(0.163634 3.56563 -8.73993e-20)
(0.250529 0.259611 2.49489e-19)
(0.966892 1.0658 6.75019e-19)
(1.11071 1.25362 -1.97672e-19)
(1.11622 1.29074 -1.61984e-19)
(1.06396 1.27037 0)
(0.994217 1.23425 1.29533e-19)
(0.917915 1.19656 -5.7829e-20)
(0.832487 1.15752 2.34975e-20)
(0.735342 1.11628 -5.99305e-20)
(0.622034 1.07257 -1.02096e-18)
(0.502181 1.03166 -1.14193e-18)
(0.386511 0.985845 -8.67385e-19)
(0.286446 1.00472 -9.51202e-19)
(0.323311 2.20963 9.73596e-19)
(0.413854 3.37625 8.00528e-19)
(0.391127 3.52202 0)
(0.344971 3.5665 0)
(0.306868 3.60648 -5.87348e-20)
(0.256902 3.6649 0)
(0.175942 3.64127 -6.0835e-20)
(0.240119 0.261541 -3.79239e-19)
(0.961208 1.09231 -5.80722e-19)
(1.10058 1.28047 0)
(1.10373 1.31657 1.15598e-20)
(1.05133 1.29558 -2.2047e-19)
(0.98189 1.2594 2.3582e-19)
(0.905906 1.222 -1.98717e-20)
(0.820763 1.18366 1.35702e-20)
(0.723656 1.14394 -3.82297e-19)