/*--------------------------------*- C++ -*----------------------------------*\
  =========                 |
  \\      /  F ield         | OpenFOAM: The Open Source CFD Toolbox
   \\    /   O peration     | Website:  https://openfoam.org
    \\  /    A nd           | Version:  8
     \\/     M anipulation  |
\*---------------------------------------------------------------------------*/
FoamFile
{
    version     2.0;
    format      ascii;
    class       volScalarField;
    location    "0.005";
    object      mag(U);
}
// * * * * * * * * * * * * * * * * * * * * * * * * * * * * * * * * * * * * * //

dimensions      [0 1 -1 0 0 0 0];

internalField   nonuniform List<scalar> 
1000
(
5.25143e-13
4.23032e-13
4.23032e-13
2.04222e-13
3.7927e-13
2.33397e-13
5.10556e-13
5.54317e-13
6.27254e-13
6.27254e-13
4.95968e-13
4.66794e-13
4.37619e-13
5.98079e-13
6.85603e-13
6.85603e-13
7.29365e-13
8.31476e-13
7.5854e-13
1.07946e-12
9.33587e-13
1.2691e-12
1.13781e-12
1.09405e-12
1.34203e-12
1.35662e-12
1.21075e-12
1.31286e-12
1.34203e-12
1.23992e-12
1.50249e-12
1.21075e-12
1.25451e-12
1.56084e-12
1.38579e-12
1.69213e-12
1.21075e-12
1.32744e-12
9.91936e-13
1.23992e-12
1.10863e-12
1.45873e-12
1.13781e-12
1.22533e-12
1.2691e-12
1.12322e-12
1.23992e-12
7.73127e-13
8.46063e-13
4.52206e-13
5.10556e-13
3.93857e-13
1.75048e-13
1.16698e-13
7.29365e-14
1.16698e-13
2.33397e-13
7.29365e-14
4.37619e-14
2.62571e-13
2.77159e-13
3.7927e-13
1.89635e-13
3.64683e-13
3.20921e-13
4.08444e-13
7.29365e-14
1.45873e-13
1.6046e-13
3.06333e-13
3.50095e-13
5.98079e-13
3.50095e-13
7.14778e-13
3.06333e-13
6.56429e-13
4.81381e-13
8.75238e-13
6.41841e-13
9.77349e-13
1.25451e-12
1.18157e-12
1.05029e-12
1.47332e-12
1.29827e-12
1.59002e-12
1.35662e-12
1.92552e-12
1.45873e-12
2.04222e-12
1.70671e-12
2.08598e-12
1.80883e-12
1.79424e-12
1.70671e-12
1.56084e-12
1.85259e-12
1.28368e-12
1.42956e-12
1.40038e-12
1.34203e-12
1.45873e-12
1.47332e-12
1.64836e-12
1.2691e-12
1.85259e-12
1.42956e-12
2.01305e-12
1.69213e-12
2.0714e-12
1.67754e-12
1.9547e-12
1.94011e-12
1.86717e-12
1.86717e-12
1.86717e-12
1.80883e-12
2.05681e-12
1.54625e-12
1.41497e-12
1.18157e-12
1.51708e-12
8.16889e-13
1.07946e-12
9.04413e-13
8.16889e-13
6.41841e-13
6.71016e-13
3.50095e-13
4.08444e-13
3.93857e-13
3.64683e-13
5.25143e-13
5.54317e-13
6.12667e-13
6.56429e-13
5.98079e-13
6.27254e-13
5.54317e-13
4.81381e-13
4.52206e-13
3.7927e-13
4.23032e-13
3.35508e-13
4.37619e-13
3.35508e-13
4.66794e-13
3.35508e-13
3.93857e-13
5.61038e-27
1.89635e-13
1.31286e-13
1.45873e-14
1.6046e-13
1.6046e-13
5.31331e-27
2.62571e-13
2.91746e-14
1.75048e-13
1.50151e-27
1.45873e-14
2.91746e-14
1.31286e-13
1.02111e-13
1.89635e-13
2.47984e-13
3.50095e-13
5.98079e-13
6.12667e-13
8.02302e-13
6.85603e-13
1.02111e-12
6.85603e-13
7.87714e-13
7.0019e-13
9.33587e-13
7.43952e-13
9.19e-13
8.46063e-13
9.33587e-13
1.00652e-12
1.07946e-12
1.1524e-12
1.31286e-12
1.13781e-12
1.42956e-12
1.10863e-12
1.6046e-12
1.41497e-12
1.56084e-12
1.69213e-12
1.85259e-12
1.66295e-12
1.67754e-12
1.7213e-12
1.61919e-12
1.77965e-12
1.67754e-12
1.82341e-12
1.67754e-12
1.66295e-12
1.56084e-12
1.41497e-12
1.66295e-12
1.38579e-12
1.69213e-12
1.57543e-12
1.69213e-12
1.47332e-12
1.57543e-12
1.23992e-12
1.51708e-12
1.4879e-12
1.50249e-12
1.35662e-12
1.38579e-12
1.25451e-12
1.40038e-12
1.42956e-12
1.54625e-12
1.40038e-12
1.61919e-12
1.25451e-12
1.45873e-12
1.34203e-12
1.22533e-12
1.57543e-12
1.1524e-12
1.53167e-12
1.13781e-12
1.54625e-12
1.06487e-12
1.838e-12
1.66295e-12
2.80076e-12
3.53013e-12
6.34548e-12
1.03862e-11
1.88614e-11
3.33028e-11
6.00122e-11
1.07581e-10
1.92698e-10
3.43837e-10
6.10391e-10
1.07841e-09
1.89562e-09
3.31448e-09
5.76449e-09
9.97287e-09
1.71586e-08
2.93614e-08
4.99631e-08
8.45449e-08
1.42252e-07
2.37981e-07
3.95831e-07
6.54539e-07
1.07595e-06
1.75812e-06
2.8555e-06
4.60957e-06
7.39526e-06
1.17905e-05
1.86795e-05
2.94048e-05
4.59899e-05
7.14598e-05
0.000110302
0.000169119
0.000257544
0.000389515
0.000585025
0.000872494
0.00129196
0.0018993
0.00277176
0.00401505
0.00577242
0.00823594
0.0116603
0.0163798
0.0228274
0.0315584
0.0432747
0.0588534
0.0793753
0.106153
0.140759
0.185047
0.241167
0.311574
0.399017
0.506523
0.637356
0.794967
0.982919
1.20481
1.46418
1.7644
2.10861
2.49958
2.93967
3.43077
3.97424
4.57089
5.22101
5.92436
6.68024
7.4875
8.34465
9.24987
10.2011
11.1962
12.2328
13.3086
14.4212
15.5683
16.7475
17.9568
19.194
20.4571
21.7443
23.0539
24.3842
25.7338
27.1013
28.4854
29.8849
31.2988
32.7261
34.1659
35.6173
37.0797
38.5524
40.0346
41.5258
43.0255
44.5332
46.0484
47.5707
49.0997
50.635
52.1763
53.7232
55.2755
56.8329
58.395
59.9617
61.5327
63.1078
64.6867
66.2694
67.8554
69.4448
71.0373
72.6328
74.231
75.8319
77.4354
79.0412
80.6493
82.2595
83.8718
85.486
87.102
88.7198
90.3392
91.9602
93.5826
95.2064
96.8316
98.458
100.086
101.714
103.344
104.975
106.607
108.239
109.873
111.507
113.142
114.778
116.414
118.051
119.689
121.327
122.965
124.605
126.244
127.884
129.524
131.165
132.806
134.447
136.088
137.73
139.372
141.014
142.656
144.298
145.94
147.582
149.224
150.867
152.509
154.151
155.793
157.435
159.076
160.718
162.359
164
165.641
167.282
168.922
170.562
172.201
173.84
175.478
177.117
178.754
180.391
182.028
183.663
185.299
186.933
188.567
190.2
191.832
193.463
195.093
196.722
198.351
199.978
201.604
203.228
204.852
206.474
208.094
209.713
211.33
212.946
214.56
216.172
217.782
219.389
220.995
222.598
224.198
225.796
227.391
228.982
230.571
232.156
233.737
235.315
236.888
238.456
240.02
241.579
243.132
244.68
246.221
247.756
249.283
250.803
252.314
253.817
255.31
256.792
258.264
259.724
261.171
262.605
264.023
265.426
266.811
268.178
269.526
270.851
272.154
273.432
274.684
275.908
277.101
278.262
279.389
280.479
281.53
282.54
283.508
284.431
285.306
286.134
286.911
287.637
288.311
288.933
289.502
290.019
290.484
290.9
291.268
291.591
291.871
292.111
292.314
292.485
292.627
292.744
292.838
292.913
292.973
293.02
293.056
293.084
293.106
293.122
293.135
293.145
293.153
293.159
293.165
293.169
293.173
293.176
293.179
293.181
293.183
293.185
293.187
293.188
293.189
293.19
293.191
293.191
293.192
293.192
293.192
293.193
293.193
293.193
293.193
293.193
293.193
293.193
293.193
293.193
293.193
293.193
293.193
293.193
293.193
293.193
293.193
293.193
293.193
293.193
293.193
293.193
293.193
293.193
293.193
293.193
293.193
293.193
293.193
293.193
293.193
293.193
293.193
293.193
293.193
293.194
293.194
293.194
293.194
293.194
293.194
293.194
293.194
293.194
293.194
293.194
293.194
293.194
293.194
293.194
293.194
293.194
293.194
293.194
293.194
293.194
293.194
293.194
293.194
293.194
293.194
293.194
293.194
293.194
293.194
293.194
293.194
293.194
293.194
293.194
293.194
293.194
293.194
293.194
293.194
293.194
293.194
293.194
293.194
293.195
293.195
293.195
293.195
293.195
293.195
293.194
293.194
293.193
293.192
293.192
293.192
293.193
293.194
293.192
293.191
293.189
293.187
293.185
293.181
293.176
293.171
293.166
293.161
293.156
293.153
293.151
293.15
293.151
293.154
293.158
293.162
293.167
293.171
293.175
293.178
293.181
293.184
293.185
293.187
293.187
293.188
293.188
293.188
293.188
293.188
293.187
293.187
293.187
293.187
293.186
293.186
293.186
293.186
293.186
293.186
293.186
293.186
293.186
293.186
293.186
293.186
293.186
293.185
293.185
293.184
293.184
293.184
293.183
293.183
293.182
293.182
293.182
293.183
293.183
293.183
293.183
293.183
293.183
293.183
293.182
293.182
293.181
293.181
293.18
293.179
293.179
293.178
293.178
293.178
293.178
293.178
293.178
293.178
293.178
293.178
293.178
293.178
293.177
293.177
293.176
293.175
293.174
293.173
293.172
293.172
293.171
293.171
293.171
293.171
293.171
293.172
293.172
293.172
293.172
293.171
293.17
293.169
293.168
293.167
293.166
293.164
293.163
293.163
293.162
293.162
293.161
293.161
293.161
293.162
293.162
293.163
293.163
293.163
293.162
293.16
293.158
293.155
293.152
293.148
293.144
293.142
293.142
293.142
293.135
293.122
293.097
293.06
292.989
292.916
292.714
292.513
291.816
290.665
287.822
281.098
266.033
232.054
172.024
98.265
41.2354
13.4839
3.7917
0.983704
0.24716
0.0615137
0.0152732
0.00379012
0.000940421
0.000233335
5.78941e-05
1.43644e-05
3.56404e-06
8.84294e-07
2.19407e-07
5.44381e-08
1.3507e-08
3.35104e-09
8.31434e-10
2.06017e-10
5.11869e-11
1.22388e-11
2.9904e-12
2.47984e-13
2.04222e-13
7.43953e-13
7.87715e-13
9.33589e-13
7.58541e-13
8.02303e-13
2.1881e-13
5.25144e-13
2.91746e-14
2.91746e-13
4.3762e-14
5.25144e-13
4.52207e-13
3.7927e-13
4.95969e-13
5.39731e-13
8.46065e-13
5.39731e-13
9.62763e-13
4.95969e-13
8.89827e-13
4.81382e-13
9.62763e-13
2.91746e-14
8.02303e-13
8.75239e-14
5.9808e-13
3.20921e-13
4.95969e-13
4.95969e-13
7.29366e-14
4.52207e-13
3.06334e-13
1.31286e-13
2.1881e-13
1.89635e-13
2.62572e-13
2.91746e-14
2.04222e-13
1.60461e-13
1.75048e-13
2.1881e-13
1.75048e-13
5.10556e-13
3.50096e-13
4.23032e-13
7.29366e-13
5.9808e-13
7.58541e-13
6.27255e-13
4.95969e-13
6.71017e-13
5.83493e-13
3.7927e-13
6.71017e-13
2.1881e-13
5.25144e-13
2.62572e-13
6.41842e-13
7.29366e-14
5.54318e-13
1.85603e-26
1.02111e-13
1.45873e-14
1.89635e-13
8.75239e-14
1.31286e-13
1.45873e-14
2.62572e-13
7.29366e-14
3.35508e-13
1.16699e-13
4.95969e-13
2.1881e-13
5.10556e-13
1.60461e-13
3.50096e-13
4.23032e-13
2.33397e-13
6.27255e-13
2.47984e-13
5.54318e-13
2.91746e-13
4.81382e-13
4.95969e-13
3.20921e-13
4.66794e-13
2.1881e-13
5.39731e-13
7.29366e-14
2.1881e-13
4.3762e-14
1.60461e-13
1.45873e-14
1.31286e-13
2.04222e-13
5.83493e-14
2.91746e-14
2.91746e-14
7.29366e-14
7.29366e-14
4.3762e-14
2.91746e-14
7.29366e-14
5.83493e-14
5.83493e-14
7.29366e-14
4.3762e-14
1.60461e-13
1.75048e-13
2.33397e-13
4.3762e-14
5.83493e-14
7.29366e-14
4.3762e-14
4.3762e-14
1.45873e-14
2.91746e-14
8.75239e-14
1.02111e-13
2.77159e-13
4.3762e-14
7.29366e-14
2.33397e-13
1.31286e-13
7.29366e-14
1.45873e-14
1.60461e-13
2.62572e-13
2.47984e-13
1.45873e-13
3.64683e-13
2.47984e-13
2.91746e-14
1.02111e-13
8.75239e-14
2.91746e-14
1.16699e-13
1.02111e-13
2.47984e-13
5.83493e-14
2.33397e-13
2.91746e-14
4.3762e-14
1.75048e-13
2.91746e-13
8.75239e-14
1.42626e-27
4.3762e-14
7.29366e-14
1.02111e-13
4.3762e-14
2.91746e-14
4.3762e-14
1.16699e-13
8.75239e-14
1.45873e-14
2.04222e-13
2.47984e-13
3.20921e-13
2.62572e-13
2.33397e-13
1.16699e-13
2.47984e-13
3.50096e-13
4.23032e-13
3.64683e-13
3.7927e-13
5.10556e-13
4.66794e-13
5.9808e-13
3.64683e-13
5.83493e-13
2.77159e-13
5.25144e-13
4.95969e-13
8.31477e-13
5.68906e-13
5.68906e-13
6.27255e-13
5.54318e-13
6.56429e-13
7.58541e-13
1.0357e-12
9.91938e-13
1.35662e-12
1.16699e-12
1.35662e-12
1.0357e-12
1.45873e-12
1.06487e-12
1.28368e-12
1.25451e-12
1.07946e-12
1.10864e-12
1.09405e-12
1.16699e-12
1.1524e-12
)
;

boundaryField
{
    sides
    {
        type            calculated;
        value           nonuniform List<scalar> 2(1.1524e-12 5.25143e-13);
    }
    empty
    {
        type            empty;
    }
}


// ************************************************************************* //
