/*--------------------------------*- C++ -*----------------------------------*\
| =========                 |                                                 |
| \\      /  F ield         | OpenFOAM: The Open Source CFD Toolbox           |
|  \\    /   O peration     | Version:  2306                                  |
|   \\  /    A nd           | Website:  www.openfoam.com                      |
|    \\/     M anipulation  |                                                 |
\*---------------------------------------------------------------------------*/
FoamFile
{
    version     2.0;
    format      ascii;
    arch        "LSB;label=32;scalar=64";
    class       volScalarField;
    location    "70";
    object      p;
}
// * * * * * * * * * * * * * * * * * * * * * * * * * * * * * * * * * * * * * //

dimensions      [0 2 -2 0 0 0 0];

internalField   nonuniform List<scalar> 
8800
(
0.87646
0.82841
0.790036
0.761397
0.740778
0.726031
0.715439
0.707952
0.703138
0.701109
0.70243
0.70668
0.713384
0.722748
0.735523
0.753125
0.777578
0.811197
0.853649
0.910776
0.708984
0.716191
0.724631
0.72805
0.726139
0.720621
0.713917
0.707768
0.703032
0.700206
0.69997
0.702534
0.70709
0.713121
0.720055
0.726691
0.730835
0.730329
0.724274
0.715303
0.685677
0.691855
0.696057
0.699422
0.701928
0.702734
0.701636
0.699508
0.697498
0.696627
0.697644
0.70009
0.702962
0.70521
0.705766
0.704252
0.701418
0.69779
0.69326
0.689476
0.680519
0.68322
0.685945
0.68826
0.689913
0.691248
0.69217
0.692394
0.692159
0.692166
0.692975
0.694184
0.695016
0.694988
0.694218
0.693043
0.691308
0.688819
0.686401
0.684871
0.675294
0.676717
0.67852
0.680581
0.682342
0.683658
0.6847
0.685597
0.686308
0.686955
0.687665
0.688178
0.688256
0.687943
0.687276
0.686095
0.684415
0.682549
0.681233
0.68041
0.670244
0.671158
0.672399
0.673987
0.67565
0.677188
0.678479
0.679584
0.680622
0.681603
0.682362
0.682732
0.682725
0.682334
0.681497
0.680308
0.678978
0.677726
0.676912
0.676367
0.665323
0.665988
0.666951
0.668259
0.669686
0.671176
0.672646
0.674002
0.675256
0.676446
0.677357
0.677802
0.677784
0.677324
0.676542
0.675611
0.67462
0.673713
0.673135
0.672734
0.660504
0.661017
0.661803
0.662939
0.66423
0.665628
0.667112
0.668633
0.670125
0.671553
0.672666
0.673233
0.673281
0.672946
0.67238
0.671687
0.670943
0.670277
0.669851
0.669537
0.655721
0.656129
0.656788
0.657803
0.659024
0.660375
0.661858
0.66347
0.665171
0.666877
0.668248
0.669015
0.669263
0.669159
0.668827
0.668353
0.667815
0.667344
0.667029
0.666774
0.650889
0.651222
0.651793
0.652731
0.653906
0.655246
0.656767
0.658482
0.660381
0.66239
0.664094
0.665169
0.665708
0.665869
0.665777
0.665532
0.665194
0.664885
0.664655
0.664439
0.64592
0.646196
0.646707
0.6476
0.64876
0.650129
0.651729
0.653592
0.655729
0.658088
0.660212
0.661685
0.662572
0.663035
0.663205
0.663194
0.663055
0.66289
0.662728
0.662541
0.640723
0.640954
0.641427
0.642306
0.643491
0.644932
0.646655
0.64872
0.651163
0.653957
0.656595
0.658546
0.659839
0.66065
0.661114
0.661343
0.661409
0.661377
0.661271
0.661104
0.635204
0.635401
0.635854
0.636749
0.638
0.639558
0.641459
0.643796
0.646627
0.649965
0.653225
0.655743
0.657514
0.658722
0.659518
0.66001
0.660295
0.660389
0.66033
0.660176
0.629259
0.629428
0.62988
0.630819
0.632178
0.633904
0.636051
0.638738
0.642061
0.64607
0.650084
0.65328
0.655614
0.657282
0.658457
0.659264
0.659769
0.659985
0.659967
0.659821
0.622767
0.622912
0.623377
0.62439
0.625904
0.627858
0.630327
0.633461
0.637402
0.642233
0.647158
0.651165
0.654166
0.656376
0.657986
0.659141
0.659895
0.660239
0.660258
0.660115
0.615586
0.615706
0.616199
0.617317
0.619037
0.621289
0.62417
0.627871
0.632578
0.638413
0.644437
0.649411
0.653202
0.656051
0.658174
0.659725
0.660764
0.661241
0.661294
0.66115
0.607524
0.607633
0.608167
0.609424
0.611406
0.614034
0.61744
0.621853
0.627507
0.634565
0.641912
0.648038
0.652759
0.65636
0.659098
0.661119
0.662473
0.663088
0.663172
0.663024
0.598358
0.598457
0.59905
0.60047
0.602784
0.605902
0.609974
0.615277
0.6221
0.630649
0.63958
0.647071
0.652893
0.657378
0.660843
0.663411
0.665122
0.665884
0.665996
0.665839
0.587761
0.587842
0.588524
0.59017
0.592922
0.596665
0.601573
0.607991
0.616262
0.626625
0.637449
0.646547
0.653661
0.659186
0.663482
0.6667
0.668812
0.669724
0.66986
0.669691
0.575354
0.575421
0.576203
0.578163
0.581474
0.586016
0.591994
0.599823
0.609894
0.622462
0.635536
0.646511
0.655118
0.661855
0.667121
0.671082
0.673628
0.67469
0.674841
0.674657
0.560569
0.560625
0.561552
0.563929
0.56798
0.573573
0.580944
0.590578
0.602899
0.618142
0.633866
0.647012
0.657324
0.665445
0.671832
0.676623
0.679625
0.680823
0.68098
0.680776
0.542624
0.54267
0.543811
0.546775
0.551839
0.558854
0.56808
0.580061
0.59521
0.613684
0.632495
0.648109
0.660347
0.670021
0.677637
0.683353
0.686806
0.68811
0.688256
0.688031
0.520344
0.520387
0.521876
0.525725
0.532248
0.541265
0.553033
0.568112
0.586819
0.609163
0.631515
0.649875
0.66423
0.675614
0.684566
0.69124
0.695093
0.69645
0.696565
0.69632
0.491935
0.492001
0.49409
0.499369
0.508164
0.520126
0.535484
0.554681
0.577834
0.604741
0.631064
0.652401
0.669013
0.682209
0.692587
0.700171
0.70431
0.705639
0.705701
0.705439
0.454326
0.4545
0.457818
0.465736
0.478364
0.494847
0.515325
0.539932
0.568519
0.600672
0.631324
0.65579
0.674737
0.689778
0.701588
0.709929
0.714162
0.715357
0.715345
0.715074
0.401609
0.402632
0.409247
0.422608
0.441908
0.465384
0.492929
0.524367
0.559342
0.597301
0.632501
0.660136
0.681407
0.698242
0.711352
0.720178
0.724237
0.725195
0.725104
0.724831
0.324925
0.332403
0.347652
0.371122
0.400357
0.433184
0.469347
0.508624
0.550663
0.594889
0.634926
0.665919
0.689671
0.708417
0.7227
0.731748
0.73546
0.736168
0.736027
0.73579
0.242865
0.260021
0.284697
0.319004
0.358631
0.400939
0.445754
0.493028
0.542474
0.593566
0.639234
0.674255
0.70092
0.721804
0.737304
0.746091
0.749079
0.749501
0.74939
0.749229
0.173767
0.19414
0.226699
0.270258
0.319067
0.370306
0.42353
0.478651
0.535354
0.593082
0.644059
0.682772
0.71199
0.73459
0.750521
0.758649
0.761083
0.761435
0.761381
0.76126
0.117144
0.139397
0.177487
0.227581
0.283609
0.342364
0.403035
0.465371
0.528899
0.592947
0.648945
0.691099
0.722595
0.746505
0.762782
0.770629
0.772841
0.773168
0.773151
0.77306
0.0701703
0.0936537
0.135547
0.190817
0.252627
0.317581
0.384629
0.453374
0.523163
0.593148
0.653935
0.699353
0.73303
0.758317
0.77512
0.782817
0.784964
0.78531
0.785325
0.785257
0.0304011
0.0545709
0.0993647
0.158701
0.225392
0.295626
0.368214
0.44266
0.518163
0.593708
0.659082
0.707698
0.743555
0.770223
0.787611
0.795567
0.797758
0.798067
0.7981
0.79805
-0.00421211
0.0203897
0.0674643
0.130175
0.200994
0.275833
0.353347
0.432948
0.513728
0.594522
0.664313
0.716061
0.75408
0.782146
0.800367
0.808672
0.810962
0.811281
0.811312
0.811279
-0.0351851
-0.0102186
0.038715
0.104302
0.178688
0.257576
0.339527
0.42386
0.509573
0.595362
0.669428
0.724249
0.764446
0.793946
0.812971
0.821719
0.824184
0.824509
0.824536
0.824518
-0.0635181
-0.0382361
0.0122885
0.0803647
0.157885
0.240377
0.326337
0.415027
0.505379
0.595965
0.674214
0.73207
0.774381
0.805306
0.825115
0.8343
0.836956
0.837325
0.837334
0.837322
-0.0900282
-0.0643947
-0.0124485
0.0578035
0.138136
0.223854
0.313446
0.406161
0.500897
0.596126
0.678496
0.739346
0.783724
0.816011
0.836579
0.846159
0.848977
0.849372
0.849353
0.849334
-0.115116
-0.0891266
-0.0358352
0.0362361
0.119111
0.207727
0.300621
0.397063
0.495944
0.59568
0.682145
0.745982
0.792391
0.825949
0.847167
0.857031
0.859966
0.860365
0.86032
0.860284
-0.139244
-0.112827
-0.0585377
0.0154435
0.100576
0.191794
0.287701
0.387584
0.490371
0.594489
0.685067
0.751945
0.800363
0.835102
0.856804
0.866839
0.869814
0.870192
0.870111
0.870059
-0.162552
-0.135645
-0.0804436
-0.00475393
0.0823755
0.175936
0.274573
0.377623
0.484084
0.592465
0.687203
0.757223
0.807684
0.843486
0.865527
0.875596
0.878517
0.878877
0.878761
0.878695
-0.185199
-0.157886
-0.101641
-0.0244859
0.0644323
0.160087
0.26118
0.367126
0.477025
0.589527
0.68848
0.761824
0.814449
0.851287
0.873495
0.88339
0.886206
0.886503
0.886369
0.886286
-0.207331
-0.179508
-0.122278
-0.043813
0.0466988
0.144222
0.247516
0.356086
0.46916
0.585611
0.688837
0.765752
0.82078
0.858677
0.880868
0.890402
0.892975
0.893188
0.893028
0.892935
-0.228989
-0.200565
-0.142441
-0.0627487
0.0291858
0.128348
0.233599
0.344516
0.460489
0.580672
0.688202
0.768984
0.826774
0.865882
0.887893
0.896781
0.89894
0.899024
0.898843
0.898744
-0.250049
-0.221054
-0.162063
-0.0812829
0.0119065
0.112511
0.21947
0.33247
0.45105
0.574706
0.686492
0.771461
0.832481
0.873149
0.89492
0.902791
0.90423
0.904095
0.903907
0.903815
-0.270489
-0.240949
-0.181145
-0.0993804
-0.00509899
0.096754
0.205203
0.320009
0.440901
0.567719
0.68364
0.773063
0.837873
0.880685
0.902449
0.908995
0.909167
0.908527
0.90834
0.908312
-0.290383
-0.260222
-0.199678
-0.117023
-0.0217789
0.0811501
0.190876
0.307223
0.430116
0.559754
0.679574
0.773635
0.842806
0.888531
0.911008
0.916373
0.914611
0.912728
0.912336
0.912633
-0.309574
-0.278867
-0.21761
-0.134162
-0.0380839
0.0657747
0.176573
0.29421
0.418798
0.550889
0.674253
0.772982
0.847018
0.896432
0.920798
0.926139
0.92266
0.918383
0.916434
0.916479
-0.328153
-0.296888
-0.234962
-0.150832
-0.0540503
0.0505863
0.162242
0.280919
0.406884
0.541057
0.667539
0.770829
0.850234
0.903955
0.931412
0.938818
0.93566
0.928393
0.920317
0.912106
-0.346052
-0.314268
-0.251858
-0.167232
-0.0699602
0.0352642
0.147481
0.266885
0.393862
0.529656
0.658833
0.766457
0.852025
0.910592
0.941482
0.952767
0.950436
0.93764
0.916571
0.911988
-0.363107
-0.331036
-0.268128
-0.183185
-0.0854941
0.0201261
0.132501
0.252421
0.380017
0.516913
0.648151
0.759247
0.851458
0.915116
0.946945
0.958572
0.957735
0.93079
0.865489
0.837073
-0.378857
-0.348501
-0.283412
-0.198222
-0.0998091
0.00568663
0.117616
0.237781
0.365597
0.502966
0.63544
0.748764
0.847064
0.91655
0.942885
0.949182
0.933107
0.876579
0.807206
0.765765
-0.427728
-0.364879
-0.297218
-0.213291
-0.11428
-0.00936944
0.10285
0.222732
0.350268
0.487361
0.620081
0.734345
0.834682
0.911127
0.918296
0.909714
0.854684
0.781763
0.704307
0.66145
-0.394957
-0.378169
-0.317909
-0.232853
-0.136176
-0.031366
0.0799494
0.199202
0.325825
0.461634
0.592821
0.705986
0.798658
0.882339
0.864411
0.744666
0.637657
0.562428
0.488446
0.518092
-0.425504
-0.395664
-0.334198
-0.250096
-0.153322
-0.048599
0.062947
0.181575
0.307184
0.4413
0.56987
0.679203
0.761806
0.806836
0.754366
0.600201
0.471404
0.379189
0.281161
0.329528
-0.448649
-0.416445
-0.353377
-0.269204
-0.172352
-0.067696
0.0437528
0.161563
0.285796
0.417548
0.542388
0.645439
0.718443
0.726954
0.616214
0.442688
0.291089
0.172679
0.0444117
0.078523
-0.471263
-0.437757
-0.37345
-0.288439
-0.191551
-0.0870629
0.0238565
0.140698
0.263332
0.392284
0.512355
0.607179
0.664345
0.640753
0.477968
0.282207
0.0965657
-0.0677091
-0.251791
-0.262438
-0.493378
-0.459461
-0.3943
-0.308578
-0.211577
-0.10734
0.00290864
0.118636
0.239387
0.365103
0.479605
0.566161
0.603039
0.541886
0.346132
0.13491
-0.0761084
-0.254629
-0.500178
-0.759427
-0.515821
-0.481897
-0.416256
-0.330091
-0.232937
-0.128896
-0.0192593
0.0953064
0.214042
0.336228
0.444745
0.522642
0.53698
0.424291
0.23042
0.0172041
-0.187262
-0.351804
-0.429908
-0.53598
-0.539542
-0.50553
-0.439645
-0.353282
-0.256121
-0.152376
-0.0434528
0.0697662
0.186142
0.304234
0.40631
0.472702
0.461343
0.31409
0.126417
-0.0702141
-0.23894
-0.331315
-0.354747
-0.370853
-0.564805
-0.530666
-0.464629
-0.378229
-0.281254
-0.17799
-0.0700296
0.0415261
0.155097
0.268396
0.363576
0.414939
0.38484
0.211002
0.0316281
-0.140185
-0.26968
-0.308791
-0.320745
-0.321951
-0.591816
-0.557471
-0.491269
-0.404933
-0.308289
-0.205741
-0.09901
0.0105344
0.12084
0.228711
0.316067
0.352073
0.299975
0.116079
-0.0543269
-0.206812
-0.284575
-0.301758
-0.302757
-0.302547
-0.620631
-0.586001
-0.519589
-0.433394
-0.337245
-0.235621
-0.130401
-0.0232251
0.0833837
0.185269
0.263791
0.287229
0.19896
0.0295373
-0.132642
-0.256745
-0.294552
-0.292494
-0.291914
-0.291341
-0.650958
-0.616097
-0.549492
-0.46353
-0.368038
-0.267579
-0.164173
-0.0597266
0.0427734
0.13819
0.207699
0.214016
0.107281
-0.0505659
-0.194375
-0.271834
-0.282183
-0.284595
-0.285018
-0.284732
-0.682259
-0.64727
-0.580734
-0.495117
-0.400485
-0.30146
-0.200178
-0.0988414
-0.000790419
0.0878306
0.148411
0.139545
0.0246296
-0.118404
-0.237201
-0.275986
-0.280804
-0.280849
-0.280438
-0.280107
-0.714064
-0.67896
-0.612865
-0.527761
-0.434246
-0.336947
-0.238133
-0.140286
-0.0470111
0.0349533
0.0848821
0.0679664
-0.0507348
-0.172933
-0.265068
-0.279157
-0.276062
-0.27684
-0.277127
-0.276911
-0.745492
-0.710491
-0.644995
-0.560869
-0.468782
-0.37357
-0.277587
-0.183579
-0.0954379
-0.0196953
0.0199203
0.00179453
-0.116919
-0.212415
-0.268002
-0.277997
-0.276672
-0.275807
-0.275466
-0.275342
-0.775004
-0.74076
-0.676157
-0.593513
-0.503332
-0.410634
-0.317888
-0.228016
-0.145305
-0.0755241
-0.0399524
-0.070108
-0.171705
-0.250761
-0.258823
-0.273352
-0.275853
-0.274551
-0.274209
-0.274025
-0.800976
-0.767806
-0.705293
-0.624525
-0.536861
-0.447208
-0.35818
-0.272722
-0.195458
-0.131722
-0.0965332
-0.137123
-0.219805
-0.277595
-0.293568
-0.286756
-0.280686
-0.278019
-0.277286
-0.276843
-0.821306
-0.789831
-0.730196
-0.652528
-0.568093
-0.482164
-0.397381
-0.316673
-0.244671
-0.187012
-0.153974
-0.19108
-0.257441
-0.318404
-0.341248
-0.313358
-0.298231
-0.293226
-0.290807
-0.289496
-0.833782
-0.804984
-0.749113
-0.675574
-0.595539
-0.514195
-0.434306
-0.358695
-0.291823
-0.239707
-0.208246
-0.233791
-0.274154
-0.329551
-0.314484
-0.309211
-0.308259
-0.306503
-0.303915
-0.303397
-0.835753
-0.810937
-0.760052
-0.691908
-0.617515
-0.541908
-0.467643
-0.397584
-0.335797
-0.288435
-0.252152
-0.266077
-0.259616
-0.286076
-0.281783
-0.28533
-0.286993
-0.287754
-0.288839
-0.289211
-0.825075
-0.805056
-0.760863
-0.699948
-0.632577
-0.563828
-0.496095
-0.432066
-0.375522
-0.332195
-0.28861
-0.28164
-0.237661
-0.211646
-0.237611
-0.262993
-0.27516
-0.280927
-0.283322
-0.283762
-0.79958
-0.78461
-0.749734
-0.698461
-0.639744
-0.578984
-0.518518
-0.460866
-0.409858
-0.370466
-0.323191
-0.304638
-0.257028
-0.189466
-0.221438
-0.269707
-0.292432
-0.301075
-0.304031
-0.305205
-0.761994
-0.752352
-0.727497
-0.687585
-0.638995
-0.58711
-0.534261
-0.482966
-0.437354
-0.40244
-0.372713
-0.356348
-0.370013
-0.399288
-0.4238
-0.390882
-0.366675
-0.355093
-0.351603
-0.351172
-0.719067
-0.71358
-0.698941
-0.670132
-0.632206
-0.588968
-0.543346
-0.497855
-0.456188
-0.425422
-0.401539
-0.415392
-0.476578
-0.599814
-0.589885
-0.490348
-0.40567
-0.365607
-0.356245
-0.353334
-0.680435
-0.677141
-0.670154
-0.651413
-0.622271
-0.586314
-0.546821
-0.505356
-0.465527
-0.433039
-0.409325
-0.391112
-0.345793
-0.288332
-0.198386
-0.15579
-0.195892
-0.241044
-0.256894
-0.257303
-0.652517
-0.6505
-0.646907
-0.635543
-0.612945
-0.582161
-0.546386
-0.506757
-0.465507
-0.425696
-0.399814
-0.347105
-0.270349
-0.185215
-0.207817
-0.343437
-0.460655
-0.467577
-0.402313
-0.39273
-0.631277
-0.630512
-0.629315
-0.62371
-0.606814
-0.579301
-0.544431
-0.504435
-0.459596
-0.413868
-0.378443
-0.338821
-0.301844
-0.341904
-0.422361
-0.492493
-0.570388
-0.596014
-0.555349
-0.531488
-0.618961
-0.618689
-0.618101
-0.615581
-0.603747
-0.577762
-0.541988
-0.499523
-0.451041
-0.396114
-0.351255
-0.317892
-0.280134
-0.293328
-0.357565
-0.439389
-0.483949
-0.452653
-0.384818
-0.34521
-0.610393
-0.610325
-0.610063
-0.609429
-0.601994
-0.577766
-0.540421
-0.494413
-0.440333
-0.373672
-0.310672
-0.234397
-0.148022
-0.073718
-0.0314039
-0.000630272
0.0918596
0.234717
0.353211
0.407313
-0.603761
-0.603779
-0.60371
-0.603939
-0.599158
-0.578705
-0.540398
-0.490411
-0.428343
-0.354404
-0.26371
-0.164009
0.0226036
0.274885
0.555015
0.818418
1.05413
1.23523
1.3384
1.37426
-0.598611
-0.598418
-0.597743
-0.59633
-0.594782
-0.581061
-0.542833
-0.487421
-0.419979
-0.336017
-0.231651
-0.127084
0.0894676
0.413997
0.810037
1.18714
1.49141
1.68183
1.76604
1.78795
-0.596959
-0.597258
-0.597879
-0.598155
-0.59851
-0.589259
-0.547699
-0.488401
-0.417835
-0.327404
-0.221065
-0.110854
0.0624074
0.398513
0.768294
1.10403
1.37154
1.52944
1.59367
1.60861
-0.59506
-0.596764
-0.601744
-0.611405
-0.62107
-0.602566
-0.553548
-0.495329
-0.423419
-0.330988
-0.228188
-0.126028
-0.000336795
0.282616
0.588864
0.849885
1.04891
1.15929
1.2025
1.21164
-0.601813
-0.60322
-0.602994
-0.596222
-0.587771
-0.573768
-0.550066
-0.507848
-0.436637
-0.343962
-0.24597
-0.151104
-0.0568722
0.151768
0.381522
0.569584
0.70829
0.781268
0.808875
0.812716
-0.639972
-0.638705
-0.62359
-0.5735
-0.514037
-0.513801
-0.54984
-0.529123
-0.456269
-0.360871
-0.266679
-0.18306
-0.10963
0.0387652
0.196685
0.322171
0.412089
0.456414
0.472151
0.474826
-0.701146
-0.698435
-0.69912
-0.688524
-0.674791
-0.657908
-0.653422
-0.580651
-0.482276
-0.377817
-0.288023
-0.213699
-0.153831
-0.0507722
0.0505259
0.125024
0.172374
0.194598
0.203122
0.204009
-0.837127
-0.854491
-0.904834
-0.963596
-0.978674
-0.93887
-0.828571
-0.660514
-0.514901
-0.393047
-0.303649
-0.238631
-0.189018
-0.117796
-0.0567131
-0.0199441
-0.00309042
0.00390841
0.00736699
0.00876827
-0.972299
-0.999954
-1.05294
-1.09832
-1.11037
-1.06777
-0.918965
-0.705299
-0.528232
-0.396342
-0.310821
-0.256691
-0.219798
-0.165384
-0.12528
-0.104938
-0.0993475
-0.0972917
-0.0941533
-0.0922676
-0.94884
-0.968757
-1.0066
-1.0411
-1.05052
-1.00345
-0.851469
-0.65711
-0.494886
-0.375128
-0.301671
-0.261911
-0.235801
-0.191214
-0.156375
-0.136339
-0.124716
-0.118853
-0.115913
-0.115086
-0.722269
-0.742705
-0.779473
-0.819286
-0.836211
-0.794453
-0.666995
-0.530031
-0.413225
-0.327071
-0.274903
-0.252112
-0.234986
-0.195688
-0.159054
-0.132242
-0.114396
-0.104245
-0.0999271
-0.100138
-0.3706
-0.385393
-0.414437
-0.450436
-0.477225
-0.470519
-0.425486
-0.365234
-0.308543
-0.262022
-0.231913
-0.220971
-0.211734
-0.174913
-0.140223
-0.113003
-0.0933271
-0.0825517
-0.0793919
-0.0800739
-0.0489204
-0.056863
-0.0762156
-0.108488
-0.146601
-0.177933
-0.198227
-0.205957
-0.202284
-0.189036
-0.177662
-0.171438
-0.163195
-0.137642
-0.112764
-0.0927469
-0.0774607
-0.0691946
-0.067199
-0.0682534
0.141267
0.136966
0.123551
0.0957648
0.0517765
-0.00174147
-0.0507014
-0.0883881
-0.11168
-0.121038
-0.119886
-0.113308
-0.103468
-0.0915223
-0.0805489
-0.0711279
-0.0628467
-0.0583174
-0.0576245
-0.058791
0.208842
0.20617
0.196308
0.173546
0.135041
0.0850041
0.0323672
-0.0136778
-0.0468269
-0.0647929
-0.0672939
-0.059189
-0.0508698
-0.0515143
-0.0528628
-0.0527584
-0.0512787
-0.0507988
-0.051425
-0.0526126
0.209438
0.207679
0.200741
0.184184
0.155296
0.116343
0.072825
0.0315187
-0.00182255
-0.0220799
-0.025743
-0.0182802
-0.0128447
-0.0215944
-0.0320038
-0.0397137
-0.0449886
-0.0489406
-0.050962
-0.05185
0.183466
0.18242
0.177885
0.166734
0.146804
0.118941
0.0856977
0.0526789
0.0247909
0.00718474
0.00420641
0.0100738
0.0117119
-0.00184836
-0.0173045
-0.0302001
-0.0401823
-0.0472152
-0.0499632
-0.0504307
0.150105
0.149554
0.14677
0.13962
0.126445
0.107417
0.0837425
0.0592192
0.0375845
0.0242199
0.0233874
0.0293222
0.0284937
0.0132111
-0.00429955
-0.0189453
-0.0307286
-0.0384946
-0.0410692
-0.041299
0.116469
0.116227
0.114641
0.110278
0.101927
0.0894306
0.073331
0.0562661
0.0407772
0.0314977
0.0329505
0.0398957
0.0393584
0.0232212
0.00622964
-0.00680723
-0.0165305
-0.0221935
-0.0240036
-0.0242702
0.08519
0.0851039
0.0842614
0.0817227
0.0766182
0.0687165
0.0582328
0.0468754
0.0364524
0.0305145
0.0325791
0.0396513
0.0398175
0.0252416
0.0120095
0.00331683
-0.00240544
-0.00522294
-0.00625012
-0.00664956
0.0563301
0.0563605
0.0560063
0.0547268
0.0519083
0.0473045
0.0410376
0.0340566
0.0274854
0.0235259
0.0236808
0.0255272
0.0230964
0.0141112
0.00951582
0.00739052
0.00610035
0.00550715
0.00498088
0.00444465
0.0299321
0.0300196
0.0299276
0.0294466
0.0281642
0.0259925
0.0228759
0.0192341
0.0157429
0.0133196
0.0102298
0.00173724
-0.00459113
-0.00264319
0.00121774
0.00492071
0.00643097
0.00678431
0.00646236
0.00594163
0.00544411
0.00551101
0.00549337
0.005646
0.00583084
0.00569653
0.00520704
0.00458063
0.00383372
0.00284228
0.00142321
-0.00238889
-0.00507371
-0.00286338
-0.000345579
-0.000245035
-0.000894959
-0.000858311
-8.69493e-05
0.000277511
-0.0684446
0.117908
0.316527
0.483013
0.615084
0.718287
0.803628
0.875454
0.905143
0.889091
0.25222
0.374302
0.501786
0.611517
0.703498
0.779409
0.840456
0.883314
0.905608
0.918609
0.468591
0.551137
0.637677
0.714499
0.780214
0.835062
0.878536
0.910612
0.934291
0.952269
0.626263
0.684859
0.745428
0.801598
0.850218
0.891424
0.925335
0.952802
0.975207
0.993533
0.749872
0.791852
0.838386
0.880983
0.919064
0.95235
0.980916
1.00504
1.02476
1.04274
0.852698
0.885413
0.92349
0.958557
0.990732
1.01971
1.04513
1.06672
1.0837
1.10132
0.94462
0.973295
1.00707
1.03905
1.06877
1.09581
1.11953
1.13931
1.15387
1.17133
1.03281
1.0621
1.09591
1.12792
1.15741
1.18392
1.20677
1.22516
1.23777
1.25523
1.1279
1.16139
1.19771
1.23133
1.26129
1.28737
1.30922
1.32627
1.33768
1.35548
1.24264
1.28114
1.3193
1.35344
1.38264
1.40726
1.42751
1.44318
1.45448
1.47282
1.38725
1.42669
1.4622
1.49256
1.51809
1.54011
1.55908
1.57458
1.58721
1.60534
1.56191
1.59394
1.6197
1.64201
1.66203
1.68075
1.69836
1.71489
1.73062
1.74881
1.74947
1.76702
1.78253
1.7991
1.81524
1.82977
1.84278
1.85675
1.87382
1.8935
1.93104
1.942
1.95413
1.96492
1.97417
1.98372
1.99459
2.00617
2.01611
2.03128
2.14203
2.14404
2.12889
2.11366
2.10727
2.11293
2.13153
2.16194
2.19407
2.22482
2.44795
2.3109
2.2346
2.19248
2.17504
2.17908
2.20642
2.26257
2.36602
2.58131
0.772748
0.769373
0.763449
0.753646
0.740709
0.728295
0.717998
0.710073
0.704446
0.701204
0.700883
0.703671
0.70883
0.716111
0.725571
0.737275
0.750416
0.762414
0.769874
0.774597
0.690747
0.696634
0.703541
0.708785
0.711637
0.711318
0.708427
0.704525
0.700989
0.69874
0.698629
0.700879
0.704606
0.708992
0.712962
0.714978
0.713876
0.709794
0.703906
0.696863
0.683068
0.685415
0.688768
0.69168
0.693904
0.695715
0.696689
0.696454
0.695453
0.694598
0.694815
0.69629
0.698146
0.699456
0.699524
0.69837
0.696574
0.69424
0.691091
0.688131
0.677892
0.678978
0.680847
0.683234
0.685202
0.686604
0.687716
0.688598
0.689099
0.68939
0.689936
0.690774
0.691362
0.691363
0.690866
0.690012
0.688622
0.686575
0.684471
0.68306
0.672752
0.673406
0.674518
0.676244
0.678058
0.679687
0.68097
0.682023
0.682981
0.683853
0.684648
0.68523
0.685424
0.68526
0.684729
0.683722
0.6823
0.68074
0.679425
0.678644
0.667771
0.668225
0.669011
0.670313
0.671817
0.673364
0.67485
0.676165
0.67734
0.67846
0.679446
0.680068
0.680258
0.680031
0.679369
0.678391
0.67727
0.676147
0.675245
0.674727
0.662906
0.663246
0.663858
0.664931
0.666232
0.667626
0.669096
0.670578
0.671992
0.673331
0.67452
0.675289
0.675532
0.675305
0.674734
0.673978
0.673148
0.672301
0.671641
0.671262
0.658116
0.65838
0.658874
0.659789
0.660968
0.662282
0.663704
0.665235
0.66683
0.668421
0.669861
0.670823
0.671198
0.671132
0.67078
0.670255
0.669636
0.669018
0.66854
0.66825
0.65332
0.653529
0.653941
0.654747
0.655849
0.657117
0.658531
0.660111
0.661846
0.663689
0.66543
0.666666
0.667292
0.667479
0.66737
0.667074
0.666666
0.666243
0.665906
0.66568
0.648431
0.648599
0.648953
0.649686
0.650744
0.651995
0.653442
0.65511
0.65701
0.65912
0.661221
0.662831
0.663795
0.664284
0.664438
0.66438
0.664191
0.663947
0.663726
0.663546
0.643359
0.643495
0.643807
0.644497
0.645541
0.64682
0.648338
0.65014
0.65226
0.654694
0.657235
0.65931
0.660681
0.661518
0.661972
0.662171
0.662199
0.662129
0.662009
0.661864
0.638013
0.638123
0.638407
0.63908
0.640144
0.641495
0.643131
0.645121
0.647529
0.650374
0.653455
0.65609
0.657941
0.659182
0.659976
0.660455
0.660716
0.660819
0.660786
0.660668
0.632296
0.632382
0.632651
0.633329
0.634451
0.635917
0.637724
0.639971
0.642748
0.646112
0.649854
0.65316
0.655579
0.657291
0.65847
0.659278
0.659795
0.660065
0.660111
0.660014
0.626094
0.626159
0.626422
0.627129
0.628345
0.629974
0.632017
0.634601
0.637846
0.641854
0.646403
0.650516
0.653612
0.655877
0.657502
0.658678
0.659481
0.659932
0.660053
0.659973
0.619276
0.619321
0.619585
0.620344
0.621695
0.623543
0.625895
0.628907
0.632744
0.637547
0.643077
0.648158
0.652058
0.654977
0.657127
0.658721
0.659852
0.6605
0.660695
0.660627
0.611687
0.611711
0.611976
0.61281
0.614339
0.616472
0.619218
0.622776
0.627352
0.633131
0.639849
0.64609
0.650944
0.654633
0.657407
0.659497
0.661001
0.661862
0.662131
0.662073
0.603099
0.603113
0.603394
0.604327
0.606092
0.608569
0.611823
0.61607
0.621564
0.628541
0.636695
0.644322
0.650305
0.6549
0.658408
0.661097
0.663028
0.664121
0.664463
0.664411
0.593235
0.593219
0.593552
0.594629
0.596679
0.599618
0.603516
0.608626
0.615262
0.62371
0.633599
0.64287
0.650185
0.65585
0.66022
0.663604
0.666028
0.667376
0.667791
0.667741
0.581776
0.581736
0.582117
0.583387
0.585807
0.589339
0.594053
0.600254
0.608318
0.618573
0.630549
0.641765
0.650632
0.657548
0.662928
0.667112
0.670104
0.671721
0.672203
0.672151
0.568228
0.568162
0.568624
0.570147
0.573055
0.577356
0.583125
0.590726
0.60059
0.61307
0.627547
0.641041
0.651702
0.660051
0.666611
0.671715
0.67533
0.677223
0.677763
0.677702
0.551927
0.551833
0.552422
0.5543
0.557859
0.563189
0.570359
0.579783
0.591939
0.60716
0.624614
0.640746
0.653453
0.663428
0.671317
0.677459
0.681749
0.683906
0.684484
0.684407
0.531914
0.531795
0.532589
0.534983
0.539461
0.546221
0.555301
0.567157
0.582257
0.600853
0.621814
0.64095
0.655948
0.667732
0.677073
0.684363
0.689342
0.691722
0.692307
0.692207
0.506739
0.506609
0.507743
0.510938
0.516806
0.52566
0.537454
0.552618
0.571521
0.59424
0.61927
0.641757
0.659244
0.672989
0.683904
0.692398
0.698009
0.700529
0.701079
0.700948
0.474049
0.473946
0.475697
0.480281
0.488471
0.500599
0.516379
0.536089
0.559858
0.587526
0.617171
0.643292
0.663412
0.67921
0.691755
0.701442
0.707538
0.710067
0.71053
0.710364
0.429624
0.429697
0.432803
0.440286
0.4528
0.470275
0.491967
0.517806
0.547628
0.581054
0.615773
0.645702
0.668516
0.686377
0.700541
0.711283
0.717591
0.719944
0.720273
0.720075
0.365564
0.366808
0.374388
0.388421
0.408856
0.434845
0.464855
0.49849
0.535458
0.575285
0.615345
0.649121
0.674573
0.694417
0.71001
0.721473
0.727668
0.729611
0.729771
0.729558
0.289428
0.291568
0.306183
0.330321
0.361731
0.397745
0.436793
0.478693
0.523269
0.570081
0.616232
0.654633
0.683367
0.705631
0.722827
0.734866
0.740687
0.74228
0.742384
0.742251
0.211175
0.217715
0.239439
0.273887
0.315816
0.361602
0.409658
0.45987
0.512125
0.565994
0.618333
0.661419
0.693375
0.717971
0.736858
0.748931
0.753899
0.754975
0.755023
0.754962
0.147248
0.155979
0.182263
0.223857
0.274035
0.328125
0.384312
0.442317
0.501903
0.562557
0.620792
0.668242
0.703137
0.729699
0.749401
0.761267
0.765807
0.766775
0.766872
0.766869
0.0951536
0.104504
0.134364
0.181233
0.2376
0.298363
0.361418
0.426299
0.492581
0.559598
0.623432
0.675005
0.712623
0.740938
0.761527
0.773475
0.777788
0.778669
0.77881
0.778857
0.0516271
0.0612464
0.0935628
0.14446
0.205908
0.272212
0.341079
0.411963
0.484272
0.557174
0.626308
0.681852
0.722118
0.752229
0.77382
0.7859
0.790101
0.791141
0.79132
0.791406
0.0142528
0.0239678
0.0581093
0.112229
0.177896
0.24894
0.322882
0.399091
0.476861
0.555223
0.629397
0.688795
0.731689
0.763572
0.786156
0.79871
0.803177
0.804263
0.804417
0.804524
-0.0186669
-0.00893156
0.0266035
0.0834482
0.152653
0.227792
0.306238
0.387258
0.470061
0.553551
0.632548
0.69569
0.741173
0.774847
0.798584
0.811743
0.816468
0.817627
0.817799
0.817883
-0.0484301
-0.0386696
-0.00199706
0.0572006
0.129435
0.208167
0.290638
0.376047
0.463524
0.55187
0.635516
0.702332
0.750376
0.785867
0.810682
0.824497
0.829542
0.830748
0.830898
0.830964
-0.0759445
-0.0661573
-0.0285044
0.0327682
0.107676
0.189606
0.275686
0.365102
0.456934
0.549912
0.638095
0.708528
0.759081
0.796291
0.8222
0.836605
0.842001
0.843265
0.843381
0.843419
-0.101803
-0.0919523
-0.0534045
0.00961798
0.0869456
0.171744
0.261079
0.354164
0.450068
0.547483
0.640115
0.71414
0.767171
0.806047
0.832947
0.847873
0.853544
0.85484
0.854924
0.854927
-0.126483
-0.116521
-0.0770754
-0.012594
0.0669575
0.154318
0.246602
0.343052
0.442764
0.544419
0.641436
0.719082
0.774586
0.81507
0.842884
0.85816
0.863963
0.865277
0.865326
0.865296
-0.150296
-0.140135
-0.099964
-0.0340248
0.0475145
0.137155
0.23211
0.331641
0.434891
0.540607
0.641971
0.723307
0.781336
0.823367
0.851922
0.867417
0.873268
0.874526
0.874564
0.874506
-0.173357
-0.163013
-0.122184
-0.0547936
0.0284724
0.120162
0.217514
0.319846
0.426378
0.535958
0.641634
0.726782
0.787448
0.831036
0.860196
0.875749
0.881487
0.8827
0.882685
0.882612
-0.195868
-0.185266
-0.1437
-0.0750389
0.00976226
0.103281
0.202776
0.307641
0.417191
0.530421
0.640345
0.729471
0.792994
0.838237
0.867885
0.883285
0.888787
0.889875
0.88982
0.889723
-0.217791
-0.206942
-0.164681
-0.09483
-0.00863869
0.0865026
0.187905
0.295035
0.407324
0.523957
0.638045
0.731324
0.798026
0.845127
0.875202
0.890219
0.89529
0.896179
0.896069
0.895955
-0.239199
-0.228065
-0.185085
-0.114165
-0.0267267
0.0698407
0.172922
0.282065
0.396808
0.516565
0.634673
0.732272
0.802551
0.851873
0.882433
0.896789
0.901117
0.901681
0.901507
0.901389
-0.259952
-0.248603
-0.204902
-0.13301
-0.0444708
0.0533496
0.157878
0.268784
0.385699
0.508283
0.630185
0.732223
0.80652
0.858593
0.889932
0.903436
0.906576
0.906514
0.90623
0.90614
-0.28018
-0.268516
-0.224134
-0.151359
-0.0618518
0.0370568
0.142853
0.255262
0.374068
0.499173
0.624569
0.731058
0.809799
0.865286
0.898042
0.910863
0.91236
0.91101
0.910375
0.91038
-0.299737
-0.28778
-0.242766
-0.16918
-0.0788003
0.0210393
0.127921
0.24161
0.362012
0.489284
0.617842
0.728651
0.812192
0.871776
0.906873
0.919882
0.919833
0.916394
0.914389
0.913933
-0.318683
-0.30645
-0.260747
-0.186426
-0.0952892
0.00535934
0.113161
0.227901
0.349634
0.478743
0.610055
0.72487
0.813443
0.877694
0.916035
0.930786
0.930744
0.925412
0.919375
0.911272
-0.336944
-0.324492
-0.278163
-0.203256
-0.111529
-0.0102483
0.0982498
0.213753
0.336514
0.467079
0.600727
0.719214
0.813165
0.882844
0.925075
0.943241
0.945779
0.939574
0.928404
0.925417
-0.354473
-0.341896
-0.295009
-0.219638