/*--------------------------------*- C++ -*----------------------------------*\
| =========                 |                                                 |
| \\      /  F ield         | OpenFOAM: The Open Source CFD Toolbox           |
|  \\    /   O peration     | Version:  2306                                  |
|   \\  /    A nd           | Website:  www.openfoam.com                      |
|    \\/     M anipulation  |                                                 |
\*---------------------------------------------------------------------------*/
FoamFile
{
    version     2.0;
    format      ascii;
    arch        "LSB;label=32;scalar=64";
    class       surfaceScalarField;
    location    "70";
    object      phi;
}
// * * * * * * * * * * * * * * * * * * * * * * * * * * * * * * * * * * * * * //

dimensions      [0 3 -1 0 0 0 0];

oriented        oriented;

internalField   nonuniform List<scalar> 
17370
(
-0.0910981
0.093544
0.286565
-0.0749525
0.056952
0.364776
-0.0409347
0.0299503
0.427152
-0.0211953
0.0155951
0.504852
-0.0113456
0.00864649
0.602101
-0.00651436
0.00506158
0.72051
-0.00384237
0.00297071
0.863778
-0.00220282
0.00162718
1.03603
-0.00109711
0.000676815
1.24292
-0.000265904
-0.000128975
1.49159
0.000515662
-0.00092971
1.49161
0.00133466
-0.00183802
1.24319
0.00238424
-0.00311884
1.03637
0.00396462
-0.00516413
0.864106
0.00660609
-0.00873033
0.721182
0.0114221
-0.0156616
0.603454
0.0212511
-0.0299936
0.508182
0.0409661
-0.0569734
0.432176
0.0749692
-0.0935537
0.36536
0.0911121
0.197899
-0.127349
0.0881487
0.0392004
-0.364739
0.353795
-0.0726235
0.083568
-0.446567
0.454372
-0.0816996
0.0738943
-0.520973
0.529529
-0.0657834
0.0572277
-0.612852
0.62102
-0.0494744
0.0413059
-0.727003
0.733794
-0.0343764
0.0275853
-0.867516
0.872456
-0.0222402
0.0173005
-1.03855
1.04191
-0.0135781
0.0102227
-1.24472
1.24713
-0.00766462
0.0052496
-1.49284
1.49486
-0.00327944
0.00125999
-1.49269
1.49451
0.000562408
-0.00238527
-1.2441
1.24602
0.00436366
-0.00628052
-1.0376
1.04008
0.00862241
-0.0111038
-0.866158
0.869802
0.0143699
-0.0180146
-0.724477
0.729767
0.0228813
-0.0281715
-0.608885
0.615769
0.0349104
-0.0417946
-0.514988
0.522692
0.0499124
-0.057617
-0.439772
0.447825
0.0661123
-0.0741649
-0.375152
0.376999
0.0818985
-0.0837458
-0.256912
0.223413
0.0727474
-0.039248
-0.0686598
0.0589325
0.0097273
-0.0520604
0.0587517
-0.37455
0.367859
-0.0578609
0.0540304
-0.453835
0.457665
-0.0486685
0.0443255
-0.527751
0.532094
-0.040098
0.0363113
-0.621112
0.624899
-0.0320821
0.0280046
-0.734887
0.738964
-0.0235246
0.019525
-0.874059
0.878058
-0.0153806
0.0118577
-1.04341
1.04693
-0.00828306
0.00521273
-1.24867
1.25174
-0.00197187
-0.00103337
-1.49695
1.49996
0.00401647
-0.00719513
-1.49743
1.5006
0.0101742
-0.0136227
-1.25009
1.25354
0.0170147
-0.0210064
-1.04572
1.04971
0.0248714
-0.0292195
-0.877308
0.881656
0.0331912
-0.0373165
-0.739302
0.743427
0.0410159
-0.0451553
-0.626332
0.630472
0.0494234
-0.0547123
-0.534928
0.540217
0.0584623
-0.059252
-0.457911
0.458701
0.0524325
-0.0320485
-0.336382
0.315998
0.00978964
-0.0684929
0.0587033
-0.0531765
0.0491304
0.00404611
-0.0331448
0.0436276
-0.358395
0.347912
-0.0473359
0.0467424
-0.459527
0.46012
-0.0437591
0.0404834
-0.536042
0.539317
-0.0367653
0.0334224
-0.628465
0.631808
-0.0298478
0.0266875
-0.742281
0.745442
-0.0233263
0.0201479
-0.881603
0.884781
-0.0165382
0.0131483
-1.05042
1.05381
-0.00940101
0.00595231
-1.25505
1.2585
-0.00211674
-0.00153904
-1.50334
1.507
0.00516252
-0.00890407
-1.50413
1.50787
0.0122242
-0.015793
-1.25714
1.26071
0.0189965
-0.0223883
-1.05348
1.05687
0.0253744
-0.0285463
-0.88526
0.888432
0.0315541
-0.034978
-0.746911
0.750335
0.0381937
-0.0417801
-0.63448
0.638066
0.044942
-0.047797
-0.544439
0.547294
0.0482562
-0.0443597
-0.456861
0.452964
0.0336515
-0.0162757
-0.296615
0.279239
0.00412199
-0.0528793
0.0487573
-0.0460124
0.0434914
0.00252099
-0.0228974
0.0332492
-0.337285
0.326933
-0.0390165
0.0399916
-0.45984
0.458864
-0.0387645
0.0364564
-0.541997
0.544305
-0.033805
0.0312319
-0.634812
0.637385
-0.0282128
0.0253424
-0.748516
0.751387
-0.0220952
0.0190873
-0.887794
0.890802
-0.0157563
0.0126341
-1.057
1.06012
-0.00907379
0.00565495
-1.26192
1.26534
-0.0017156
-0.00211178
-1.51076
1.51459
0.00589713
-0.00970839
-1.51168
1.51549
0.0129554
-0.016281
-1.26418
1.2675
0.0191597
-0.022207
-1.06003
1.06308
0.0249619
-0.0279552
-0.891567
0.894561
0.0306172
-0.0334285
-0.753512
0.756324
0.0358266
-0.0383007
-0.64106
0.643534
0.0404573
-0.0414854
-0.549102
0.55013
0.0403025
-0.0342315
-0.447753
0.441682
0.0235478
-0.0103078
-0.264038
0.250798
0.00261442
-0.0455545
0.04294
-0.0413977
0.0396164
0.00178133
-0.0168251
0.0260818
-0.317083
0.307826
-0.0326722
0.0347931
-0.457293
0.455172
-0.0343567
0.0326627
-0.546316
0.548011
-0.0304475
0.0283287
-0.639695
0.641814
-0.0258891
0.0234946
-0.754014
0.756409
-0.0206497
0.0178779
-0.893675
0.896447
-0.0146703
0.0116215
-1.06316
1.06621
-0.00814654
0.00482403
-1.26867
1.27199
-0.000976491
-0.00278024
-1.51838
1.52213
0.00648194
-0.0101682
-1.51924
1.52292
0.0132734
-0.0164514
-1.27075
1.27393
0.0191913
-0.0220368
-1.06609
1.06894
0.0244818
-0.0269965
-0.897347
0.899862
0.0291208
-0.0312932
-0.75876
0.760933
0.0331889
-0.0351759
-0.645717
0.647704
0.0366497
-0.0368148
-0.550675
0.55084
0.0343748
-0.0273404
-0.43504
0.428006
0.0176369
-0.00745493
-0.239232
0.22905
0.00189552
-0.0407428
0.0388473
-0.0380826
0.0367449
0.00133774
-0.0128447
0.0208031
-0.299222
0.291264
-0.0275471
0.0304573
-0.452624
0.449714
-0.0306521
0.0295194
-0.549452
0.550585
-0.0275124
0.0255796
-0.643869
0.645801
-0.0233611
0.0212123
-0.758655
0.760804
-0.0186924
0.0162069
-0.899019
0.901504
-0.0132623
0.0103841
-1.06913
1.07201
-0.00703144
0.00379881
-1.27524
1.27847
-5.45894e-05
-0.00357822
-1.5258
1.52944
0.00714345
-0.0106845
-1.52652
1.53006
0.0136451
-0.0166266
-1.27703
1.28001
0.0191172
-0.0216063
-1.07166
1.07415
0.0236827
-0.0257891
-0.902155
0.904262
0.0275969
-0.0294757
-0.762937
0.764815
0.0311262
-0.0328585
-0.649543
0.651276
0.0336699
-0.0330961
-0.550639
0.550065
0.0297295
-0.0223773
-0.420755
0.413403
0.0138448
-0.00577778
-0.220026
0.211959
0.00147678
-0.0371872
0.0357104
-0.0355768
0.0345477
0.00102915
-0.0100287
0.0167557
-0.283946
0.277219
-0.0232365
0.0265996
-0.446556
0.443193
-0.0273673
0.0266598
-0.551496
0.552203
-0.024884
0.0230882
-0.647704
0.6495
-0.0210088
0.0189857
-0.762888
0.764911
-0.0166066
0.0142728
-0.903848
0.906182
-0.0115274
0.00883368
-1.07473
1.07742
-0.00566345
0.00257102
-1.2816
1.28469
0.00103567
-0.00453791
-1.53298
1.53648
0.00795593
-0.0113125
-1.5335
1.53686
0.0140672
-0.0167777
-1.28287
1.28558
0.0189939
-0.021178
-1.07654
1.07872
0.0230067
-0.0248734
-0.906255
0.908121
0.0264735
-0.028131
-0.766574
0.768232
0.0295767
-0.0309736
-0.652861
0.654258
0.0312815
-0.0299755
-0.549139
0.547833
0.0259839
-0.0187025
-0.40606
0.398779
0.0112541
-0.0046664
-0.204701
0.198114
0.0011982
-0.0343889
0.0331907
-0.0336444
0.0328442
0.000800166
-0.00793896
0.0135887
-0.271059
0.265409
-0.0195833
0.0231426
-0.43972
0.436161
-0.024386
0.0239236
-0.552818
0.553281
-0.0224154
0.0207276
-0.651289
0.652976
-0.0187425
0.0168059
-0.766886
0.768823
-0.0145224
0.0122787
-0.908408
0.910651
-0.00963723
0.00705636
-1.07999
1.08257
-0.0040337
0.00108333
-1.28766
1.29061
0.00235943
-0.00569833
-1.53988
1.54322
0.00893501
-0.0120711
-1.54008
1.54322
0.0146065
-0.0170695
-1.28816
1.29063
0.0190664
-0.0210188
-1.08086
1.08281
0.0226419
-0.0242962
-0.909895
0.911549
0.0257132
-0.027179
-0.769785
0.77125
0.0284299
-0.0294466
-0.655448
0.656465
0.029381
-0.0274035
-0.546195
0.544217
0.0230044
-0.0159827
-0.391622
0.384601
0.00943684
-0.00389884
-0.192101
0.186563
0.00100564
-0.0321009
0.0310953
-0.0321417
0.0315189
0.000622807
-0.00632617
0.0110547
-0.260247
0.255519
-0.0164564
0.0200144
-0.4326
0.429042
-0.0215795
0.021341
-0.553664
0.553903
-0.0200635
0.0184353
-0.654679
0.656308
-0.0165049
0.0146166
-0.770728
0.772616
-0.0123912
0.010206
-0.912793
0.914978
-0.00763447
0.0051249
-1.08504
1.08755
-0.00219392
-0.000643573
-1.29345
1.29629
0.00393972
-0.00711055
-1.54644
1.54961
0.0101547
-0.0130734
-1.54622
1.54914
0.0154119
-0.0176623
-1.29299
1.29524
0.0194616
-0.021193
-1.08475
1.08648
0.0226205
-0.0240772
-0.913115
0.914572
0.0253289
-0.0266201
-0.772621
0.773912
0.0277245
-0.0283197
-0.657268
0.657863
0.0278814
-0.0253363
-0.54197
0.539425
0.0206847
-0.0139878
-0.377751
0.371054
0.00815361
-0.00336441
-0.181437
0.176648
0.000872304
-0.0301663
0.029294
-0.0309757
0.0304967
0.000479041
-0.00502721
0.00896073
-0.251213
0.247279
-0.0137244
0.0171318
-0.425566
0.422158
-0.018878
0.0188279
-0.554086
0.554136
-0.0177441
0.0161495
-0.657982
0.659576
-0.0142406
0.0123664
-0.774487
0.776361
-0.0101581
0.00799551
-0.917068
0.91923
-0.00545986
0.00299623
-1.08995
1.09242
-0.000134913
-0.00263135
-1.29903
1.3018
0.00580855
-0.00883089
-1.55267
1.55569
0.0116994
-0.0144176
-1.55193
1.55464
0.0165693
-0.018612
-1.29738
1.29943
0.0202163
-0.0217314
-1.08821
1.08973
0.0229735
-0.0242494
-0.915946
0.917222
0.0253529
-0.0264848
-0.775113
0.776245
0.0273944
-0.0276137
-0.658267
0.658486
0.0267685
-0.0237415
-0.536652
0.533625
0.018934
-0.0125522
-0.364533
0.358151
0.00725791
-0.00299816
-0.172156
0.167896
0.000782519
-0.0284758
0.0276932
-0.0300854
0.0297281
0.000357324
-0.00393809
0.00717261
-0.243718
0.240484
-0.0112861
0.0144327
-0.418894
0.415748
-0.0162333
0.0163343
-0.554156
0.554055
-0.0153309
0.0138071
-0.661208
0.662731
-0.011892
0.00999926
-0.778229
0.780122
-0.00776996
0.00559446
-0.921303
0.923479
-0.00305722
0.000606289
-1.09478
1.09723
0.00222819
-0.00493851
-1.30447
1.30718
0.00802555
-0.0109266
-1.55861
1.56151
0.0136416
-0.0161727
-1.55724
1.55977
0.0181429
-0.0199811
-1.30136
1.3032
0.0213932
-0.0226955
-1.09127
1.09257
0.0237572
-0.0248592
-0.918415
0.919517
0.0258187
-0.0267825
-0.777283
0.778246
0.0274315
-0.0273617
-0.658576
0.658506
0.0260713
-0.0226108
-0.530393
0.526932
0.0176891
-0.0115654
-0.351923
0.3458
0.00665934
-0.00276009
-0.163845
0.159946
0.000726224
-0.026948
0.0262218
-0.0294313
0.0291827
0.000248632
-0.00298255
0.00558564
-0.237586
0.234983
-0.00904901
0.0118516
-0.412791
0.409988
-0.0135922
0.0137717
-0.553966
0.553787
-0.0128082
0.0113257
-0.664315
0.665798
-0.00938159
0.00744094
-0.782017
0.783957
-0.00515459
0.00293192
-0.925568
0.92779
-0.000356124
-0.00212267
-1.09959
1.10207
0.00496207
-0.00765211
-1.3098
1.31249
0.0106799
-0.0134839
-1.56432
1.56712
0.016063
-0.0184192
-1.56217
1.56453
0.0202157
-0.0218548
-1.30493
1.30657
0.0230748
-0.0241591
-1.09393
1.09502
0.0250353
-0.0259611
-0.920532
0.921458
0.0267766
-0.0275721
-0.779099
0.779894
0.0279307
-0.0275666
-0.658291
0.657926
0.0258205
-0.0219375
-0.523282
0.519399
0.0169003
-0.0109502
-0.339797
0.333847
0.00629804
-0.00262354
-0.156188
0.152513
0.000696548
-0.0255197
0.0248232
-0.0289914
0.0288461
0.000145331
-0.00209695
0.00410689
-0.232696
0.230686
-0.00691522
0.00930365
-0.407415
0.405027
-0.0108761
0.0110549
-0.55367
0.553491
-0.0100974
0.00861747
-0.667377
0.668857
-0.00661669
0.00459812
-0.785904
0.787923
-0.00221973
-8.08516e-05
-0.929929
0.932229
0.00274497
-0.00528346
-1.10446
1.107
0.00816695
-0.0108687
-1.31511
1.31781
0.0138683
-0.0165969
-1.56984
1.57257
0.0190542
-0.0212439
-1.56676
1.56895
0.0228707
-0.024312
-1.30808
1.30952
0.0253348
-0.0261871
-1.0962
1.09705
0.0268637
-0.0275967
-0.922282
0.923015
0.0282592
-0.0289115
-0.780559
0.781211
0.0289526
-0.0282038
-0.657355
0.656606
0.025998
-0.0216963
-0.515354
0.511052
0.0165176
-0.010646
-0.327977
0.322106
0.00612966
-0.00256873
-0.148924
0.145363
0.000688222
-0.0241406
0.0234523
-0.028758
0.028717
4.09657e-05
-0.00123318
0.0026644
-0.228982
0.227551
-0.00480396
0.00671483
-0.402902
0.400991
-0.0080153
0.00811079
-0.553429
0.553334
-0.0071119
0.00559724
-0.670472
0.671986
-0.00350067
0.00137018
-0.789952
0.792082
0.00114295
-0.00356833
-0.934452
0.936878
0.00635214
-0.00898812
-1.10946
1.1121
0.0119566
-0.0147057
-1.32045
1.3232
0.0177101
-0.0203868
-1.57521
1.57789
0.0227365
-0.0247647
-1.571
1.57303
0.0262208
-0.0274587
-1.31083
1.31207
0.028276
-0.0288937
-1.09803
1.09865
0.0293649
-0.0298914
-0.923642
0.924168
0.0303842
-0.0308223
-0.781648
0.782086
0.0305767
-0.0293521
-0.65565
0.654425
0.0266564
-0.0219044
-0.506594
0.501842
0.0165257
-0.0106226
-0.316267
0.310364
0.00613066
-0.00258519
-0.14184
0.138295
0.000698605
-0.0227694
0.0220708
-0.0287342
0.0288016
-6.7382e-05
-0.000350796
0.00119625
-0.226425
0.22558
-0.00263855
0.00400623
-0.399378
0.39801
-0.00493101
0.00485658
-0.553416
0.55349
-0.00375704
0.00215359
-0.673688
0.675291
7.32328e-05
-0.00235536
-0.794227
0.796509
0.00504927
-0.00763915
-0.93922
0.94181
0.0105946
-0.0133726
-1.11466
1.11744
0.0164708
-0.0193033
-1.32589
1.32872
0.0223457
-0.0249924
-1.58049
1.58314
0.0272466
-0.029115
-1.57492
1.57679
0.0303955
-0.0314216
-1.31315
1.31417
0.0320277
-0.0324016
-1.09943
1.0998
0.032658
-0.0329652
-0.924582
0.924889
0.0332648
-0.0334081
-0.782208
0.782351
0.0328546
-0.0310828
-0.653008
0.651236
0.0278415
-0.0225803
-0.496929
0.491668
0.0169197
-0.0108641
-0.304442
0.298386
0.00628778
-0.00266652
-0.134744
0.131122
0.000725837
-0.0213697
0.0206438
-0.0289352
0.0291197
-0.000184422
0.000571968
-0.000345936
-0.225049
0.224823
-0.000347781
0.00109405
-0.396968
0.396221
-0.00153504
0.00121136
-0.55381
0.554133
3.6504e-05
-0.00180999
-0.677136
0.67891
0.00423549
-0.00672285
-0.798817
0.801304
0.0096509
-0.0124538
-0.94432
0.947123
0.0156347
-0.0186022
-1.12016
1.12313
0.0218782
-0.0248324
-1.3315
1.33446
0.0279456
-0.0305815
-1.58571
1.58835
0.0327458
-0.0344492
-1.57852
1.58022
0.0355482
-0.0363479
-1.31501
1.31581
0.0367314
-0.0368471
-1.10033
1.10045
0.0368715
-0.0369435
-0.925065
0.925137
0.0370462
-0.0368078
-0.782127
0.781889
0.0358645
-0.0334699
-0.649297
0.646903
0.0296083
-0.0237467
-0.486222
0.480361
0.0176981
-0.011358
-0.292252
0.285912
0.00658944
-0.0028065
-0.127454
0.123671
0.000767951
-0.0199085
0.0191405
-0.0293886
0.029722
-0.000333343
0.00161123
-0.00202629
-0.22494
0.225355
0.00218288
-0.00216663
-0.395805
0.395789
0.00234463
-0.00303551
-0.554831
0.555522
0.00452717
-0.00649786
-0.680972
0.682943
0.00916445
-0.0119057
-0.803808
0.80655
0.0151287
-0.0182019
-0.94985
0.952923
0.02167
-0.0248798
-1.12604
1.12925
0.0283852
-0.0315
-1.33737
1.34049
0.034715
-0.0373549
-1.59091
1.59355
0.0394288
-0.0409506
-1.58176
1.58328
0.0418468
-0.0424093
-1.31638
1.31694
0.0425575
-0.0423914
-1.1007
1.10054
0.0421597
-0.0419795
-0.925036
0.924856
0.0418726
-0.0411521
-0.781243
0.780522
0.0397315
-0.0366078
-0.64436
0.641236
0.0320177
-0.0254285
-0.474278
0.467689
0.0188619
-0.0120941
-0.27943
0.272662
0.00702517
-0.00299901
-0.119802
0.115776
0.000822825
-0.0183573
0.0175345
-0.0301261
0.0306385
-0.000512429
0.00290736
-0.00409088
-0.226174
0.227358
0.0051188
-0.00590663
-0.396111
0.396899
0.00680896
-0.00796926
-0.556709
0.557869
0.00979175
-0.0120442
-0.685289
0.687541
0.0150429
-0.0181145
-0.809315
0.812387
0.0217107
-0.0251216
-0.955927
0.959338
0.0289456
-0.0324546
-1.13242
1.13593
0.0362426
-0.0395546
-1.34356
1.34688
0.0428956
-0.0455444
-1.59611
1.59876
0.0475165
-0.0488389
-1.58463
1.58595
0.0494972
-0.0498061
-1.31721
1.31752
0.0496968
-0.0492239
-1.10048
1.10001
0.0487166
-0.0482672
-0.924439
0.923989
0.0478271
-0.0466443
-0.779425
0.778242
0.0445905
-0.0405956
-0.637968
0.633973
0.0351338
-0.0276517
-0.460828
0.453346
0.0204124
-0.0130612
-0.265684
0.258333
0.00758267
-0.00323636
-0.111628
0.107282
0.000887655
-0.016692
0.0158043
-0.0312214
0.0319573
-0.000735859
0.00441993
-0.00649271
-0.228953
0.231026
0.00859382
-0.0102951
-0.398093
0.399794
0.0120289
-0.0137776
-0.559698
0.561447
0.0160664
-0.0187036
-0.690254
0.692892
0.0221447
-0.0256315
-0.815488
0.818975
0.0296909
-0.0335178
-0.96269
0.966517
0.0377761
-0.0416453
-1.1394
1.14327
0.0457668
-0.0493048
-1.35015
1.35369
0.0527809
-0.0554253
-1.60132
1.60396
0.0572659
-0.058346
-1.58707
1.58815
0.058727
-0.0587382
-1.31744
1.31746
0.058347
-0.0575461
-1.09961
1.09881
0.0567377
-0.055985
-0.923224
0.922472
0.0551349
-0.0534183
-0.776717
0.775001
0.0505902
-0.0455317
-0.629825
0.624767
0.0390062
-0.0304217
-0.445525
0.436941
0.0223305
-0.014232
-0.2507
0.242601
0.00823887
-0.00350556
-0.102781
0.0980477
0.000958018
-0.0148943
0.0139362
-0.0327572
0.0337841
-0.0010269
0.0063174
-0.00945293
-0.23352
0.236655
0.0128263
-0.0155917
-0.402021
0.404786
0.0182987
-0.0207641
-0.564078
0.566543
0.0236659
-0.026811
-0.696087
0.699233
0.0308268
-0.03484
-0.8225
0.826513
0.0394708
-0.043801
-0.970298
0.974628
0.0485743
-0.0528592
-1.14712
1.1514
0.0573505
-0.0611225
-1.35718
1.36095
0.0647134
-0.0673099
-1.60649
1.60908
0.0689617
-0.0697354
-1.589
1.58977
0.0697784
-0.0694313
-1.31695
1.3166
0.0687343
-0.0675638
-1.09801
1.09684
0.0664169
-0.0653689
-0.92134
0.920292
0.0639849
-0.0616394
-0.772957
0.770611
0.0578561
-0.0514817
-0.619541
0.613166
0.0436484
-0.0337074
-0.427939
0.417998
0.0245651
-0.0155544
-0.23415
0.225139
0.00895393
-0.00378577
-0.093137
0.0879688
0.00102717
-0.0129564
0.0119292
-0.0348601
0.0362898
-0.00142977
0.00880039
-0.0132926
-0.240202
0.244694
0.0181631
-0.0221674
-0.408261
0.412265
0.0260115
-0.0293447
-0.57018
0.573513
0.0330374
-0.036852
-0.703055
0.706869
0.0416084
-0.0462795
-0.830567
0.835238
0.051602
-0.0565243
-0.978927
0.983849
0.0618832
-0.0666177
-1.15566
1.16039
0.0714792
-0.0754514
-1.36464
1.36861
0.0790856
-0.0815426
-1.61151
1.61396
0.082906
-0.0832731
-1.59025
1.59062
0.0829168
-0.0821193
-1.31562
1.31482
0.0810573
-0.0794984
-1.09559
1.09403
0.0780255
-0.0765528
-0.918755
0.917283
0.074653
-0.0714474
-0.767897
0.764692
0.0664671
-0.0584533
-0.60659
0.598576
0.0490057
-0.0374099
-0.407555
0.39596
0.0270064
-0.0169348
-0.215716
0.205644
0.00966308
-0.00404546
-0.0826159
0.0769983
0.00108549
-0.0108852
0.00979974
-0.0377315
0.0397328
-0.00200134
0.0122472
-0.0184714
-0.249516
0.25574
0.0251412
-0.0305907
-0.417311
0.42276
0.0357818
-0.0401784
-0.578395
0.582792
0.0448715
-0.0495591
-0.711499
0.716186
0.0552655
-0.0607431
-0.839946
0.845423
0.0668761
-0.0724584
-0.98875
0.994332
0.0784292
-0.0835903
-1.16507
1.17023
0.088747
-0.0928114
-1.37244
1.3765
0.096335
-0.0984887
-1.61616
1.61831
0.0994031
-0.0992154
-1.59061
1.59042
0.0983646
-0.0970086
-1.31331
1.31196
0.0955242
-0.0935563
-1.09228
1.09031
0.0917138
-0.0896963
-0.915168
0.91315
0.087254
-0.0829339
-0.761032
0.756712
0.0764364
-0.0663614
-0.590296
0.580221
0.0549218
-0.0413354
-0.383783
0.370197
0.0294691
-0.0182303
-0.195125
0.183886
0.0102739
-0.00424255
-0.0712131
0.0651817
0.00112092
-0.0087078
0.00758688
-0.0416936
0.0445774
-0.00288376
0.0172639
-0.025749
-0.262207
0.270692
0.0346459
-0.0418374
-0.429841
0.437032
0.0486566
-0.0543327
-0.589214
0.59489
0.0603411
-0.0661824
-0.721844
0.727685
0.0730441
-0.0794419
-0.850912
0.85731
0.0864401
-0.0926647
-0.999872
1.0061
0.0991567
-0.104604
-1.17525
1.1807
0.109847
-0.113777
-1.3803
1.38423
0.116913
-0.118501
-1.62006
1.62165
0.118728
-0.117778
-1.58975
1.5888
0.116273
-0.114275
-1.30982
1.30782
0.112303
-0.109892
-1.08799
1.08558
0.107667
-0.104987
-0.910315
0.907634
0.101831
-0.0960341
-0.751787
0.74599
0.0875886
-0.0749314
-0.569776
0.557119
0.061065
-0.0451478
-0.355989
0.340072
0.0316637
-0.0192376
-0.172222
0.159796
0.0106635
-0.00432467
-0.0590368
0.052698
0.00111918
-0.00647592
0.00535674
-0.0473256
0.0517039
-0.0043783
0.0250178
-0.0365803
-0.279435
0.290997
0.0483794
-0.0578957
-0.446884
0.4564
0.066747
-0.0739223
-0.60324
0.610415
0.081494
-0.0888645
-0.734464
0.741834
0.0969375
-0.104176
-0.863669
0.870908
0.111869
-0.118511
-1.01217
1.01882
0.125203
-0.130593
-1.18583
1.19122
0.135508
-0.138908
-1.38767
1.39108
0.141221
-0.141861
-1.62263
1.62327
0.141076
-0.139111
-1.58722
1.58526
0.136782
-0.134015
-1.30496
1.30219
0.131469
-0.128584
-1.08259
1.07971
0.12585
-0.12251
-0.90403
0.900691
0.118296
-0.110494
-0.739362
0.73156
0.0994985
-0.083633
-0.543923
0.528057
0.06689
-0.0483673
-0.323583
0.30506
0.0332166
-0.0197194
-0.147072
0.133575
0.0106993
-0.00423917
-0.0463501
0.03989
0.00106614
-0.00426797
0.00320183
-0.055711
0.0632092
-0.00749821
0.0386087
-0.0546615
-0.303365
0.319418
0.0705337
-0.0832751
-0.470092
0.482834
0.0943202
-0.102885
-0.620914
0.629479
0.111982
-0.120637
-0.749752
0.758407
0.129648
-0.137304
-0.877908
0.885565
0.145097
-0.151543
-1.02503
1.03148
0.157747
-0.162433
-1.19598
1.20066
0.166343
-0.168598
-1.39368
1.39593
0.16951
-0.168743
-1.62303
1.62227
0.166583
-0.163308
-1.58252
1.57925
0.159936
-0.156227
-1.29845
1.29474
0.153033
-0.149663
-1.07595
1.07258
0.146356
-0.142118
-0.89605
0.891812
0.136302
-0.125695
-0.722539
0.711933
0.111332
-0.0915338
-0.511348
0.49155
0.0716269
-0.0504571
-0.286178
0.265009
0.0338017
-0.0195346
-0.120102
0.105835
0.0103278
-0.00397546
-0.0335967
0.0272443
0.0009576
-0.00218653
0.00122893
-0.0701824
0.0743363
-0.00415385
0.0295079
-0.0434612
-0.338003
0.351956
0.0575751
-0.0692844
-0.500904
0.512614
0.0797794
-0.0895839
-0.641853
0.651658
0.100557
-0.110646
-0.766556
0.776646
0.121866
-0.131867
-0.892306
0.902308
0.14255
-0.152078
-1.03699
1.04652
0.162066
-0.170659
-1.20427
1.21286
0.179248
-0.186157
-1.39704
1.40395
0.192402
-0.196604
-1.62033
1.62453
0.198745
-0.199426
-1.57499
1.57567
0.198958
-0.197891
-1.28996
1.28889
0.197059
-0.195777
-1.06782
1.06654
0.194099
-0.189809
-0.885581
0.881292
0.18156
-0.165341
-0.699532
0.683313
0.143218
-0.114036
-0.470671
0.44149
0.0863735
-0.0585074
-0.243862
0.215996
0.0378819
-0.0211596
-0.0922535
0.0755311
0.0108319
-0.00402252
-0.0213826
0.0145733
0.000930392
-0.000335291
-0.000595101
-0.0817373
0.0797328
0.00200447
0.00756165
-0.0168026
-0.368677
0.377918
0.0275699
-0.0359066
-0.529012
0.537348
0.0443415
-0.0526002
-0.664072
0.672331
0.0626883
-0.0721107
-0.786333
0.795756
0.082177
-0.0913761
-0.91174
0.920939
0.101167
-0.109556
-1.05576
1.06415
0.118533
-0.125888
-1.22127
1.22862
0.133184
-0.138772
-1.41056
1.41615
0.143284
-0.145955
-1.62796
1.63063
0.146612
-0.14583
-1.57572
1.57494
0.143895
-0.141265
-1.287
1.28437
0.138944
-0.136427
-1.06274
1.06022
0.133558
-0.128127
-0.87252
0.86709
0.119136
-0.104272
-0.663014
0.64815
0.0866315
-0.0655681
-0.410645
0.389582
0.0475047
-0.031107
-0.188753
0.172356
0.0197845
-0.0110205
-0.0599167
0.0511527
0.00569583
-0.00214721
-0.00806308
0.00451445
0.000434379
0.00162485
-0.00205923
-0.0831654
0.0801794
0.00298593
-0.00174831
-0.0035985
-0.389446
0.394792
0.0109392
-0.0169877
-0.549846
0.555894
0.023222
-0.0304681
-0.682839
0.690085
0.039212
-0.0473944
-0.804253
0.812435
0.0563493
-0.0643663
-0.929367
0.937384
0.0726456
-0.0800988
-1.07235
1.0798
0.087849
-0.0942698
-1.23551
1.24193
0.100157
-0.104424
-1.42103
1.42529
0.107779
-0.109157
-1.63256
1.63393
0.108548
-0.106523
-1.57353
1.57151
0.1036
-0.100077
-1.28131
1.27779
0.0964781
-0.0927067
-1.05526
1.05149
0.0887642
-0.082955
-0.85756
0.851751
0.0747214
-0.0623809
-0.630318
0.617978
0.0494603
-0.0356169
-0.366999
0.353155
0.0251822
-0.0165562
-0.155751
0.147125
0.0108327
-0.00639895
-0.0425189
0.0380852
0.00351958
-0.0013308
-0.00102748
-0.0011613
0.000313097
0.00272565
-0.00303875
-0.0818352
0.078998
0.00283716
-0.00550779
0.00296225
-0.403297
0.405843
0.00176774
-0.00635509
-0.565231
0.569818
0.0116227
-0.0176958
-0.698316
0.704389
0.0251469
-0.0321336
-0.819946
0.826933
0.0397644
-0.0466188
-0.944846
0.9517
0.0540704
-0.0603543
-1.08679
1.09307
0.0670568
-0.0721193
-1.2479
1.25296
0.0770181
-0.0803943
-1.42928
1.43265
0.0825992
-0.0827205
-1.63478
1.63491
0.0812889
-0.0784658
-1.56884
1.56602
0.0748353
-0.0701685
-1.2738
1.26913
0.0657883
-0.0610077
-1.04585
1.04107
0.0560628
-0.0502537
-0.841586
0.835777
0.042946
-0.0335945
-0.603012
0.59366
0.024953
-0.0170441
-0.338246
0.330337
0.0118955
-0.00809994
-0.137746
0.133951
0.00566724
-0.00370634
-0.0331579
0.031197
0.00218815
-0.000933209
0.00343317
-0.00468811
0.000250151
0.00359311
-0.00384326
-0.0802199
0.0776878
0.00253204
-0.00674497
0.00587013
-0.412462
0.413337
-0.00242766
-0.000811779
-0.577579
0.580819
0.00510116
-0.0106164
-0.711261
0.716776
0.0168545
-0.0229542
-0.833189
0.839289
0.0295249
-0.0354346
-0.958068
0.963978
0.0417687
-0.0472844
-1.09918
1.1047
0.0528698
-0.057376
-1.25782
1.26233
0.0613962
-0.0639929
-1.43558
1.43818
0.0653594
-0.0647119
-1.63474
1.6341
0.0625576
-0.0588179
-1.56237
1.55863
0.054566
-0.0493567
-1.26418
1.25897
0.0443011
-0.0385681
-1.03484
1.0291
0.0331564
-0.0272792
-0.825935
0.820058
0.0212446
-0.0143096
-0.582096
0.575161
0.00899664
-0.00518436
-0.32102
0.317208
0.00335919
-0.00249035
-0.128905
0.128036
0.00207636
-0.00166151
-0.0285511
0.0281363
0.00111459
-0.000554908
0.00618585
-0.00674553
0.0001765
0.00430095
-0.00447745
-0.0786786
0.0764876
0.00219098
-0.00672871
0.00641676
-0.418638
0.41895
-0.0043967
0.00179842
-0.586976
0.589574
0.00225786
-0.00695288
-0.722184
0.726879
0.0122807
-0.0175449
-0.844569
0.849833
0.0233435
-0.0285725
-0.969503
0.974732
0.0342878
-0.0390383
-1.10989
1.11464
0.0439419
-0.0478538
-1.26648
1.2704
0.0511925
-0.0531895
-1.44042
1.44242
0.053897
-0.0530355
-1.63323
1.63237
0.0503055
-0.0461939
-1.5543
1.55019
0.04148
-0.0357625
-1.25337
1.24765
0.0304699
-0.0240886
-1.02246
1.01607
0.0182574
-0.0124121
-0.810923
0.805078
0.00715077
-0.0019637
-0.566209
0.561022
-0.00119939
0.00261437
-0.311243
0.309828
-0.00237383
0.00159603
-0.125701
0.126479
-0.00088995
0.000214607
-0.0272607
0.027936
5.63637e-05
-0.000139287
0.00744186
-0.00735893
7.71169e-05
0.00478224
-0.00485936
-0.0774416
0.0757068
0.00173479
-0.00593763
0.00601239
-0.423095
0.42302
-0.00443532
0.00252812
-0.595088
0.596995
0.00119363
-0.00542375
-0.731551
0.735781
0.0104349
-0.0149273
-0.854667
0.85916
0.0199696
-0.0245481
-0.979894
0.984473
0.0298849
-0.0341118
-1.11939
1.12361
0.0383514
-0.0419082
-1.27406
1.27762
0.0451869
-0.0467917
-1.44435
1.44596
0.0472336
-0.0459566
-1.631
1.62972
0.0432306
-0.0385841
-1.54573
1.54109
0.0338039
-0.0279965
-1.24162
1.23581
0.0223286
-0.0158932
-1.00921
1.00277
0.00985231
-0.00369469
-0.796502
0.790344
-0.000704475
0.0047966
-0.553432
0.54934
-0.0070512
0.00720905
-0.30584
0.305683
-0.00616775
0.00466121
-0.125943
0.127449
-0.00322062
0.00179625
-0.0282167
0.029641
-0.000885234
0.000267452
0.0073429
-0.00672512
-2.81209e-05
0.00497931
-0.00495119
-0.0766885
0.0753054
0.00138307
-0.00492421
0.00516667
-0.42649
0.426248
-0.00382881
0.00204109
-0.602052
0.60384
0.00149128
-0.00522562
-0.739895
0.743629
0.009473
-0.0137568
-0.863566
0.867849
0.0183553
-0.0230029
-0.988819
0.993467
0.027516
-0.0314639
-1.1279
1.13184
0.0357115
-0.0388901
-1.281
1.28418
0.0415125
-0.0433411
-1.44739
1.44922
0.0437045
-0.0424218
-1.62841
1.62713
0.0395314
-0.0350963
-1.53653
1.53209
0.030294
-0.0244367
-1.22957
1.22371
0.0188171
-0.0123441
-0.995865
0.989392
0.0063288
-0.000285238
-0.782584
0.77654
-0.00398954
0.00746208
-0.542573
0.5391
-0.00931406
0.00931929
-0.302732
0.302726
-0.00804198
0.00618993
-0.127626
0.129478
-0.00452606
0.00277017
-0.03061
0.0323659
-0.00151001
0.000571985
0.00615545
-0.00521743
-0.000118435
0.00490009
-0.00478165
-0.0764531
0.0752892
0.00116391
-0.00368652
0.003727
-0.429433
0.429393
-0.0027085
0.000982351
-0.608356
0.610082
0.00239265
-0.005956
-0.747555
0.751119
0.00998279
-0.0138122
-0.871883
0.875712
0.0184686
-0.0222589
-0.997494
1.00128
0.0266645
-0.030351
-1.13591
1.1396
0.0343805
-0.0376455
-1.28728
1.29055
0.0404142
-0.0418674
-1.45074
1.45219
0.0423713
-0.0412673
-1.62569
1.62459
0.0387747
-0.0343845
-1.52746
1.52307
0.0297895
-0.024095
-1.21789
1.2122
0.0186574
-0.0122869
-0.982516
0.976145
0.00652792
-0.000476727
-0.769152
0.7631
-0.00382107
0.00712748
-0.532829
0.529523
-0.00901861
0.00925437
-0.300257
0.300021
-0.00836318
0.00672889
-0.129818
0.131453
-0.00512851
0.00330249
-0.0335946
0.0354206
-0.00190169
0.00079332
0.00435151
-0.00324314
-0.000199454
0.00462691
-0.00442745
-0.0764941
0.0756693
0.000824786
-0.00255181
0.00214777
-0.432396
0.4328
-0.00129642
-0.000499275
-0.613844
0.615639
0.00354503
-0.00693622
-0.754639
0.75803
0.0107529
-0.0146727
-0.879368
0.883288
0.0186568
-0.0225599
-1.00525
1.00915
0.0268671
-0.0302802
-1.14368
1.14709
0.0343204
-0.037454
-1.29356
1.2967
0.0401725
-0.0420438
-1.454
1.45588
0.0428893
-0.0419082
-1.62346
1.62248
0.03949
-0.0356506
-1.51881
1.51497
0.0314639
-0.0260118
-1.20636
1.20091
0.020736
-0.0148548
-0.969619
0.963738
0.00897612
-0.00328766
-0.755969
0.750281
-0.00130875
0.00477899
-0.523551
0.520081
-0.00661366
0.00741544
-0.297436
0.296634
-0.00708848
0.00605165
-0.131601
0.132638
-0.0047664
0.00320835
-0.0365477
0.0381057
-0.00192513
0.000865517
0.00227485
-0.00121524
-0.000236994
0.00420569
-0.00396869
-0.0769516
0.0763032
0.000648431
-0.00158751
0.00126225
-0.43554
0.435866
4.64081e-06
-0.00188945
-0.619271
0.621155
0.00504546
-0.00826211
-0.761158
0.764375
0.0118909
-0.0153733
-0.88684
0.890322
0.0194456
-0.0229944
-1.01303
1.01658
0.0272051
-0.0310112
-1.15092
1.15473
0.0346285
-0.0380322
-1.29983
1.30324
0.0410966
-0.042975
-1.4576
1.45947
0.0440876
-0.0437799
-1.62168
1.62137
0.0416965
-0.038382
-1.51097
1.50765
0.0343421
-0.0293198
-1.19551
1.19049
0.0244685
-0.0187747
-0.957421
0.951727
0.0133028
-0.00768358
-0.743391
0.737771
0.00298234
0.00100363
-0.514099
0.510113
-0.00324436
0.00450258
-0.293797
0.292539
-0.00487679
0.00446379
-0.13231
0.132723
-0.00370817
0.00263248
-0.0388827
0.0399584
-0.00164737
0.000792102
0.000333986
0.000521284
-0.000235244
0.00374458
-0.00350933
-0.0777
0.0772389
0.000461026
-0.000542066
0.000121541
-0.438857
0.439277
0.00131206
-0.0034122
-0.624487
0.626587
0.00643603
-0.00947024
-0.767378
0.770412
0.0131657
-0.0164735
-0.893755
0.897062
0.0203588
-0.0240042
-1.02058
1.02423
0.0280857
-0.0318233
-1.15836
1.16209
0.035623
-0.0390101
-1.30652
1.30991
0.0422061
-0.0447787
-1.4616
1.46417
0.0462591
-0.0461667
-1.62095
1.62086
0.0446971
-0.0416384
-1.5042
1.50115
0.0381266
-0.0336622
-1.18543
1.18097
0.0289192
-0.0235367
-0.945771
0.940389
0.0183168
-0.0126758
-0.731221
0.72558
0.00798795