/*--------------------------------*- C++ -*----------------------------------*\
| =========                 |                                                 |
| \\      /  F ield         | OpenFOAM: The Open Source CFD Toolbox           |
|  \\    /   O peration     | Version:  2306                                  |
|   \\  /    A nd           | Website:  www.openfoam.com                      |
|    \\/     M anipulation  |                                                 |
\*---------------------------------------------------------------------------*/
FoamFile
{
    version     2.0;
    format      ascii;
    arch        "LSB;label=32;scalar=64";
    class       volScalarField;
    location    "68";
    object      p;
}
// * * * * * * * * * * * * * * * * * * * * * * * * * * * * * * * * * * * * * //

dimensions      [0 2 -2 0 0 0 0];

internalField   nonuniform List<scalar> 
8800
(
0.827964
0.779914
0.741539
0.7129
0.69228
0.677533
0.666939
0.659449
0.654631
0.652598
0.653915
0.658161
0.664861
0.674223
0.686996
0.704598
0.72905
0.762669
0.80512
0.862247
0.660488
0.667695
0.676136
0.679554
0.677642
0.672123
0.665418
0.659267
0.654527
0.651697
0.651457
0.654017
0.658569
0.664597
0.671529
0.678164
0.682307
0.6818
0.675745
0.666773
0.637183
0.643361
0.647563
0.650927
0.653432
0.654236
0.653137
0.651006
0.648992
0.648116
0.649128
0.65157
0.654439
0.656684
0.657238
0.655723
0.652888
0.649259
0.644729
0.640945
0.632028
0.634729
0.637453
0.639768
0.641419
0.642753
0.643673
0.643893
0.643654
0.643656
0.644459
0.645663
0.646492
0.64646
0.645688
0.644511
0.642776
0.640286
0.637866
0.636336
0.626806
0.628229
0.630032
0.632092
0.633851
0.635166
0.636205
0.637098
0.637805
0.638445
0.639148
0.639656
0.63973
0.639413
0.638743
0.63756
0.635879
0.634011
0.632695
0.631872
0.621761
0.622675
0.623915
0.625502
0.627163
0.628699
0.629987
0.631088
0.63212
0.633094
0.633845
0.634208
0.634195
0.6338
0.632961
0.631768
0.630436
0.629183
0.628368
0.627823
0.616846
0.617511
0.618473
0.61978
0.621204
0.622691
0.624158
0.625509
0.626757
0.627938
0.628839
0.629276
0.629251
0.628786
0.628
0.627066
0.626072
0.625164
0.624585
0.624184
0.612034
0.612547
0.613332
0.614467
0.615755
0.61715
0.61863
0.620145
0.621629
0.623046
0.624148
0.624705
0.624744
0.624403
0.623832
0.623135
0.622388
0.621719
0.621293
0.620979
0.60726
0.607668
0.608326
0.609339
0.610557
0.611904
0.613382
0.614987
0.616678
0.618372
0.619729
0.620484
0.620722
0.620609
0.620272
0.619792
0.619251
0.618777
0.618461
0.618205
0.602439
0.602771
0.603341
0.604277
0.605448
0.606784
0.608299
0.610006
0.611893
0.613888
0.615575
0.616635
0.617161
0.617312
0.617212
0.61696
0.616617
0.616305
0.616074
0.615859
0.597483
0.597758
0.598268
0.599158
0.600314
0.601678
0.603271
0.605124
0.607248
0.60959
0.611693
0.613148
0.614019
0.614469
0.614629
0.614609
0.614464
0.614295
0.614132
0.613946
0.592301
0.592532
0.593003
0.593879
0.59506
0.596495
0.59821
0.600263
0.60269
0.605463
0.608076
0.610004
0.611278
0.612073
0.612525
0.612745
0.612802
0.612765
0.612658
0.612491
0.586801
0.586997
0.58745
0.58834
0.589587
0.591137
0.593029
0.595351
0.598164
0.601476
0.604707
0.607197
0.608945
0.610134
0.610913
0.611393
0.611667
0.611756
0.611696
0.611542
0.580878
0.581047
0.581497
0.582432
0.583786
0.585503
0.587638
0.59031
0.593612
0.59759
0.601568
0.604731
0.607036
0.60868
0.609835
0.610625
0.611118
0.611327
0.611308
0.611162
0.574413
0.574558
0.575021
0.57603
0.577537
0.579482
0.581938
0.585055
0.58897
0.593764
0.598647
0.602614
0.605579
0.607759
0.609344
0.610478
0.611217
0.611553
0.61157
0.611428
0.567264
0.567384
0.567875
0.568989
0.570701
0.572943
0.575809
0.57949
0.584167
0.58996
0.595933
0.600858
0.604606
0.607418
0.609509
0.611035
0.612054
0.612522
0.612573
0.612431
0.55924
0.559347
0.55988
0.561133
0.56311
0.565725
0.569114
0.573504
0.579123
0.586132
0.593418
0.599486
0.604156
0.607711
0.61041
0.612399
0.613729
0.614334
0.614416
0.614269
0.550121
0.550221
0.550811
0.552226
0.554533
0.557638
0.561691
0.566967
0.57375
0.582242
0.591103
0.598525
0.604284
0.608713
0.61213
0.614658
0.616341
0.617091
0.617202
0.617047
0.539582
0.539664
0.540343
0.541984
0.544726
0.548455
0.553343
0.55973
0.567956
0.578253
0.588995
0.598012
0.60505
0.610509
0.614746
0.617915
0.619993
0.620893
0.621028
0.620861
0.527243
0.52731
0.52809
0.530044
0.533346
0.537873
0.543829
0.551623
0.561643
0.574135
0.587114
0.597994
0.606512
0.613169
0.618364
0.622266
0.624774
0.625824
0.625976
0.625793
0.512541
0.512597
0.513522
0.515893
0.519934
0.525511
0.532858
0.542453
0.554717
0.569874
0.585489
0.598523
0.608733
0.616758
0.62306
0.627783
0.630744
0.631931
0.632089
0.631888
0.4947
0.494746
0.495884
0.498841
0.503894
0.510892
0.520091
0.532028
0.547111
0.565487
0.584175
0.599662
0.611781
0.621344
0.628862
0.634499
0.637911
0.639208
0.639357
0.639135
0.472548
0.472592
0.474076
0.477917
0.484428
0.493425
0.505162
0.520191
0.538825
0.56106
0.583272
0.601489
0.615707
0.626964
0.635807
0.642394
0.64621
0.647565
0.647685
0.647443
0.4443
0.444366
0.446449
0.451718
0.460497
0.472437
0.487757
0.506897
0.529966
0.556752
0.58292
0.604099
0.620556
0.63361
0.643864
0.651361
0.655474
0.656809
0.656879
0.656619
0.406898
0.407071
0.41038
0.418282
0.430887
0.447339
0.46777
0.492311
0.520803
0.552821
0.583304
0.607593
0.626372
0.641259
0.652932
0.661194
0.665419
0.666632
0.666629
0.666357
0.354462
0.355478
0.362071
0.375401
0.394663
0.418092
0.445577
0.476933
0.511801
0.549613
0.584633
0.612078
0.633165
0.649827
0.662798
0.671565
0.675641
0.676628
0.676547
0.676271
0.278163
0.285603
0.300797
0.324204
0.353378
0.386142
0.422227
0.461412
0.503334
0.547409
0.58726
0.618052
0.641604
0.660165
0.674315
0.683335
0.687096
0.687841
0.68771
0.687471
0.196513
0.213585
0.238173
0.272387
0.311932
0.354159
0.398886
0.446062
0.495396
0.546348
0.591849
0.626686
0.653154
0.673857
0.689258
0.698073
0.701146
0.701611
0.70151
0.70135
0.127772
0.148041
0.180486
0.223932
0.272641
0.323784
0.376912
0.431935
0.488532
0.546141
0.596984
0.635559
0.664622
0.687083
0.702984
0.711218
0.713755
0.714146
0.714105
0.713987
0.0714451
0.0935886
0.131548
0.181514
0.237432
0.296082
0.356651
0.418891
0.482328
0.546288
0.602198
0.644257
0.67566
0.699504
0.715876
0.723927
0.72626
0.726619
0.726612
0.726525
0.0247168
0.0480874
0.0898397
0.144972
0.206664
0.271508
0.338453
0.407107
0.476818
0.546742
0.607487
0.652873
0.686526
0.711842
0.728829
0.736832
0.739165
0.739512
0.739535
0.739472
-0.0148571
0.00920124
0.0538477
0.113039
0.179605
0.249725
0.322207
0.396561
0.471995
0.547505
0.61288
0.661516
0.697404
0.724162
0.741857
0.750242
0.752621
0.752962
0.752992
0.752947
-0.0493201
-0.0248267
0.0220977
0.0846568
0.155344
0.230062
0.307465
0.386977
0.4677
0.548475
0.618291
0.670088
0.708186
0.736417
0.755028
0.763788
0.766325
0.766681
0.766714
0.766688
-0.0801837
-0.0553208
-0.00653929
0.05889
0.133137
0.211899
0.293737
0.377977
0.463628
0.549401
0.623507
0.678403
0.718695
0.748391
0.767842
0.777099
0.779844
0.780223
0.780256
0.780241
-0.108443
-0.0832585
-0.0328866
0.0350265
0.112402
0.19476
0.280596
0.369183
0.459468
0.55004
0.62833
0.686258
0.728663
0.759796
0.78008
0.789781
0.792748
0.793199
0.79321
0.793198
-0.134912
-0.109367
-0.0575659
0.0125091
0.0926899
0.178262
0.26772
0.360325
0.454986
0.550189
0.632589
0.6935
0.737968
0.770461
0.791493
0.801624
0.804761
0.805251
0.805245
0.805221
-0.159986
-0.134079
-0.0809441
-0.00903391
0.073676
0.162136
0.254887
0.351206
0.449993
0.549685
0.636166
0.700053
0.746538
0.780311
0.801982
0.812382
0.815649
0.81615
0.81611
0.816072
-0.184119
-0.157785
-0.103641
-0.0298243
0.0551316
0.146184
0.241934
0.341676
0.444352
0.548407
0.638984
0.705894
0.754375
0.789304
0.81146
0.822037
0.82534
0.825825
0.825751
0.825697
-0.207451
-0.180615
-0.125554
-0.05004
0.0369061
0.130288
0.228753
0.331647
0.437979
0.54627
0.640982
0.711022
0.761541
0.797546
0.820052
0.830632
0.833893
0.834345
0.834242
0.834171
-0.23014
-0.20288
-0.146775
-0.0698051
0.0189234
0.114389
0.215298
0.32107
0.430814
0.543196
0.642097
0.715453
0.768143
0.805208
0.827893
0.838307
0.841432
0.841832
0.841706
0.841619
-0.252323
-0.224546
-0.167449
-0.0891723
0.00114158
0.0984647
0.20156
0.309938
0.422832
0.539132
0.642274
0.719189
0.774298
0.812463
0.835169
0.84522
0.84809
0.848396
0.848243
0.848143
-0.274044
-0.245655
-0.187659
-0.108155
-0.0164262
0.0825255
0.187565
0.29827
0.414038
0.534033
0.641443
0.72221
0.780101
0.819537
0.842112
0.851527
0.853962
0.854124
0.853947
0.85384
-0.295169
-0.2662
-0.207333
-0.126742
-0.0337654
0.0666191
0.173353
0.286125
0.404473
0.527902
0.639525
0.724452
0.785594
0.826662
0.849074
0.857497
0.859188
0.859109
0.858916
0.858815
-0.315678
-0.286156
-0.226471
-0.144896
-0.050833
0.0507923
0.159005
0.273564
0.394198
0.520749
0.636456
0.725796
0.790737
0.834028
0.856539
0.863688
0.864099
0.863472
0.863257
0.863222
-0.335643
-0.305492
-0.245063
-0.162596
-0.0675754
0.0351187
0.144597
0.26068
0.38329
0.51262
0.632167
0.726091
0.79538
0.841654
0.865003
0.871059
0.869548
0.867625
0.867159
0.867433
-0.354906
-0.324202
-0.263055
-0.179793
-0.0839424
0.019675
0.130216
0.247575
0.371854
0.503596
0.626623
0.725146
0.799259
0.849263
0.874624
0.880766
0.877609
0.87329
0.871177
0.871137
-0.373555
-0.342288
-0.280466
-0.196522
-0.0999698
0.00441998
0.115809
0.234193
0.359826
0.493608
0.619686
0.722686
0.802097
0.856407
0.884946
0.893316
0.890635
0.883487
0.875358
0.867007
-0.391525
-0.359732
-0.297421
-0.21298
-0.11594
-0.0109675
0.100975
0.220072
0.346692
0.482052
0.610751
0.71798
0.803443
0.862545
0.894531
0.906894
0.905337
0.892757
0.871879
0.867044
-0.408647
-0.376561
-0.313748
-0.22899
-0.131533
-0.0261697
0.0859239
0.205524
0.332739
0.469159
0.599844
0.710426
0.802393
0.866468
0.899312
0.91197
0.912064
0.885503
0.820146
0.791689
-0.424461
-0.394074
-0.329086
-0.244081
-0.14591
-0.040673
0.0709702
0.190803
0.318216
0.455068
0.586917
0.699603
0.797508
0.86724
0.894423
0.901721
0.886397
0.830015
0.761245
0.719819
-0.473443
-0.410495
-0.342947
-0.2592
-0.160435
-0.0557864
0.0561379
0.175677
0.302792
0.439331
0.571362
0.684868
0.784667
0.861227
0.86903
0.861235
0.807193
0.734779
0.657484
0.614832
-0.440672
-0.423895
-0.363731
-0.278856
-0.182413
-0.0778704
0.0331465
0.152043
0.27822
0.413423
0.543843
0.656123
0.748066
0.831683
0.814555
0.695823
0.589431
0.514646
0.440921
0.470932
-0.471315
-0.441453
-0.380081
-0.296157
-0.199613
-0.0951583
0.0160821
0.134346
0.259497
0.392984
0.52075
0.629173
0.711061
0.756085
0.70429
0.551068
0.422849
0.331031
0.23325
0.281961
-0.494539
-0.462307
-0.399317
-0.315321
-0.218697
-0.114309
-0.00316902
0.114273
0.238041
0.369149
0.493164
0.595309
0.667663
0.676211
0.56625
0.393384
0.242277
0.124227
-0.00382626
0.03065
-0.517241
-0.483696
-0.419455
-0.334615
-0.237953
-0.133733
-0.023123
0.0933479
0.215513
0.343814
0.463049
0.55702
0.613568
0.590082
0.428087
0.232883
0.0476201
-0.116379
-0.300308
-0.310651
-0.539445
-0.505479
-0.440376
-0.35482
-0.258042
-0.154069
-0.0441288
0.0712283
0.191509
0.316577
0.43025
0.51603
0.552323
0.49148
0.296377
0.0856492
-0.125062
-0.30337
-0.548867
-0.808357
-0.561979
-0.527999
-0.462408
-0.3764
-0.279465
-0.175685
-0.0663527
0.0478461
0.166117
0.287666
0.395382
0.472481
0.486436
0.37417
0.180818
-0.0319281
-0.236102
-0.400459
-0.478402
-0.584703
-0.585794
-0.55172
-0.485876
-0.399662
-0.302713
-0.199225
-0.0906005
0.0222572
0.138177
0.255653
0.35697
0.422592
0.410972
0.264171
0.0769928
-0.119166
-0.287575
-0.379769
-0.403171
-0.419302
-0.611154
-0.576947
-0.510942
-0.424683
-0.327912
-0.224897
-0.11723
-0.00602721
0.107101
0.219814
0.314276
0.364971
0.334683
0.161301
-0.0176085
-0.188951
-0.318133
-0.357193
-0.369171
-0.370379
-0.638265
-0.603845
-0.537667
-0.451461
-0.355013
-0.252706
-0.146259
-0.0370577
0.0728251
0.180145
0.266844
0.302323
0.250138
0.0665606
-0.103412
-0.255415
-0.332915
-0.350184
-0.351212
-0.35101
-0.667182
-0.632472
-0.566074
-0.479997
-0.384035
-0.282642
-0.177695
-0.0708495
0.0353601
0.136734
0.214677
0.237586
0.149341
-0.0198594
-0.181657
-0.305315
-0.342979
-0.341001
-0.340488
-0.339929
-0.697612
-0.662663
-0.596062
-0.510208
-0.414892
-0.314653
-0.211509
-0.107377
-0.00524955
0.0897042
0.158724
0.16448
0.0576624
-0.0999031
-0.24342
-0.320554
-0.330902
-0.333366
-0.333805
-0.333536
-0.729017
-0.693936
-0.627389
-0.541866
-0.447399
-0.348583
-0.247549
-0.146511
-0.0488028
0.039411
0.0995926
0.0902591
-0.025158
-0.167833
-0.286385
-0.325413
-0.329934
-0.329902
-0.329481
-0.329156
-0.76092
-0.725722
-0.659601
-0.574575
-0.481214
-0.384112
-0.285535
-0.187968
-0.0950081
-0.0133911
0.0361984
0.0189421
-0.100796
-0.222891
-0.314165
-0.328047
-0.325358
-0.32622
-0.326529
-0.326312
-0.792442
-0.757336
-0.691802
-0.607742
-0.515796
-0.420767
-0.325012
-0.231264
-0.143426
-0.0679528
-0.0286514
-0.0467802
-0.16742
-0.264213
-0.317261
-0.327795
-0.326662
-0.325747
-0.325371
-0.325229
-0.822031
-0.787676
-0.723021
-0.640434
-0.550377
-0.457849
-0.365324
-0.2757
-0.193284
-0.123687
-0.0884974
-0.117969
-0.221992
-0.306655
-0.313625
-0.325457
-0.326865
-0.324846
-0.32413
-0.323847
-0.84806
-0.814786
-0.752189
-0.671471
-0.583915
-0.494424
-0.405609
-0.320406
-0.243423
-0.179838
-0.145072
-0.184
-0.266645
-0.337202
-0.356552
-0.341886
-0.331368
-0.326384
-0.32495
-0.324331
-0.868422
-0.836837
-0.777121
-0.699465
-0.615127
-0.529353
-0.44478
-0.36435
-0.292629
-0.23516
-0.202236
-0.236368
-0.294696
-0.35992
-0.395256
-0.36093
-0.343392
-0.337749
-0.335256
-0.333801
-0.880885
-0.851976
-0.796012
-0.722468
-0.642512
-0.561313
-0.48164
-0.406342
-0.339807
-0.288016
-0.256485
-0.277655
-0.295276
-0.323437
-0.322801
-0.341996
-0.35405
-0.356664
-0.354352
-0.354012
-0.882782
-0.85786
-0.806873
-0.738705
-0.664369
-0.588888
-0.514853
-0.445144
-0.383859
-0.337244
-0.301337
-0.314889
-0.29583
-0.269644
-0.29369
-0.328976
-0.343325
-0.347932
-0.350481
-0.351787
-0.871981
-0.851867
-0.807543
-0.746574
-0.679233
-0.610581
-0.543073
-0.47944
-0.42371
-0.381684
-0.340496
-0.357744
-0.362639
-0.333247
-0.35309
-0.362452
-0.363416
-0.363733
-0.36412
-0.364365
-0.846264
-0.831206
-0.796194
-0.744825
-0.686099
-0.625388
-0.565091
-0.507823
-0.457831
-0.420375
-0.379279
-0.401765
-0.4649
-0.55554
-0.509498
-0.436839
-0.398871
-0.38428
-0.378738
-0.37711
-0.808336
-0.798625
-0.773627
-0.733594
-0.684925
-0.63303
-0.580182
-0.529176
-0.484153
-0.451646
-0.424503
-0.421832
-0.440632
-0.524732
-0.499055
-0.401685
-0.353798
-0.339042
-0.333801
-0.331549
-0.764945
-0.759414
-0.744636
-0.715684
-0.677623
-0.634253
-0.58849
-0.542789
-0.501253
-0.469568
-0.440151
-0.37763
-0.246502
-0.137271
-0.135345
-0.180543
-0.222216
-0.242129
-0.248136
-0.247799
-0.725763
-0.722434
-0.715347
-0.69646
-0.667171
-0.630993
-0.591084
-0.549146
-0.508426
-0.473167
-0.445594
-0.359816
-0.216511
-0.0129184
0.095068
-0.0238075
-0.162582
-0.246578
-0.274063
-0.286017
-0.697433
-0.69536
-0.691706
-0.680249
-0.657448
-0.626434
-0.590081
-0.550015
-0.507237
-0.469417
-0.440652
-0.421667
-0.482206
-0.715734
-1.0445
-1.28275
-1.35848
-1.28739
-1.13442
-1.07701
-0.676168
-0.675396
-0.674202
-0.668499
-0.651266
-0.623285
-0.587867
-0.546549
-0.501285
-0.45384
-0.418035
-0.428355
-0.640612
-1.01559
-1.44694
-1.59456
-1.52089
-1.34039
-1.15356
-1.0867
-0.663861
-0.663624
-0.663098
-0.660479
-0.648125
-0.621565
-0.585014
-0.541374
-0.490982
-0.43064
-0.384179
-0.341067
-0.371464
-0.422741
-0.463732
-0.462483
-0.315009
-0.14671
-0.016078
0.0442263
-0.655
-0.654916
-0.65457
-0.653677
-0.645772
-0.621126
-0.583342
-0.536246
-0.478622
-0.410743
-0.335381
-0.246171
-0.101008
0.159521
0.471451
0.790793
1.06891
1.23435
1.30541
1.32806
-0.648678
-0.648531
-0.648033
-0.647607
-0.642813
-0.622565
-0.583903
-0.531773
-0.468723
-0.389283
-0.288779
-0.185546
0.0376455
0.432925
0.878652
1.29926
1.61996
1.78707
1.84946
1.86342
-0.645719
-0.645463
-0.644654
-0.643038
-0.64183
-0.627811
-0.587705
-0.530585
-0.462149
-0.372964
-0.266198
-0.152234
0.0577565
0.449188
0.865508
1.24237
1.52308
1.66929
1.72081
1.73065
-0.64599
-0.646765
-0.648826
-0.651828
-0.653974
-0.639773
-0.594522
-0.534643
-0.461637
-0.369847
-0.262828
-0.154626
0.00309231
0.335047
0.663509
0.952697
1.16338
1.26777
1.3016
1.30716
-0.644174
-0.645887
-0.650358
-0.659544
-0.66578
-0.645851
-0.600096
-0.543955
-0.469894
-0.377085
-0.27558
-0.176335
-0.056915
0.188712
0.426414
0.615535
0.743985
0.804556
0.826537
0.830983
-0.660471
-0.66086
-0.654049
-0.631167
-0.606483
-0.603246
-0.598391
-0.560153
-0.485692
-0.391617
-0.295825
-0.208129
-0.11571
0.0550361
0.213658
0.326686
0.396282
0.430626
0.448173
0.454817
-0.707043
-0.704662
-0.686315
-0.639605
-0.594689
-0.59891
-0.625526
-0.58894
-0.505589
-0.406864
-0.319084
-0.245253
-0.174365
-0.0450545
0.0713728
0.150433
0.199482
0.226696
0.242514
0.248438
-0.793757
-0.796445
-0.816461
-0.84596
-0.846247
-0.818914
-0.76495
-0.64788
-0.530421
-0.421348
-0.336906
-0.27441
-0.22087
-0.117373
-0.0207222
0.0526003
0.104032
0.134463
0.14874
0.152378
-0.947506
-0.970754
-1.02768
-1.08012
-1.08974
-1.04484
-0.90337
-0.713276
-0.552974
-0.428896
-0.34491
-0.29308
-0.252817
-0.160983
-0.0733261
-0.00660839
0.045288
0.0759216
0.08809
0.0897268
-1.02292
-1.04812
-1.09075
-1.12687
-1.13384
-1.08226
-0.926453
-0.7181
-0.546215
-0.419614
-0.338595
-0.292805
-0.254432
-0.180297
-0.106257
-0.0504441
-0.00572913
0.0197634
0.0290343
0.0295712
-0.905109
-0.92657
-0.96277
-0.997755
-1.00663
-0.955082
-0.799975
-0.632648
-0.491044
-0.383454
-0.313604
-0.271812
-0.234768
-0.179559
-0.124548
-0.0794454
-0.044852
-0.0250324
-0.0172537
-0.0173529
-0.605772
-0.624183
-0.658837
-0.697216
-0.716191
-0.682035
-0.589048
-0.487006
-0.39766
-0.326568
-0.273672
-0.236656
-0.206491
-0.169674
-0.132147
-0.0999654
-0.0754419
-0.0611428
-0.0569238
-0.0577877
-0.248988
-0.260067
-0.28341
-0.317091
-0.346839
-0.3571
-0.348037
-0.323177
-0.292592
-0.258116
-0.226327
-0.198994
-0.178983
-0.158568
-0.13438
-0.113671
-0.0979581
-0.0896822
-0.0876372
-0.0891315
0.0124634
0.00710387
-0.00844334
-0.0376998
-0.0801268
-0.124935
-0.16054
-0.185437
-0.195964
-0.192005
-0.179408
-0.164092
-0.153981
-0.145889
-0.136056
-0.126997
-0.120539
-0.118193
-0.118293
-0.119709
0.134955
0.131782
0.1205
0.0951705
0.0533681
0.000232542
-0.052399
-0.0950157
-0.123691
-0.137843
-0.138055
-0.131992
-0.129102
-0.132197
-0.135192
-0.138625
-0.142191
-0.146616
-0.148893
-0.14975
0.162497
0.160388
0.152124
0.132508
0.0985776
0.0540214
0.00553871
-0.0395305
-0.0753816
-0.0981441
-0.106003
-0.105531
-0.107297
-0.118505
-0.131833
-0.14443
-0.155951
-0.164417
-0.167412
-0.167776
0.147262
0.145878
0.140162
0.126282
0.101761
0.0680573
0.0285707
-0.0106586
-0.0454692
-0.0718824
-0.0848868
-0.0873365
-0.0900393
-0.107626
-0.127397
-0.143855
-0.157015
-0.165164
-0.167678
-0.167915
0.118774
0.117924
0.114138
0.104748
0.0877612
0.0634868
0.0332122
0.000813888
-0.0307439
-0.0578893
-0.0758999
-0.0836176
-0.0895904
-0.107258
-0.124243
-0.138031
-0.148708
-0.15424
-0.155746
-0.156037
0.0892747
0.0888656
0.0864706
0.0803015
0.0687855
0.0516384
0.0291252
0.00335
-0.0244145
-0.0524557
-0.0778183
-0.0980051
-0.110866
-0.120743
-0.127652
-0.133553
-0.138269
-0.14026
-0.1408
-0.141144
0.0635961
0.0632857
0.0617761
0.0577947
0.0501036
0.038163
0.0217044
0.00156338
-0.0222834
-0.0507077
-0.0839521
-0.119812
-0.139046
-0.135593
-0.129908
-0.128212
-0.128141
-0.128097
-0.127965
-0.128163
0.0424786
0.0423212
0.0413949
0.0389345
0.0339502
0.0258511
0.0141879
-0.00101588
-0.0204317
-0.0468254
-0.0826985
-0.126829
-0.147195
-0.133904
-0.121497
-0.115882
-0.114816
-0.114414
-0.113977
-0.113926
0.0256802
0.0256168
0.0251297
0.0237512
0.0208436
0.015782
0.00817002
-0.00230623
-0.0162874
-0.037088
-0.0680943
-0.104904
-0.117425
-0.104081
-0.0940179
-0.0919551
-0.0924115
-0.0926429
-0.0922412
-0.0919994
0.0125762
0.0125897
0.012414
0.0118383
0.0103929
0.00783748
0.00379381
-0.00192431
-0.0101565
-0.0227813
-0.0408291
-0.0607691
-0.0622013
-0.0558613
-0.0537068
-0.0554518
-0.0578628
-0.0586993
-0.0584181
-0.0580797
0.00201277
0.00206725
0.00202699
0.00209426
0.0022335
0.00206019
0.00147992
0.000498828
-0.000906544
-0.00281512
-0.00551207
-0.00865469
-0.0127498
-0.0125886
-0.0127589
-0.0134862
-0.0140195
-0.0131087
-0.0125963
-0.0123136
-0.116259
0.0703825
0.269362
0.436154
0.568586
0.672193
0.757927
0.83009
0.859904
0.843833
0.205156
0.327451
0.455182
0.56517
0.657422
0.733598
0.794872
0.837887
0.860258
0.873239
0.422039
0.504736
0.591464
0.668468
0.734363
0.78937
0.832968
0.865128
0.888851
0.906815
0.580034
0.638763
0.699449
0.755742
0.804474
0.845774
0.879756
0.907271
0.929703
0.948019
0.703868
0.745937
0.792541
0.835222
0.873371
0.906713
0.935321
0.959473
0.979207
0.997186
0.806835
0.839599
0.877731
0.912847
0.945063
0.974074
0.999524
1.02113
1.03812
1.05573
0.898844
0.927547
0.961361
0.993363
1.02311
1.05017
1.07391
1.0937
1.10827
1.12572
0.98709
1.0164
1.05023
1.08225
1.11176
1.13828
1.16114
1.17954
1.19216
1.20962
1.0822
1.11571
1.15204
1.18567
1.21564
1.24173
1.26359
1.28064
1.29206
1.30985
1.19696
1.23547
1.27364
1.30779
1.33699
1.36162
1.38187
1.39754
1.40885
1.42719
1.34158
1.38103
1.41654
1.44691
1.47244
1.49446
1.51344
1.52894
1.54158
1.5597
1.51625
1.54829
1.57405
1.59636
1.61638
1.6351
1.65272
1.66925
1.68498
1.70318
1.70382
1.72137
1.73688
1.75345
1.76959
1.78412
1.79714
1.8111
1.82818
1.84786
1.88539
1.89635
1.90849
1.91927
1.92852
1.93807
1.94894
1.96053
1.97047
1.98564
2.09639
2.0984
2.08324
2.06801
2.06162
2.06728
2.08588
2.11629
2.14843
2.17917
2.4023
2.26526
2.18895
2.14684
2.12939
2.13343
2.16078
2.21693
2.32038
2.53566
0.724252
0.720877
0.714953
0.70515
0.692212
0.679797
0.669498
0.661571
0.655942
0.652696
0.65237
0.655154
0.660309
0.667588
0.677045
0.688748
0.701888
0.713886
0.721346
0.726068
0.642253
0.648139
0.655046
0.660289
0.663141
0.662821
0.659928
0.656024
0.652485
0.650232
0.650116
0.652361
0.656085
0.660468
0.664435
0.666451
0.665348
0.661265
0.655376
0.648333
0.634576
0.636923
0.640276
0.643187
0.64541
0.647219
0.648191
0.647955
0.64695
0.646091
0.646302
0.647772
0.649624
0.650931
0.650996
0.64984
0.648043
0.645709
0.642559
0.639598
0.629403
0.630489
0.632357
0.634743
0.63671
0.638111
0.639221
0.6401
0.640597
0.640883
0.641422
0.642255
0.642838
0.642836
0.642336
0.64148
0.640088
0.63804
0.635935
0.634524
0.624267
0.624921
0.626032
0.627757
0.62957
0.631197
0.632478
0.633527
0.634481
0.635347
0.636135
0.63671
0.636899
0.63673
0.636195
0.635186
0.633762
0.632201
0.630885
0.630103
0.619291
0.619745
0.620531
0.621831
0.623334
0.624878
0.626362
0.627673
0.628842
0.629956
0.630933
0.631547
0.63173
0.631497
0.630832
0.62985
0.628726
0.627602
0.626699
0.62618
0.614433
0.614773
0.615384
0.616456
0.617755
0.619146
0.620613
0.62209
0.623498
0.624829
0.626007
0.626766
0.627001
0.626768
0.626192
0.625431
0.624599
0.623749
0.623088
0.622708
0.60965
0.609914
0.610408
0.611321
0.612499
0.613809
0.615227
0.616752
0.61834
0.619921
0.621349
0.622298
0.622664
0.622589
0.622231
0.621701
0.621078
0.620457
0.619977
0.619688
0.604864
0.605073
0.605484
0.606289
0.607388
0.608652
0.610062
0.611635
0.613361
0.615192
0.616919
0.61814
0.618753
0.61893
0.618813
0.61851
0.618098
0.617672
0.617333
0.617106
0.599986
0.600155
0.600508
0.60124
0.602294
0.603541
0.604982
0.606643
0.608532
0.610628
0.612711
0.614303
0.615252
0.615728
0.615872
0.615806
0.615611
0.615361
0.615139
0.614959
0.594929
0.595065
0.595377
0.596065
0.597105
0.598378
0.59989
0.601683
0.603791
0.606208
0.608727
0.61078
0.612132
0.612954
0.613395
0.613584
0.613604
0.613528
0.613405
0.61326
0.5896
0.58971
0.589994
0.590664
0.591724
0.593069
0.594697
0.596677
0.59907
0.601895
0.60495
0.607558
0.609386
0.610609
0.611387
0.611853
0.612103
0.612199
0.612163
0.612045
0.583903
0.583989
0.584257
0.584933
0.58605
0.587509
0.589308
0.591543
0.594302
0.597642
0.601354
0.604627
0.607018
0.608706
0.609866
0.610657
0.611162
0.611423
0.611466
0.611369
0.577725
0.577791
0.578053
0.578758
0.579968
0.58159
0.583623
0.586192
0.589417
0.593397
0.59791
0.601983
0.605045
0.60728
0.608881
0.610037
0.610823
0.611264
0.611381
0.611301
0.570936
0.570982
0.571245
0.572001
0.573346
0.575186
0.577527
0.580523
0.584337
0.589107
0.594593
0.599627
0.603485
0.606369
0.608488
0.610055
0.611166
0.611801
0.611992
0.611925
0.563381
0.563406
0.563673
0.564502
0.566026
0.56815
0.570883
0.574422
0.578971
0.584712
0.591378
0.597564
0.602366
0.606012
0.608747
0.610805
0.612285
0.61313
0.613394
0.613336
0.554838
0.554851
0.555131
0.55606
0.557819
0.560288
0.563527
0.567753
0.573216
0.580148
0.588243
0.595803
0.601725
0.606267
0.609729
0.612377
0.614277
0.615352
0.615688
0.615637
0.545026
0.545011
0.545342
0.546415
0.548458
0.551387
0.555269
0.560355
0.566956
0.575352
0.585171
0.594365
0.601607
0.607208
0.61152
0.614855
0.617242
0.618569
0.618978
0.61893
0.533629
0.53359
0.53397
0.535235
0.537649
0.541169
0.545865
0.55204
0.560065
0.570261
0.582156
0.593281
0.602063
0.608901
0.614211
0.618335
0.621282
0.622877
0.623354
0.623303
0.520157
0.520091
0.520551
0.522071
0.524971
0.52926
0.53501
0.542581
0.552402
0.564815
0.579198
0.592587
0.603148
0.611406
0.617882
0.622914
0.626478
0.628347
0.628883
0.628824
0.503948
0.503855
0.504441
0.506315
0.509867
0.515184
0.522333
0.531725
0.54383
0.558976
0.576324
0.592335
0.604926
0.614796
0.622586
0.628643
0.632876
0.63501
0.635586
0.635512
0.48405
0.483932
0.484723
0.487112
0.491582
0.498327
0.507384
0.519203
0.534246
0.552757
0.573598
0.592599
0.607463
0.619126
0.628352
0.635548
0.640465
0.642826
0.643413
0.643316
0.459019
0.458888
0.460019
0.463208
0.469067
0.477904
0.489671
0.504792
0.52363
0.546255
0.571151
0.593485
0.610822
0.62443
0.635214
0.643603
0.649155
0.651664
0.652221
0.652094
0.426512
0.426409
0.428154
0.432729
0.440904
0.45301
0.468757
0.488416
0.512111
0.539673
0.569171
0.595121
0.615077
0.630718
0.643122
0.652697
0.658746
0.661277
0.661752
0.661591
0.382328
0.382398
0.385493
0.392958
0.40545
0.422892
0.444538
0.470315
0.500051
0.533358
0.567916
0.597662
0.620294
0.637987
0.651993
0.662626
0.668908
0.67128
0.671627
0.671433
0.3186
0.319834
0.327383
0.341378
0.36177
0.387704
0.417652
0.451208
0.488077
0.527774
0.567665
0.601245
0.6265
0.646158
0.661583
0.67295
0.679148
0.68113
0.681308
0.681097
0.242853
0.244976
0.259526
0.283591
0.314926
0.350871
0.389841
0.431653
0.476126
0.522809
0.568795
0.607008
0.635546
0.657607
0.674639
0.686619
0.692485
0.694134
0.69426
0.694132
0.164993
0.171498
0.193125
0.227469
0.269302
0.314996
0.362961
0.41308
0.465232
0.518983
0.571179
0.614107
0.64589
0.670324
0.689064
0.701138
0.706205
0.707346
0.707415
0.707361
0.101398
0.110079
0.136255
0.177723
0.22779
0.281777
0.337864
0.39577
0.455257
0.515811
0.573939
0.621271
0.656047
0.682477
0.702123
0.714096
0.718783
0.719822
0.719939
0.719944
0.0495749
0.0588739
0.0886155
0.135346
0.191592
0.252243
0.315192
0.379974
0.446169
0.513109
0.576872
0.628383
0.665937
0.69421
0.714861
0.72702
0.731496
0.732467
0.732638
0.732687
0.0062702
0.0158375
0.0480285
0.0987795
0.160097
0.226285
0.295044
0.36583
0.438055
0.510895
0.579995
0.635532
0.675798
0.705934
0.727663
0.740053
0.744528
0.745675
0.745873
0.74596
-0.0309302
-0.0212661
0.0127475
0.0667159
0.132246
0.203167
0.276995
0.353102
0.430794
0.509113
0.583284
0.64271
0.685646
0.717608
0.740428
0.753424
0.7582
0.759406
0.759601
0.759695
-0.0637193
-0.0540323
-0.0186255
0.0380644
0.107124
0.182131
0.26046
0.341379
0.424107
0.507557
0.586562
0.649758
0.695317
0.729131
0.753178
0.766801
0.771898
0.773196
0.773385
0.773461
-0.0933911
-0.0836752
-0.0471294
0.0119107
0.0839911
0.162588
0.244935
0.330235
0.417627
0.50593
0.589593
0.656474
0.704597
0.740214
0.765359
0.779707
0.78516
0.786537
0.786711
0.786769
-0.120847
-0.111101
-0.0735688
-0.0124655
0.0622888
0.144074
0.230019
0.319314
0.411056
0.503989
0.592183
0.662672
0.713304
0.750646
0.776889
0.791838
0.797691
0.799131
0.799269
0.799296
-0.146675
-0.136864
-0.0984252
-0.0355824
0.0415864
0.126229
0.215419
0.308375
0.40418
0.501532
0.594158
0.668228
0.721321
0.760328
0.787567
0.803035
0.809158
0.810649
0.810765
0.810762
-0.171353
-0.161423
-0.122087
-0.0577786
0.0216047
0.108799
0.200928
0.297236
0.396828
0.498402
0.595398
0.673075
0.72863
0.769228
0.797373
0.813175
0.819442
0.820965
0.821051
0.821014
-0.195182
-0.185045
-0.144996
-0.0792071
0.00214803
0.0916136
0.186399
0.285772
0.388886
0.494502
0.595822
0.677169
0.735235
0.777371
0.806254
0.822282
0.828576
0.830055
0.830119
0.830056
-0.218276
-0.207953
-0.16723
-0.100001
-0.0169225
0.074582
0.171752
0.273912
0.380289
0.489743
0.595344
0.680486
0.741187
0.784893
0.814397
0.830479
0.836651
0.838057
0.838091
0.838008
-0.240834
-0.230247
-0.188775
-0.120281
-0.035673
0.0576512
0.156952
0.26163
0.371003
0.484079
0.593899
0.682997
0.746555
0.791938
0.821962
0.837909
0.843835
0.845107
0.845091
0.844989
-0.262809
-0.251974
-0.2098
-0.140114
-0.054121
0.040816
0.142012
0.248938
0.361029
0.477478
0.591426
0.684652
0.751391
0.798669
0.829173
0.844756
0.850246
0.851306
0.851228
0.851106
-0.284284
-0.273156
-0.230254
-0.159498
-0.0722624
0.0240916
0.126956
0.235879
0.350403
0.469945
0.58787
0.685383
0.755698
0.805244
0.836305
0.851269
0.856003
0.856716
0.856565
0.856439
-0.305103
-0.293759
-0.250127
-0.178397
-0.0900645
0.00753516
0.111836
0.222508
0.339182
0.461518
0.583193
0.6851
0.75942
0.811765
0.843702
0.857882
0.861431
0.861486
0.861203
0.8611
-0.3254
-0.313737
-0.269418
-0.196803
-0.107505
-0.00882342
0.0967363
0.208897
0.32744
0.452265
0.577385
0.683688
0.762424
0.818218
0.851681
0.865278
0.867216
0.865968
0.865265
0.865241
-0.34503
-0.333068
-0.28811
-0.214682
-0.124514
-0.0249062
0.0817306
0.195159
0.315277
0.442238
0.570468
0.681025
0.76451
0.824415
0.860318
0.874226
0.874726
0.871326
0.86923
0.868688
-0.364048
-0.351807
-0.306153
-0.231986
-0.141062
-0.0406501
0.0668986
0.181367
0.302798
0.431563
0.562495
0.676984
0.76543
0.82998
0.869194
0.884978
0.885591
0.880424
0.874325
0.866085
-0.382381
-0.369916
-0.323629
-0.248875
-0.157361
-0.0563208
0.0519177
0.167137
0.289578
0.419768
0.552981
0.671053
0.76478
0.834693
0.877811
0.897113
0.900459
0.894667
0.883644
0.880535
-0.39998
-0.387388
-0.340535