/*--------------------------------*- C++ -*----------------------------------*\
| =========                 |                                                 |
| \\      /  F ield         | OpenFOAM: The Open Source CFD Toolbox           |
|  \\    /   O peration     | Version:  2306                                  |
|   \\  /    A nd           | Website:  www.openfoam.com                      |
|    \\/     M anipulation  |                                                 |
\*---------------------------------------------------------------------------*/
FoamFile
{
    version     2.0;
    format      ascii;
    arch        "LSB;label=32;scalar=64";
    class       volVectorField;
    location    "68";
    object      U;
}
// * * * * * * * * * * * * * * * * * * * * * * * * * * * * * * * * * * * * * //

dimensions      [0 1 -1 0 0 0 0];

internalField   nonuniform List<vector> 
8800
(
(0.984956 -0.0884516 0)
(1.00212 -0.0568244 0)
(0.999652 -0.0305571 0)
(1 -0.0158638 0)
(1.00009 -0.00872357 0)
(1.00011 -0.00508859 0)
(1.00007 -0.0029993 0)
(1.00002 -0.00168774 0)
(0.999999 -0.000782325 0)
(1.00007 -7.90256e-05 0)
(0.999979 0.000634832 0)
(0.999989 0.00139636 0)
(1.00003 0.00242088 0)
(1.00005 0.00401202 0)
(1.00004 0.00671803 0)
(1.00001 0.0117415 0)
(0.999843 0.0220508 0)
(0.99917 0.041165 0)
(1.00748 0.0768941 0)
(0.773655 0.0450714 0)
(0.361013 -0.0151706 0)
(1.04557 -0.0741964 0)
(1.0871 -0.0678824 0)
(1.04775 -0.0522921 0)
(1.0246 -0.0383879 0)
(1.01243 -0.0261087 0)
(1.00653 -0.0167568 0)
(1.00364 -0.0102325 0)
(1.00219 -0.00557704 0)
(1.00152 -0.00196084 0)
(1.00138 0.00127382 0)
(1.00172 0.00460286 0)
(1.0027 0.0085108 0)
(1.00473 0.0138384 0)
(1.00881 0.0215559 0)
(1.01734 0.0323688 0)
(1.03444 0.0457034 0)
(1.06548 0.0598062 0)
(1.09407 0.0729162 0)
(0.842192 0.0557169 0)
(0.217102 -0.00164597 0)
(1.07588 -0.0503463 0)
(1.09984 -0.0487036 0)
(1.06467 -0.0401521 0)
(1.04002 -0.0329874 0)
(1.02383 -0.0256837 0)
(1.01404 -0.0182851 0)
(1.00854 -0.0115393 0)
(1.00567 -0.0057185 0)
(1.00448 -0.000386109 0)
(1.00478 0.00476071 0)
(1.00662 0.0100921 0)
(1.01056 0.016127 0)
(1.01786 0.0230176 0)
(1.03049 0.0302661 0)
(1.05063 0.0372582 0)
(1.08035 0.0445902 0)
(1.10617 0.0517966 0)
(0.942774 0.0413451 0)
(0.216427 0.00166892 0)
(0.175941 -0.000644783 0)
(1.01873 -0.035398 0)
(1.10561 -0.0413998 0)
(1.07815 -0.0362323 0)
(1.05292 -0.0302025 0)
(1.03565 -0.024468 0)
(1.02361 -0.0187216 0)
(1.01567 -0.0126771 0)
(1.011 -0.00651728 0)
(1.00892 -0.000227303 0)
(1.00943 0.00597334 0)
(1.01253 0.0119349 0)
(1.01858 0.0177317 0)
(1.02832 0.0232763 0)
(1.04262 0.0286851 0)
(1.06334 0.0343331 0)
(1.09376 0.0402898 0)
(1.09408 0.0419069 0)
(0.828693 0.0228012 0)
(0.174797 0.000669157 0)
(0.154409 -0.000486597 0)
(0.957407 -0.0255388 0)
(1.10414 -0.035064 0)
(1.088 -0.0326159 0)
(1.0615 -0.0280591 0)
(1.04362 -0.0230524 0)
(1.03118 -0.0177695 0)
(1.02246 -0.0122395 0)
(1.0168 -0.00630897 0)
(1.01408 0.000180046 0)
(1.0147 0.00666779 0)
(1.01852 0.0125528 0)
(1.02542 0.0178306 0)
(1.03563 0.0227619 0)
(1.05027 0.0275567 0)
(1.07195 0.0320229 0)
(1.10065 0.0358901 0)
(1.06902 0.0340172 0)
(0.741019 0.0143849 0)
(0.152686 0.000513709 0)
(0.139901 -0.000357728 0)
(0.900505 -0.0191902 0)
(1.09654 -0.03011 0)
(1.09614 -0.0292202 0)
(1.06917 -0.0254601 0)
(1.05046 -0.0213474 0)
(1.0375 -0.0166037 0)
(1.02845 -0.0113327 0)
(1.02242 -0.0055971 0)
(1.01935 0.000773449 0)
(1.01994 0.00715033 0)
(1.02394 0.0127915 0)
(1.03103 0.0177347 0)
(1.04153 0.0221723 0)
(1.05679 0.0261147 0)
(1.07938 0.0295864 0)
(1.10288 0.0322432 0)
(1.03701 0.0281786 0)
(0.674265 0.0102751 0)
(0.137469 0.00038952 0)
(0.129274 -0.000273093 0)
(0.85083 -0.0148126 0)
(1.08421 -0.0259964 0)
(1.10184 -0.0263098 0)
(1.07602 -0.0229914 0)
(1.05681 -0.019331 0)
(1.04339 -0.0151037 0)
(1.03398 -0.0102014 0)
(1.02769 -0.00467448 0)
(1.02441 0.00150747 0)
(1.02485 0.00765817 0)
(1.02884 0.013018 0)
(1.03606 0.0175507 0)
(1.04684 0.0213779 0)
(1.06247 0.0246892 0)
(1.0855 0.027672 0)
(1.102 0.0294423 0)
(1.00212 0.0236724 0)
(0.622212 0.00790096 0)
(0.125977 0.000311425 0)
(0.121175 -0.000210293 0)
(0.808572 -0.011638 0)
(1.06896 -0.0223888 0)
(1.1054 -0.0236677 0)
(1.0823 -0.0207822 0)
(1.06264 -0.0173379 0)
(1.04895 -0.0133992 0)
(1.03926 -0.00882405 0)
(1.0327 -0.00356613 0)
(1.02918 0.00238897 0)
(1.02944 0.00827428 0)
(1.03336 0.0132826 0)
(1.04064 0.0173504 0)
(1.05152 0.0206856 0)
(1.06738 0.0235971 0)
(1.09077 0.0262708 0)
(1.09824 0.0271343 0)
(0.96681 0.0201367 0)
(0.58035 0.006358 0)
(0.116827 0.000256688 0)
(0.114905 -0.000161994 0)
(0.772993 -0.00925996 0)
(1.05221 -0.0192102 0)
(1.10779 -0.0212197 0)
(1.08819 -0.0187093 0)
(1.06813 -0.0154166 0)
(1.05419 -0.0116394 0)
(1.04431 -0.00726598 0)
(1.03751 -0.00224647 0)
(1.03371 0.00345237 0)
(1.03374 0.00903189 0)
(1.03753 0.0136603 0)
(1.04474 0.0173167 0)
(1.05562 0.0202677 0)
(1.07169 0.0228513 0)
(1.09476 0.0251762 0)
(1.09163 0.0252271 0)
(0.932401 0.0174101 0)
(0.545671 0.00530402 0)
(0.10928 0.00021818 0)
(0.110023 -0.000123542 0)
(0.743161 -0.00741389 0)
(1.03502 -0.0163892 0)
(1.10924 -0.0189125 0)
(1.0938 -0.0167097 0)
(1.07344 -0.0135115 0)
(1.05923 -0.00982647 0)
(1.04916 -0.00557211 0)
(1.04213 -0.000720352 0)
(1.03803 0.00473273 0)
(1.03777 0.00999214 0)
(1.04133 0.0142588 0)
(1.04839 0.0175508 0)
(1.05924 0.0201523 0)
(1.07552 0.0224449 0)
(1.09746 0.0243923 0)
(1.08256 0.0236718 0)
(0.899466 0.0153432 0)
(0.516114 0.00457137 0)
(0.102845 0.000191534 0)
(0.10624 -9.16715e-05 0)
(0.718258 -0.00592468 0)
(1.01822 -0.0138542 0)
(1.10987 -0.0166797 0)
(1.0993 -0.0147528 0)
(1.07868 -0.0115678 0)
(1.06417 -0.00791406 0)
(1.05386 -0.00372063 0)
(1.04658 0.00102271 0)
(1.04215 0.00627023 0)
(1.04152 0.0112301 0)
(1.04476 0.0151575 0)
(1.05164 0.0181027 0)
(1.06244 0.0203642 0)
(1.0789 0.0223929 0)
(1.0988 0.0239339 0)
(1.07141 0.0224656 0)
(0.868118 0.0138222 0)
(0.49021 0.0040694 0)
(0.0971767 0.000174164 0)
(0.103367 -6.40569e-05 0)
(0.697644 -0.00467513 0)
(1.00244 -0.0115385 0)
(1.10983 -0.0144841 0)
(1.10465 -0.0127522 0)
(1.08392 -0.00953237 0)
(1.06908 -0.00585144 0)
(1.05851 -0.00165772 0)
(1.05091 0.0030284 0)
(1.04609 0.00812081 0)
(1.045 0.0128137 0)
(1.04786 0.0164161 0)
(1.05451 0.0190213 0)
(1.06523 0.0209473 0)
(1.08183 0.0227179 0)
(1.09911 0.0238572 0)
(1.05844 0.0216239 0)
(0.83819 0.0127589 0)
(0.466861 0.00374231 0)
(0.0920126 0.000164166 0)
(0.101285 -3.86132e-05 0)
(0.680846 -0.00357735 0)
(0.988117 -0.00937141 0)
(1.10933 -0.0122397 0)
(1.10983 -0.0106219 0)
(1.08924 -0.00734448 0)
(1.07405 -0.00357678 0)
(1.06316 0.000681864 0)
(1.05518 0.00536616 0)
(1.04986 0.0103558 0)
(1.04822 0.014813 0)
(1.05063 0.0181 0)
(1.057 0.0203647 0)
(1.06762 0.0219506 0)
(1.08426 0.0234502 0)
(1.09842 0.0241651 0)
(1.04381 0.0211545 0)
(0.809349 0.0120805 0)
(0.445206 0.00355129 0)
(0.0871487 0.000159906 0)
(0.099931 -1.34895e-05 0)
(0.667563 -0.00256224 0)
(0.975629 -0.00727882 0)
(1.10869 -0.00988775 0)
(1.11497 -0.00830136 0)
(1.09472 -0.00492938 0)
(1.07915 -0.00101044 0)
(1.06788 0.00337511 0)
(1.05944 0.00812268 0)
(1.0535 0.01306 0)
(1.0512 0.0173074 0)
(1.05306 0.0202851 0)
(1.0591 0.0221989 0)
(1.06958 0.0234259 0)
(1.08624 0.0246583 0)
(1.09647 0.0249147 0)
(1.02756 0.0210521 0)
(0.781159 0.0117355 0)
(0.424538 0.00347212 0)
(0.0824199 0.00016038 0)
(0.0992894 1.37808e-05 0)
(0.657641 -0.00157573 0)
(0.965285 -0.00518889 0)
(1.10823 -0.00736451 0)
(1.12019 -0.00571696 0)
(1.10046 -0.00219962 0)
(1.08446 0.00193651 0)
(1.07274 0.00651829 0)
(1.06373 0.0113987 0)
(1.05706 0.016335 0)
(1.05395 0.0203937 0)
(1.05517 0.0230632 0)
(1.0608 0.024609 0)
(1.07111 0.0254658 0)
(1.08767 0.0263892 0)
(1.09325 0.0261152 0)
(1.00966 0.0213489 0)
(0.753136 0.0116942 0)
(0.404266 0.00348948 0)
(0.0776904 0.000164956 0)
(0.099379 3.72707e-05 0)
(0.651046 -0.000571731 0)
(0.957388 -0.00303036 0)
(1.1083 -0.00459815 0)
(1.12568 -0.00278172 0)
(1.10654 0.00094227 0)
(1.09008 0.00537071 0)
(1.07781 0.0102285 0)
(1.06811 0.0153144 0)
(1.06054 0.0203029 0)
(1.05647 0.0241917 0)
(1.05691 0.0265438 0)
(1.06206 0.0277113 0)
(1.07217 0.0281754 0)
(1.08834 0.0287275 0)
(1.08848 0.027814 0)
(0.98993 0.0220815 0)
(0.724734 0.0119426 0)
(0.38385 0.00359518 0)
(0.0728374 0.000173213 0)
(0.100246 7.40165e-05 0)
(0.647859 0.000460946 0)
(0.952254 -0.000730914 0)
(1.10926 -0.00150638 0)
(1.13162 0.000603967 0)
(1.11308 0.00461302 0)
(1.09611 0.00942584 0)
(1.08319 0.0146476 0)
(1.07264 0.0200158 0)
(1.06399 0.025109 0)
(1.05877 0.0288415 0)
(1.05828 0.030856 0)
(1.06286 0.0316285 0)
(1.07271 0.0316721 0)
(1.0881 0.031798 0)
(1.08189 0.0301095 0)
(0.968083 0.023278 0)
(0.69535 0.0124696 0)
(0.362781 0.00378081 0)
(0.0677511 0.000184505 0)
(0.102089 0.000111342 0)
(0.648465 0.00163153 0)
(0.950241 0.00180505 0)
(1.11155 0.00202496 0)
(1.13823 0.00452411 0)
(1.12024 0.00896507 0)
(1.10267 0.0142632 0)
(1.08896 0.0199454 0)
(1.07739 0.025679 0)
(1.06743 0.0309255 0)
(1.06082 0.0345066 0)
(1.05923 0.036145 0)
(1.06314 0.0364966 0)
(1.07266 0.0360836 0)
(1.0867 0.0357202 0)
(1.07322 0.0330859 0)
(0.943708 0.024976 0)
(0.664341 0.0132707 0)
(0.340587 0.00403974 0)
(0.0623362 0.000198225 0)
(0.104975 0.00016214 0)
(0.653321 0.00309101 0)
(0.95183 0.00472412 0)
(1.11566 0.00609147 0)
(1.14573 0.00916109 0)
(1.12815 0.0141792 0)
(1.1099 0.0200811 0)
(1.09523 0.0263368 0)
(1.0824 0.0325219 0)
(1.07085 0.0379603 0)
(1.0626 0.0413666 0)
(1.05975 0.0425787 0)
(1.06283 0.0424797 0)
(1.07196 0.0415579 0)
(1.08397 0.0406742 0)
(1.06209 0.0368517 0)
(0.916248 0.0272229 0)
(0.631003 0.0143401 0)
(0.316809 0.0043637 0)
(0.0565124 0.000213535 0)
(0.109182 0.000228679 0)
(0.662816 0.00477964 0)
(0.957479 0.00816604 0)
(1.12207 0.0108769 0)
(1.1544 0.0147121 0)
(1.13705 0.0204879 0)
(1.11797 0.0271398 0)
(1.10211 0.0340958 0)
(1.08772 0.0408142 0)
(1.07425 0.0464596 0)
(1.06407 0.0496363 0)
(1.05975 0.0503547 0)
(1.06186 0.0497566 0)
(1.07051 0.0482543 0)
(1.08002 0.0467686 0)
(1.04798 0.0415196 0)
(0.885001 0.030036 0)
(0.594584 0.0156557 0)
(0.291029 0.00473653 0)
(0.0502219 0.000228925 0)
(0.11505 0.000318119 0)
(0.67775 0.00688454 0)
(0.967835 0.0123372 0)
(1.13136 0.0166255 0)
(1.16462 0.0214457 0)
(1.14719 0.0282123 0)
(1.12705 0.0357855 0)
(1.1097 0.043573 0)
(1.09337 0.0508854 0)
(1.07759 0.0567073 0)
(1.06514 0.0595569 0)
(1.05906 0.0596557 0)
(1.06016 0.0585056 0)
(1.0683 0.0563792 0)
(1.07454 0.0541899 0)
(1.03025 0.0471617 0)
(0.849098 0.0334144 0)
(0.554307 0.0171709 0)
(0.262904 0.00513281 0)
(0.0434441 0.000242515 0)
(0.123092 0.000447257 0)
(0.699092 0.00964477 0)
(0.983768 0.0175458 0)
(1.1442 0.023682 0)
(1.17688 0.0297589 0)
(1.15889 0.0378122 0)
(1.13736 0.0464976 0)
(1.11807 0.0552327 0)
(1.09934 0.0631425 0)
(1.08078 0.069028 0)
(1.06572 0.0713781 0)
(1.05765 0.0707145 0)
(1.05762 0.0688837 0)
(1.06522 0.0660516 0)
(1.06717 0.0629404 0)
(1.00801 0.0538403 0)
(0.807527 0.037299 0)
(0.509436 0.0187994 0)
(0.232238 0.00551303 0)
(0.036213 0.000251708 0)
(0.134042 0.000632144 0)
(0.728071 0.0134337 0)
(1.00644 0.024261 0)
(1.16136 0.0325945 0)
(1.19176 0.0402531 0)
(1.17249 0.0499648 0)
(1.14905 0.0599511 0)
(1.12724 0.0696828 0)
(1.1055 0.078076 0)
(1.08365 0.0837769 0)
(1.06562 0.0853529 0)
(1.0554 0.0837348 0)
(1.05416 0.0811055 0)
(1.06094 0.0774036 0)
(1.05722 0.073194 0)
(0.980157 0.0615251 0)
(0.759162 0.0415444 0)
(0.459383 0.0203972 0)
(0.199066 0.00582167 0)
(0.0286362 0.000253387 0)
(0.149144 0.000925214 0)
(0.766688 0.0188734 0)
(1.03751 0.0332727 0)
(1.1838 0.0443078 0)
(1.21007 0.0540879 0)
(1.18832 0.065714 0)
(1.16216 0.0771055 0)
(1.13703 0.0877057 0)
(1.11159 0.0962495 0)
(1.08591 0.101317 0)
(1.06462 0.101705 0)
(1.05214 0.0988596 0)
(1.04965 0.0952968 0)
(1.05513 0.0908088 0)
(1.04384 0.0850285 0)
(0.94526 0.0700403 0)
(0.702894 0.0458783 0)
(0.403905 0.0217531 0)
(0.163787 0.00598867 0)
(0.0209141 0.000244249 0)
(0.170609 0.00143319 0)
(0.818223 0.0271106 0)
(1.07959 0.0461435 0)
(1.21265 0.0607001 0)
(1.23237 0.0732802 0)
(1.20646 0.0866806 0)
(1.17644 0.0992783 0)
(1.14703 0.110237 0)
(1.11715 0.118256 0)
(1.08716 0.121977 0)
(1.06243 0.120596 0)
(1.0477 0.11618 0)
(1.044 0.111504 0)
(1.04779 0.106152 0)
(1.0259 0.0983251 0)
(0.901555 0.0790043 0)
(0.637913 0.0498711 0)
(0.343467 0.0226032 0)
(0.127322 0.00594067 0)
(0.0133549 0.000220867 0)
(0.201849 0.00255891 0)
(0.888446 0.0408316 0)
(1.1363 0.0667264 0)
(1.24832 0.0853635 0)
(1.2584 0.100596 0)
(1.22628 0.115225 0)
(1.19105 0.128069 0)
(1.15639 0.138249 0)
(1.12147 0.144622 0)
(1.0869 0.145985 0)
(1.05872 0.14209 0)
(1.04187 0.135697 0)
(1.03708 0.129692 0)
(1.03842 0.1233 0)
(1.00176 0.112701 0)
(0.846987 0.0876986 0)
(0.564363 0.0529549 0)
(0.279969 0.0227526 0)
(0.0914615 0.00565695 0)
(0.00645465 0.000181216 0)
(0.244431 0.0088411 7.84106e-20)
(0.981407 0.0681369 7.0314e-20)
(1.20531 0.101364 -2.4802e-20)
(1.28769 0.121894 0)
(1.28533 0.139643 -6.52317e-34)
(1.24562 0.153671 9.58147e-21)
(1.20443 0.164977 -1.74683e-20)
(1.16402 0.172953 0)
(1.12372 0.176595 3.63492e-34)
(1.08433 0.174795 -2.2027e-20)
(1.05252 0.167907 0)
(1.03347 0.159379 -2.63348e-20)
(1.02787 0.152265 -7.7781e-20)
(1.02572 0.145556 -3.67063e-20)
(0.967235 0.13062 -1.10614e-20)
(0.775264 0.0974579 -6.57477e-21)
(0.477121 0.055427 0)
(0.211921 0.0225934 4.58183e-21)
(0.056235 0.00542852 5.38731e-21)
(0.000185351 0.000137299 9.56998e-20)
(0.274109 0.0242994 5.42227e-20)
(1.05827 0.11103 1.07057e-21)
(1.26225 0.150723 6.44124e-21)
(1.32295 0.171384 0)
(1.30895 0.188995 -3.25462e-20)
(1.26222 0.200834 -3.73239e-20)
(1.21513 0.209815 -1.75052e-20)
(1.16891 0.215299 -6.30225e-20)
(1.12305 0.216165 0)
(1.07846 0.211269 9.3777e-20)
(1.04261 0.201488 9.33504e-20)
(1.02115 0.19088 2.77838e-20)
(1.01341 0.182045 1.01705e-19)
(1.00269 0.173076 1.43099e-19)
(0.912552 0.151385 0)
(0.677868 0.10741 2.01479e-19)
(0.374278 0.0573438 2.8829e-19)
(0.141297 0.0216956 3.19015e-19)
(0.0209342 0.00397857 -3.62965e-19)
(-0.00618502 -0.000502317 -6.73606e-21)
(0.275321 0.0404655 0)
(1.10695 0.166708 8.82276e-21)
(1.30068 0.211379 0)
(1.35038 0.231518 -3.98986e-20)
(1.32751 0.246059 0)
(1.27488 0.253981 -7.22699e-20)
(1.22227 0.259213 3.5495e-20)
(1.17055 0.261089 -1.25832e-19)
(1.11939 0.258296 -3.16934e-21)
(1.06987 0.249637 4.82856e-20)
(1.03022 0.236508 2.05271e-19)
(1.00645 0.223452 -4.19568e-22)
(0.996336 0.212706 -7.38654e-20)
(0.976718 0.200578 -1.34765e-19)
(0.86299 0.17117 1.59199e-19)
(0.607587 0.116244 -2.81473e-19)
(0.313569 0.0589625 -3.70514e-20)
(0.103964 0.0204759 0)
(0.00260708 0.00174676 -2.65629e-23)
(-0.00977976 -0.00136995 0)
(0.268789 0.0543345 9.15575e-20)
(1.13321 0.225587 -4.86851e-20)
(1.32435 0.276562 -4.23017e-20)
(1.36858 0.296859 1.82307e-20)
(1.33959 0.307432 -3.10324e-20)
(1.28254 0.310789 1.50626e-19)
(1.22538 0.311574 7.36667e-20)
(1.16891 0.309173 0)
(1.11303 0.30214 -2.39757e-19)
(1.05898 0.289215 0)
(1.01577 0.272342 -1.07376e-19)
(0.98979 0.256543 -1.33314e-19)
(0.977304 0.243466 -8.03534e-20)
(0.950113 0.227587 -9.7775e-20)
(0.822483 0.190453 0)
(0.561962 0.126037 0)
(0.281135 0.0624082 -2.40763e-19)
(0.0845301 0.0197648 4.74099e-20)
(-0.00845672 -0.000798547 -2.76295e-20)
(-0.0125358 -0.00243835 -3.18344e-20)
(0.26093 0.0664971 -1.98777e-20)
(1.14459 0.284271 0)
(1.3373 0.342598 7.73271e-20)
(1.37849 0.363556 4.90893e-20)
(1.34527 0.370242 7.31128e-20)
(1.285 0.369026 0)
(1.22428 0.365244 7.10335e-20)
(1.1639 0.358367 1.38284e-19)
(1.10394 0.346851 1.22108e-19)
(1.04584 0.329391 2.2732e-19)
(0.999331 0.308507 0)
(0.971153 0.289709 -2.87207e-19)
(0.956329 0.274061 -1.73365e-19)
(0.923327 0.254321 -1.02544e-19)
(0.789543 0.210288 6.26818e-19)
(0.533349 0.137759 7.42284e-20)
(0.265203 0.067766 3.47402e-19)
(0.0761832 0.0199844 -1.64196e-18)
(-0.0140869 -0.00311516 9.66653e-19)
(-0.0144685 -0.00356327 -1.14738e-18)
(0.253329 0.077446 1.13902e-20)
(1.14645 0.340905 3.0143e-21)
(1.34243 0.407593 -6.11174e-21)
(1.38176 0.429715 -4.25557e-20)
(1.34548 0.432755 -5.74869e-20)
(1.28281 0.427144 3.58983e-21)
(1.21928 0.418945 -7.70517e-20)
(1.15569 0.407659 1.4221e-19)
(1.09226 0.391669 -2.62704e-19)
(1.03055 0.369626 0)
(0.980959 0.344623 -1.2977e-19)
(0.950585 0.322685 -3.17597e-21)
(0.933475 0.304374 -1.89862e-19)
(0.896474 0.280911 0)
(0.76205 0.23083 -1.35666e-19)
(0.515388 0.151329 -3.20503e-19)
(0.259633 0.0753216 8.50427e-19)
(0.0759289 0.0217212 -8.38142e-19)
(-0.0149726 -0.00461914 1.18401e-18)
(-0.0153696 -0.00456219 -1.21172e-18)
(0.24684 0.0875135 -8.26784e-22)
(1.14235 0.394803 5.49539e-21)
(1.34192 0.470546 -5.17559e-21)
(1.3798 0.494142 1.36464e-20)
(1.3413 0.493931 -2.82761e-20)
(1.27681 0.484205 0)
(1.21102 0.471837 -6.99896e-20)
(1.14475 0.456339 -1.48436e-19)
(1.07829 0.436025 -1.36066e-19)
(1.01333 0.409488 0)
(0.960861 0.380378 -1.34269e-19)
(0.928343 0.355285 -1.67253e-19)
(0.90909 0.334274 2.06088e-19)
(0.869365 0.307235 -1.2518e-19)
(0.737495 0.252077 -5.93251e-19)
(0.502743 0.166457 3.50388e-19)
(0.25933 0.0843925 1.03472e-19)
(0.0800982 0.0250117 0)
(-0.0121939 -0.0049114 -1.14697e-18)
(-0.0152135 -0.00523491 -4.14832e-20)
(0.241584 0.097027 7.9025e-21)
(1.13463 0.445776 -1.13382e-20)
(1.33727 0.530998 1.04557e-22)
(1.37386 0.556115 5.38161e-20)
(1.33368 0.55311 -9.77879e-20)
(1.26781 0.539636 1.32691e-19)
(1.20018 0.5234 1.50951e-19)
(1.13162 0.50395 -2.3704e-19)
(1.06248 0.479538 8.52193e-20)
(0.994567 0.448673 -5.58712e-19)
(0.93939 0.415559 -1.5249e-19)
(0.904769 0.387362 0)
(0.883446 0.363718 2.2391e-19)
(0.841767 0.333394 2.68722e-19)
(0.714313 0.273399 3.20243e-19)
(0.491813 0.182587 -3.81871e-19)
(0.260389 0.0947069 -1.12196e-19)
(0.0861663 0.0297931 1.3229e-19)
(-0.00714678 -0.00391105 0)
(-0.0142231 -0.00554855 -9.02457e-20)
(0.237486 0.106142 -1.28217e-19)
(1.12494 0.493932 7.11324e-20)
(1.32974 0.588732 3.20072e-21)
(1.36499 0.615329 2.78494e-20)
(1.32344 0.609901 -4.00178e-20)
(1.2565 0.593048 -8.16867e-21)
(1.18737 0.573293 -1.65711e-19)
(1.11684 0.550201 -8.59581e-20)
(1.04531 0.521953 -2.36783e-19)
(0.97464 0.486983 6.51333e-22)
(0.916888 0.450008 -4.7707e-19)
(0.880249 0.418776 4.05341e-19)
(0.857018 0.392574 -2.46745e-19)
(0.813888 0.358951 2.96938e-19)
(0.691104 0.294539 0)
(0.480423 0.199024 -2.08272e-19)
(0.261038 0.105516 5.47749e-22)
(0.0924225 0.0355568 -5.78959e-19)
(-0.00117474 -0.00197534 -8.45264e-20)
(-0.0127295 -0.0055525 0)
(0.234444 0.115003 0)
(1.11427 0.539502 8.27215e-20)
(1.32025 0.644186 2.96338e-20)
(1.35399 0.671637 -2.03609e-20)
(1.31127 0.6641 -5.60481e-20)
(1.2435 0.644223 0)
(1.17313 0.621298 -7.28215e-20)
(1.10088 0.594893 -2.07876e-21)
(1.02716 0.563115 5.07862e-19)
(0.953894 0.524286 -7.65253e-20)
(0.89367 0.4836 -3.44915e-19)
(0.855098 0.449415 2.10473e-19)
(0.830071 0.420671 -4.46498e-21)
(0.785687 0.383817 3.16273e-19)
(0.667122 0.315046 1.9427e-19)
(0.467271 0.215175 -4.50298e-19)
(0.259215 0.116341 5.31861e-19)
(0.0971579 0.041774 1.5738e-19)
(0.0045513 0.000617074 6.45336e-19)
(-0.0109932 -0.00527248 -1.69738e-18)
(0.232365 0.12379 -4.4312e-20)
(1.10333 0.582665 5.97728e-20)
(1.30943 0.696655 -4.0015e-20)
(1.3415 0.725019 5.6978e-21)
(1.29774 0.715612 0)
(1.22933 0.693033 -5.54995e-20)
(1.15791 0.667286 2.4765e-19)
(1.08414 0.637905 1.8766e-19)
(1.00839 0.602916 0)
(0.932643 0.560503 -1.10656e-18)
(0.870002 0.516259 9.34872e-19)
(0.829561 0.479177 0)
(0.802836 0.447892 2.89284e-19)
(0.757208 0.407695 -4.43996e-21)
(0.641793 0.334514 -6.24075e-19)
(0.452301 0.230055 2.43049e-19)
(0.254633 0.126496 0)
(0.0994908 0.0477545 8.50812e-19)
(0.00905358 0.0032846 0)
(-0.00933735 -0.00486849 -8.04999e-19)
(0.231113 0.132542 5.3636e-20)
(1.09253 0.623684 7.92555e-20)
(1.29788 0.746199 -3.91477e-20)
(1.32797 0.775501 0)
(1.28331 0.764416 -3.98385e-20)
(1.2144 0.739442 0)
(1.1421 0.711191 -2.40257e-19)
(1.06696 0.679168 -8.53109e-20)
(0.989329 0.641303 8.89268e-20)
(0.911148 0.595596 -5.47657e-19)
(0.84608 0.547952 9.63295e-20)
(0.803802 0.507999 0)
(0.775469 0.474088 -6.18414e-19)
(0.728574 0.430368 4.27342e-21)
(0.615551 0.352433 0)
(0.435047 0.243305 2.10112e-21)
(0.247089 0.135226 7.8109e-19)
(0.0988346 0.0527536 -7.34356e-19)
(0.0116906 0.00548864 2.1606e-19)
(-0.00802316 -0.00448533 0)
(0.230373 0.141179 0)
(1.08218 0.662601 9.65138e-20)
(1.28577 0.793008 6.00299e-20)
(1.31383 0.823129 -5.02609e-21)
(1.26837 0.810536 -6.96433e-21)
(1.19906 0.783448 -1.2494e-19)
(1.12602 0.752998 9.13478e-20)
(1.04965 0.718653 -1.02429e-19)
(0.970219 0.678241 3.99212e-19)
(0.889629 0.629556 -8.76488e-19)
(0.822084 0.578685 -8.25858e-21)
(0.777951 0.535839 -2.69913e-19)
(0.74805 0.49911 1.00472e-18)
(0.699812 0.451514 -5.13086e-21)
(0.588594 0.368397 -4.85658e-19)
(0.415905 0.254413 -8.60669e-19)
(0.237027 0.142074 0)
(0.0957936 0.0562025 0)
(0.0125897 0.00686227 2.33143e-19)
(-0.00709721 -0.00423141 -1.34792e-19)
(0.230346 0.14984 7.63898e-20)
(1.07247 0.699337 -2.20453e-19)
(1.27334 0.837216 -6.43662e-20)
(1.29942 0.867963 0)
(1.2532 0.854032 -2.98909e-21)
(1.18359 0.825082 -1.06955e-19)
(1.10993 0.792716 2.15709e-19)
(1.03244 0.756355 3.98453e-19)
(0.951295 0.71373 5.17706e-19)
(0.868298 0.662397 -7.15566e-19)
(0.798171 0.608498 -8.05675e-19)
(0.752071 0.562698 7.22249e-19)
(0.720567 0.522879 0)
(0.67086 0.470878 -2.21339e-19)
(0.560977 0.38209 -5.25029e-19)
(0.395124 0.26296 -6.19473e-19)
(0.22468 0.146681 -7.28973e-19)
(0.0905949 0.0579812 2.14602e-19)
(0.0120249 0.00732851 -1.25555e-19)
(-0.00653098 -0.00413223 5.90095e-22)
(0.230431 0.158422 0)
(1.06347 0.73426 0)
(1.26089 0.878902 4.87247e-21)
(1.28496 0.910122 0)
(1.23805 0.894993 -3.57275e-21)
(1.16822 0.864404 6.62991e-20)
(1.09404 0.830377 0)
(1.01553 0.792288 4.64297e-20)
(0.932753 0.747777 8.6258e-19)
(0.847339 0.694148 -1.64645e-18)
(0.774471 0.637449 0)
(0.726209 0.588637 -4.65538e-19)
(0.692955 0.545352 -6.02348e-21)
(0.64166 0.488248 -4.55744e-21)
(0.532781 0.393194 5.62253e-19)
(0.372741 0.268671 -9.89701e-23)
(0.210618 0.148748 -1.57115e-18)
(0.0837046 0.058014 4.61843e-19)
(0.0103926 0.00700009 1.35784e-19)
(-0.00620816 -0.00414115 0)
(0.230698 0.166857 -3.07432e-19)
(1.05494 0.767547 -1.5058e-19)
(1.24851 0.91816 -1.94207e-19)
(1.27062 0.94974 1.789e-19)
(1.2231 0.933497 -3.63088e-20)
(1.15312 0.90148 0)
(1.07851 0.866027 1.27079e-19)
(0.999078 0.826479 -1.04384e-19)
(0.914751 0.780399 7.79659e-21)
(0.826918 0.724846 1.21746e-19)
(0.751114 0.665618 1.04417e-18)
(0.700389 0.61377 -1.63201e-19)
(0.665116 0.566559 -6.20051e-19)
(0.612052 0.50344 -2.58002e-19)
(0.504083 0.401347 3.04957e-19)
(0.349623 0.271266 2.35495e-22)
(0.195344 0.148195 4.23107e-19)
(0.0757264 0.0563606 -9.93683e-19)
(0.00808891 0.00599705 1.16887e-18)
(-0.00603726 -0.00422408 1.67931e-19)
(0.230864 0.175051 1.17213e-19)
(1.04691 0.799269 -8.50695e-20)
(1.23634 0.955091 1.22412e-20)
(1.25653 0.986952 1.18276e-19)
(1.20848 0.969656 2.10573e-20)
(1.13842 0.936384 -1.09747e-19)
(1.06348 0.899718 3.4495e-20)
(0.983218 0.858952 -4.33533e-19)
(0.897423 0.811601 -9.48361e-19)
(0.807175 0.754504 -9.80537e-19)
(0.72824 0.693096 0)
(0.674643 0.638253 -7.18463e-19)
(0.63692 0.586604 8.94515e-19)
(0.581792 0.516303 0)
(0.474841 0.406134 -6.53296e-19)
(0.326396 0.270284 3.87491e-19)
(0.180119 0.144844 -4.54832e-19)
(0.0678959 0.0533089 -5.34416e-19)
(0.00573545 0.00460143 -9.41316e-19)
(-0.00596945 -0.00435827 -7.22721e-19)
(0.231398 0.183117 -1.32402e-19)
(1.03919 0.829423 9.09052e-20)
(1.22443 0.989766 2.07353e-19)
(1.24278 1.02184 1.74978e-19)
(1.1943 1.00356 -3.64548e-20)
(1.12422 0.969206 -5.10881e-20)
(1.04902 0.931502 1.17063e-19)
(0.968038 0.889748 -4.42766e-19)
(0.880862 0.841407 -5.61344e-19)
(0.788235 0.783145 1.02581e-18)
(0.705973 0.719964 2.29457e-18)
(0.649035 0.662266 0)
(0.608252 0.60567 0)
(0.550503 0.526816 -2.96811e-19)
(0.444736 0.407095 0)
(0.303326 0.264804 8.32149e-19)
(0.166449 0.137869 9.7706e-19)
(0.062257 0.0487461 0)
(0.00454091 0.00310562 0)
(-0.005952 -0.00449824 7.76488e-19)
(0.231616 0.190758 1.51034e-19)
(1.03182 0.858003 1.24378e-19)
(1.21286 1.02231 1.50623e-19)
(1.22944 1.05454 -1.71036e-19)
(1.18063 1.03533 -5.28841e-20)
(1.11059 1.00002 4.03731e-20)
(1.03522 0.961441 -1.58977e-19)
(0.953607 0.918898 -1.22048e-21)
(0.865153 0.869826 -1.01172e-20)
(0.770197 0.810769 -8.91042e-21)
(0.684461 0.746287 1.18165e-18)
(0.62367 0.685977 0)
(0.579041 0.624024 9.07005e-19)
(0.517754 0.535166 6.33844e-19)
(0.413006 0.403989 1.52341e-18)
(0.279987 0.253452 4.48272e-19)
(0.155922 0.124469 -5.25301e-19)
(0.0633387 0.0393217 -3.07333e-19)
(0.0107745 0.000242748 0)
(-0.00389682 -0.00400584 8.34059e-19)
(0.232151 0.19842 -3.40012e-19)
(1.02476 0.885099 0)
(1.2016 1.05278 1.7832e-19)
(1.21654 1.0851 -1.45812e-19)
(1.16751 1.06506 7.80078e-20)
(1.09756 1.02892 -2.14856e-20)
(1.02212 0.989593 2.97918e-19)
(0.939966 0.946436 -3.65847e-20)
(0.850342 0.896868 0)
(0.753144 0.837355 -1.12922e-18)
(0.663847 0.772092 -2.56795e-18)
(0.598694 0.709543 1.05947e-19)
(0.549326 0.641988 1.25329e-18)
(0.483219 0.541812 0)
(0.378423 0.397209 1.02845e-18)
(0.254057 0.235039 0)
(0.146346 0.0982983 0)
(0.0764131 0.0101791 -3.32216e-19)
(0.046761 -0.0142383 0)
(0.0263728 0.00976539 2.23344e-19)
(0.232342 0.205495 -3.80665e-19)
(1.01798 0.911056 0)
(1.19066 1.08138 2.97274e-19)
(1.20405 1.11378 0)
(1.15492 1.09301 -4.92759e-20)
(1.08508 1.05619 0)
(1.00965 1.01627 1.27695e-20)
(0.927017 0.9727 6.03882e-20)
(0.836306 0.922893 7.01845e-20)
(0.736905 0.863284 -1.23504e-18)
(0.643937 0.797818 7.66765e-20)
(0.573853 0.73361 8.53699e-19)
(0.518653 0.660393 1.22188e-18)
(0.445958 0.547403 1.64924e-19)
(0.338979 0.388183 8.06581e-19)
(0.220349 0.210414 0)
(0.125525 0.0550033 1.10621e-18)
(0.0694052 -0.0315111 -6.4007e-19)
(0.0402839 0.0434739 7.39138e-19)
(-0.0595855 0.436838 -8.7632e-19)
(0.232521 0.212382 3.15763e-19)
(1.01118 0.935651 4.9551e-19)
(1.17994 1.10842 0)
(1.19182 1.14101 9.60534e-21)
(1.14266 1.11976 1.49343e-19)
(1.07288 1.08251 -3.64896e-20)
(0.997494 1.04226 9.66476e-20)
(0.914346 0.998621 0)
(0.822506 0.948983 4.60725e-19)
(0.720802 0.889855 -6.39998e-20)
(0.623809 0.824943 0)
(0.547867 0.759869 0)
(0.484996 0.680674 1.09741e-18)
(0.403503 0.552438 -5.10937e-19)
(0.291433 0.378785 -8.19428e-19)
(0.174021 0.182921 0)
(0.0731434 0.0662506 5.5367e-19)
(0.00528734 0.439386 -6.32374e-19)
(0.0309979 1.8979 -3.4664e-19)
(0.0617094 2.81245 -4.57792e-19)
(0.232492 0.218528 -2.36217e-19)
(1.0045 0.959045 -6.35088e-19)
(1.16948 1.1339 1.76488e-19)
(1.17985 1.16667 1.44346e-19)
(1.13074 1.14509 0)
(1.06105 1.10759 -4.67619e-20)
(0.985862 1.06727 1.21816e-19)
(0.902145 1.02377 -2.87266e-20)
(0.809218 0.974625 6.90456e-20)
(0.705221 0.916467 1.17603e-18)
(0.604067 0.852824 1.29794e-18)
(0.521672 0.788001 9.59768e-19)
(0.44914 0.702954 1.10628e-18)
(0.357277 0.555977 -1.20401e-18)
(0.241415 0.372997 -1.24007e-18)
(0.117344 0.228689 0)
(0.0424255 0.837141 0)
(0.0969843 2.55639 3.03523e-19)
(0.0999694 3.20393 0)
(0.102728 3.38872 6.65256e-19)
(0.235485 0.224269 0)
(0.998534 0.981517 0)
(1.15898 1.15766 0)
(1.16795 1.19061 4.39485e-20)
(1.11883 1.16875 1.37077e-19)
(1.04936 1.13131 -5.9371e-20)
(0.974647 1.09117 7.43898e-20)
(0.890359 1.04803 -2.77116e-20)
(0.796391 0.999666 5.69817e-19)
(0.690177 0.942971 -1.7447e-20)
(0.584841 0.881337 2.5641e-18)
(0.495584 0.817895 -1.11101e-19)
(0.411173 0.728236 1.33894e-19)
(0.309618 0.556018 1.74732e-19)
(0.180406 0.385089 -8.0529e-21)
(0.0971747 0.965224 3.57103e-21)
(0.136746 2.72908 -1.61677e-18)
(0.143916 3.29409 -5.97042e-19)
(0.133567 3.42551 2.98724e-19)
(0.121702 3.4474 -3.27281e-19)
(0.155652 0.176676 1.34807e-19)
(0.987972 1.00596 0)
(1.14814 1.17987 -3.45104e-19)
(1.15652 1.21326 -3.90319e-19)
(1.10766 1.19143 3.31298e-19)
(1.03866 1.15427 7.233e-20)
(0.963741 1.11402 -7.10429e-20)
(0.879073 1.07151 2.91665e-19)
(0.784167 1.02426 -4.6186e-19)
(0.675945 0.969532 0)
(0.566522 0.910678 1.25536e-18)
(0.470121 0.849334 -7.83609e-19)
(0.372887 0.759359 0)
(0.253918 0.553688 1.58077e-19)
(0.139929 0.733017 3.83834e-19)
(0.152298 2.50578 -4.45564e-19)
(0.207099 3.32255 4.91362e-19)
(0.188335 3.43712 2.6431e-19)
(0.156579 3.45873 2.89659e-19)
(0.135542 3.46907 4.62331e-19)
(0.27528 0.262107 -2.38452e-19)
(0.971587 1.01542 0)
(1.1299 1.20532 3.824e-19)
(1.14151 1.24373 4.28204e-19)
(1.09029 1.22456 -3.68146e-19)
(1.02056 1.18779 -1.16991e-19)
(0.944632 1.14914 3.96479e-20)
(0.859454 1.10789 2.31652e-20)
(0.763216 1.06285 4.35482e-19)
(0.652198 1.01214 1.00651e-18)
(0.537367 0.959806 7.04851e-20)
(0.429839 0.903278 6.9682e-19)
(0.302527 0.795994 1.24995e-19)
(0.211384 0.912017 -1.59781e-19)
(0.226133 2.3568 -3.55821e-19)
(0.285989 3.32462 3.30664e-19)
(0.269522 3.46459 -3.70285e-19)
(0.234318 3.48685 -2.13991e-19)
(0.19806 3.51446 -1.69927e-19)
(0.147513 3.5086 -1.63494e-20)
(0.26436 0.259622 0)
(0.969287 1.03827 1.11378e-19)
(1.12146 1.22882 -7.95404e-20)
(1.13085 1.26744 -5.16502e-20)
(1.07939 1.24776 -2.57503e-19)
(1.0096 1.2112 1.23671e-19)
(0.933371 1.17272 -9.91045e-21)
(0.847977 1.13229 2.03632e-20)
(0.751176 1.08873 -4.5078e-19)
(0.638784 1.04092 -2.68518e-20)
(0.520971 0.993517 -2.27001e-18)
(0.407894 0.94097 9.97465e-20)
(0.28364 0.861577 -1.17256e-19)
(0.252462 1.48181 -1.48121e-19)
(0.326523 3.10388 3.50158e-20)
(0.345667 3.46229 5.90055e-22)
(0.305114 3.51766 5.30625e-19)
(0.268335 3.54479 2.53443e-19)
(0.220064 3.5681 -5.27674e-20)
(0.162811 3.56424 -7.45351e-20)
(0.24876 0.257732 2.809e-19)
(0.965513 1.06368 7.6533e-19)
(1.1126 1.25437 -2.28876e-19)
(1.11956 1.2925 -1.95518e-19)
(1.06787 1.27234 0)
(0.998213 1.2358 2.33572e-19)
(0.921969 1.19758 1.48844e-20)
(0.836631 1.15793 1.73295e-20)
(0.73959 1.11597 -5.06168e-20)
(0.626368 1.07134 -9.02923e-19)
(0.506457 1.02931 -1.04395e-18)
(0.389535 0.98032 -8.08981e-19)
(0.285965 0.992334 -8.9472e-19)
(0.322569 2.21152 9.16239e-19)
(0.413408 3.37405 7.43808e-19)
(0.39001 3.51927 0)
(0.344122 3.56415 0)
(0.306114 3.60445 -4.13847e-20)
(0.256355 3.66299 0)
(0.17541 3.63957 -3.1324e-20)
(0.238387 0.259634 -4.23302e-19)
(0.959652 1.08998 -6.537e-19)
(1.1023 1.28112 0)
(1.10691 1.31828 1.14259e-20)
(1.05508 1.29751 -2.83818e-19)
(0.985715 1.26092 3.85268e-19)
(0.909786 1.22298 2.66768e-20)