/*--------------------------------*- C++ -*----------------------------------*\
| =========                 |                                                 |
| \\      /  F ield         | OpenFOAM: The Open Source CFD Toolbox           |
|  \\    /   O peration     | Version:  2306                                  |
|   \\  /    A nd           | Website:  www.openfoam.com                      |
|    \\/     M anipulation  |                                                 |
\*---------------------------------------------------------------------------*/
FoamFile
{
    version     2.0;
    format      ascii;
    arch        "LSB;label=32;scalar=64";
    class       volScalarField;
    location    "43";
    object      p;
}
// * * * * * * * * * * * * * * * * * * * * * * * * * * * * * * * * * * * * * //

dimensions      [0 2 -2 0 0 0 0];

internalField   nonuniform List<scalar> 
8800
(
0.891085
0.843033
0.804653
0.776006
0.755372
0.740604
0.729981
0.722454
0.717584
0.71548
0.716714
0.720892
0.727541
0.736865
0.749609
0.76719
0.79163
0.82524
0.867684
0.924809
0.723622
0.730827
0.739261
0.742672
0.740749
0.735215
0.728488
0.722304
0.717515
0.71462
0.714298
0.716778
0.721266
0.727246
0.734144
0.740756
0.744882
0.744365
0.738299
0.729319
0.700343
0.706518
0.710711
0.714065
0.716555
0.717337
0.716207
0.714034
0.711959
0.711003
0.711925
0.714287
0.717097
0.719297
0.719817
0.718278
0.715423
0.71178
0.707244
0.703459
0.695229
0.697928
0.700642
0.702944
0.704577
0.705887
0.706771
0.706943
0.706637
0.706547
0.707249
0.708367
0.709127
0.709042
0.70823
0.707022
0.705264
0.702757
0.700328
0.698797
0.690064
0.691484
0.693277
0.695321
0.697059
0.698346
0.699344
0.700179
0.700808
0.701344
0.701931
0.702338
0.702331
0.70195
0.701232
0.700011
0.6983
0.69641
0.695083
0.69426
0.685091
0.686004
0.687233
0.688803
0.690439
0.691942
0.693183
0.694218
0.695159
0.69601
0.696624
0.696865
0.696755
0.696281
0.69538
0.69414
0.692769
0.691488
0.69066
0.690116
0.680268
0.680932
0.681883
0.683171
0.684568
0.686018
0.687431
0.688706
0.689847
0.690883
0.691619
0.691908
0.691762
0.691198
0.690334
0.689337
0.688293
0.687349
0.686756
0.686357
0.675571
0.676083
0.676856
0.67797
0.679228
0.68058
0.681999
0.683428
0.684789
0.686033
0.686937
0.687311
0.687197
0.68673
0.686059
0.685282
0.684468
0.683756
0.683314
0.683003
0.670939
0.671346
0.671992
0.672983
0.674167
0.675466
0.676874
0.67838
0.679928
0.68142
0.682536
0.683063
0.683109
0.682837
0.682371
0.681789
0.681163
0.680634
0.6803
0.680049
0.666293
0.666625
0.667183
0.668094
0.669227
0.670507
0.671941
0.673529
0.675245
0.676998
0.678394
0.679177
0.679467
0.679421
0.679159
0.678775
0.678324
0.677944
0.677693
0.677484
0.661553
0.661827
0.662324
0.663188
0.664302
0.665602
0.667098
0.668808
0.670724
0.672776
0.674528
0.675649
0.676234
0.676441
0.676397
0.676208
0.675928
0.675676
0.67549
0.675312
0.656637
0.656866
0.657324
0.658172
0.659306
0.660669
0.662271
0.664156
0.666336
0.668756
0.67095
0.672476
0.673401
0.673894
0.674089
0.674096
0.673981
0.673843
0.673711
0.673555
0.651464
0.651658
0.652096
0.652958
0.654154
0.655623
0.657389
0.65952
0.66205
0.664948
0.667674
0.669675
0.670987
0.671797
0.672254
0.672463
0.672516
0.672484
0.672398
0.672259
0.645946
0.64611
0.646545
0.64745
0.64875
0.650376
0.652368
0.654822
0.657798
0.661293
0.66467
0.667236
0.669006
0.67018
0.670932
0.671379
0.671599
0.671664
0.671617
0.671489
0.639977
0.640116
0.640562
0.641539
0.642986
0.644826
0.647115
0.649974
0.653502
0.657729
0.661901
0.665159
0.667484
0.669092
0.670182
0.670886
0.671291
0.671459
0.671449
0.67133
0.63344
0.633554
0.634025
0.635101
0.636744
0.638865
0.641536
0.644914
0.649138
0.654263
0.659409
0.663502
0.666488
0.668606
0.670086
0.671085
0.6717
0.671975
0.672001
0.671887
0.626174
0.626265
0.626773
0.627984
0.629878
0.632356
0.635522
0.639571
0.644674
0.650918
0.657243
0.662332
0.666092
0.66881
0.670758
0.672096
0.672945
0.673335
0.673397
0.673284
0.617963
0.618052
0.618613
0.619973
0.622183
0.625123
0.628917
0.633801
0.640004
0.647635
0.655386
0.661665
0.666351
0.66979
0.672305
0.674052
0.675166
0.67568
0.675778
0.675664
0.60852
0.608585
0.609224
0.610797
0.61342
0.616948
0.62153
0.627458
0.635006
0.644315
0.653815
0.661548
0.667354
0.671654
0.674845
0.677081
0.678514
0.679171
0.679305
0.679187
0.597485
0.597532
0.598269
0.600141
0.603289
0.607574
0.613177
0.620462
0.629746
0.641154
0.652738
0.662153
0.669257
0.674572
0.678541
0.681365
0.683162
0.683975
0.684144
0.684018
0.58433
0.584361
0.585237
0.587502
0.591346
0.596626
0.603557
0.612571
0.624009
0.637972
0.652062
0.663491
0.672135
0.678643
0.683547
0.687062
0.689281
0.690264
0.690465
0.690325
0.568284
0.568306
0.569388
0.572201
0.576991
0.583619
0.592331
0.603613
0.61779
0.634879
0.651935
0.665684
0.676092
0.683979
0.689979
0.694305
0.697004
0.698166
0.69839
0.698229
0.548185
0.54821
0.549624
0.553276
0.559455
0.568012
0.579199
0.593511
0.61118
0.632059
0.652543
0.668904
0.681291
0.690738
0.697932
0.703176
0.706386
0.707717
0.707948
0.70776
0.522215
0.522266
0.524268
0.529307
0.537669
0.549088
0.563769
0.582107
0.604134
0.629509
0.653913
0.673198
0.687753
0.698905
0.707437
0.713665
0.717383
0.718851
0.719068
0.718847
0.487338
0.487505
0.490723
0.498356
0.510457
0.526293
0.545997
0.569664
0.59707
0.627657
0.656377
0.678763
0.695607
0.708544
0.718492
0.7257
0.729853
0.731389
0.731564
0.731308
0.4378
0.438807
0.445284
0.458266
0.47689
0.499571
0.526204
0.556592
0.59033
0.626725
0.660053
0.685664
0.704839
0.719595
0.73099
0.739103
0.743552
0.745055
0.745156
0.744865
0.364856
0.372193
0.387201
0.410105
0.438433
0.470264
0.505369
0.543525
0.584338
0.627111
0.665463
0.694624
0.716433
0.733266
0.746298
0.755329
0.760094
0.761611
0.761692
0.76144
0.286501
0.303296
0.327625
0.361178
0.399697
0.440846
0.484538
0.530721
0.579089
0.629044
0.673504
0.707262
0.732553
0.752116
0.767255
0.777525
0.782579
0.784032
0.784158
0.784064
0.22067
0.240628
0.272807
0.315348
0.362849
0.412796
0.464832
0.518888
0.574664
0.631584
0.681867
0.719931
0.748453
0.770523
0.787492
0.798515
0.803641
0.805286
0.805455
0.805419
0.166731
0.188578
0.2262
0.275179
0.329722
0.387061
0.446476
0.50777
0.570512
0.634062
0.689839
0.731894
0.763324
0.787533
0.80595
0.818041
0.824006
0.825591
0.82581
0.825853
0.121839
0.144897
0.186267
0.240336
0.300565
0.363986
0.429704
0.497407
0.566506
0.636214
0.69713
0.742845
0.77689
0.803085
0.822973
0.835942
0.842431
0.84418
0.844488
0.844536
0.0835211
0.107294
0.151511
0.209589
0.274581
0.343176
0.414361
0.487733
0.562579
0.637955
0.703607
0.752689
0.789112
0.817021
0.837983
0.851712
0.858615
0.860712
0.861102
0.861163
0.049782
0.0740398
0.120517
0.181887
0.250894
0.323978
0.400006
0.478472
0.558556
0.639154
0.709203
0.761375
0.79991
0.829164
0.850895
0.865095
0.872406
0.874849
0.87533
0.875389
0.0191543
0.0438366
0.092162
0.156354
0.228813
0.305825
0.386191
0.469291
0.55421
0.639704
0.713906
0.768968
0.809363
0.839685
0.861933
0.87648
0.884071
0.886771
0.887335
0.887388
-0.00929163
0.0157838
0.0657384
0.132307
0.20782
0.288317
0.372575
0.459917
0.549357
0.639513
0.71773
0.775564
0.817668
0.848921
0.871559
0.886389
0.894194
0.897046
0.897608
0.897628
-0.0363053
-0.0108075
0.0406624
0.1093
0.187532
0.271149
0.358925
0.450173
0.54386
0.638512
0.72069
0.781264
0.825004
0.857103
0.880142
0.895139
0.903075
0.90597
0.906558
0.906544
-0.0622157
-0.0362732
0.0163181
0.0870313
0.167704
0.254119
0.345092
0.439942
0.537635
0.63666
0.722796
0.786146
0.831547
0.864505
0.887944
0.903109
0.911062
0.913981
0.914582
0.91456
-0.0873955
-0.0608582
-0.00724594
0.0653234
0.148167
0.237102
0.330984
0.429154
0.530626
0.633904
0.724039
0.790271
0.837441
0.87135
0.895236
0.910554
0.918519
0.921384
0.921912
0.921849
-0.111937
-0.0850051
-0.0301918
0.0440236
0.128828
0.220036
0.316553
0.417781
0.522799
0.630206
0.724396
0.793681
0.842795
0.877785
0.902179
0.917641
0.925548
0.92831
0.928745
0.928618
-0.135944
-0.108475
-0.0526234
0.023076
0.109654
0.202901
0.301796
0.405813
0.514142
0.625526
0.723813
0.796373
0.847676
0.883917
0.908862
0.924404
0.93214
0.934713
0.935035
0.934861
-0.159493
-0.131431
-0.0745825
0.00247993
0.0906399
0.185714
0.28674
0.393283
0.504664
0.619828
0.722221
0.798297
0.852124
0.889853
0.915395
0.930916
0.938354
0.940642
0.940846
0.940638
-0.18259
-0.153862
-0.0960723
-0.0177543
0.0718298
0.168514
0.271437
0.38024
0.494392
0.613088
0.719545
0.799368
0.856119
0.895696
0.921942
0.937275
0.944193
0.946097
0.946171
0.945943
-0.205064
-0.175715
-0.117023
-0.0375894
0.0532621
0.151368
0.255951
0.366757
0.483383
0.605323
0.715712
0.799472
0.859581
0.901525
0.928742
0.943708
0.949741
0.951064
0.950991
0.95076
-0.226884
-0.196946
-0.137409
-0.0569671
0.0349963
0.134339
0.240374
0.352913
0.471715
0.596557
0.710673
0.798472
0.862359
0.907325
0.936104
0.950702
0.955297
0.955591
0.955286
0.9551
-0.248115
-0.217511
-0.157202
-0.0758513
0.0170975
0.11751
0.224793
0.338809
0.459478
0.586857
0.704382
0.796223
0.864216
0.912893
0.944233
0.959091
0.961842
0.960127
0.959107
0.959146
-0.268583
-0.237397
-0.176342
-0.0941781
-0.000374589
0.100966
0.209303
0.324553
0.446784
0.57632
0.696834
0.792573
0.864862
0.917774
0.952887
0.96971
0.971517
0.966969
0.963542
0.962781
-0.28838
-0.256604
-0.194844
-0.111979
-0.0174566
0.084658
0.193843
0.310082
0.43356
0.56487
0.687889
0.787252
0.863971
0.921329
0.961143
0.982449
0.986431
0.980997
0.971029
0.960902
-0.307434
-0.275118
-0.212842
-0.129454
-0.0344467
0.068245
0.177989
0.2949
0.419252
0.551855
0.676877
0.779439
0.860917
0.922625
0.966822
0.99414
1.00151
0.991311
0.971465
0.963447
-0.325572
-0.292957
-0.230157
-0.146397
-0.0510422
0.0520573
0.161963
0.279338
0.404174
0.537546
0.663923
0.768687
0.855067
0.920536
0.965248
0.992282
1.00335
0.98056
0.913945
0.884292
-0.342329
-0.311372
-0.246411
-0.162252
-0.0664683
0.0366137
0.146068
0.263646
0.388576
0.522098
0.649039
0.7547
0.845357
0.914553
0.95212
0.972037
0.966996
0.915296
0.846845
0.805238
-0.392817
-0.328577
-0.261256
-0.177892
-0.082028
0.0206425
0.130326
0.247604
0.372147
0.505107
0.631706
0.737085
0.828175
0.903914
0.916782
0.919077
0.87715
0.811094
0.735907
0.694301
-0.360166
-0.343218
-0.283397
-0.199737
-0.105209
-0.00273513
0.106114
0.222718
0.346194
0.47749
0.60183
0.705045
0.787051
0.866634
0.859705
0.753058
0.653447
0.5833
0.512137
0.545564
-0.392016
-0.361723
-0.30061
-0.217756
-0.123148
-0.0208869
0.0881602
0.204136
0.326569
0.456041
0.577496
0.676785
0.750238
0.792762
0.748098
0.605901
0.48439
0.396757
0.300997
0.352907
-0.416278
-0.383589
-0.32075
-0.237754
-0.143099
-0.0408992
0.068067
0.183241
0.304295
0.431351
0.549023
0.642469
0.70674
0.715138
0.613548
0.447811
0.302161
0.187959
0.06178
0.0980225
-0.440081
-0.406006
-0.34188
-0.258086
-0.163307
-0.0612246
0.0472701
0.161511
0.280984
0.405258
0.518294
0.605054
0.653848
0.631736
0.478134
0.288766
0.107559
-0.0537416
-0.236917
-0.245124
-0.463402
-0.428865
-0.36385
-0.279362
-0.184397
-0.0824969
0.0254014
0.13859
0.256238
0.377384
0.48516
0.564816
0.595087
0.537733
0.349389
0.143847
-0.0635675
-0.239553
-0.485054
-0.750933
-0.487072
-0.45249
-0.386966
-0.302016
-0.206843
-0.105064
0.00231246
0.114428
0.23016
0.34797
0.450257
0.521528
0.532364
0.424896
0.236798
0.029126
-0.171688
-0.333276
-0.407973
-0.517987
-0.512054
-0.477355
-0.411564
-0.32639
-0.231151
-0.129581
-0.022815
0.0880644
0.201569
0.315551
0.411949
0.472709
0.459513
0.317881
0.136044
-0.0548757
-0.219223
-0.308452
-0.330866
-0.347345
-0.538623
-0.503774
-0.437811
-0.35257
-0.257454
-0.156261
-0.0503401
0.0590076
0.16987
0.27938
0.369408
0.416596
0.385489
0.217937
0.0444404
-0.121505
-0.246642
-0.28413
-0.296337
-0.297514
-0.566989
-0.531916
-0.465765
-0.380552
-0.285699
-0.185105
-0.0802789
0.0272092
0.134995
0.239418
0.322274
0.355069
0.304582
0.125433
-0.0389462
-0.185711
-0.259951
-0.276899
-0.278181
-0.27803
-0.597216
-0.561837
-0.495447
-0.410335
-0.3159
-0.216099
-0.112633
-0.00734599
0.0969521
0.195723
0.270459
0.291177
0.205886
0.0405274
-0.115828
-0.234592
-0.269957
-0.268301
-0.267969
-0.267477
-0.629012
-0.59338
-0.526755
-0.441828
-0.347963
-0.249183
-0.147365
-0.0446303
0.0557819
0.148391
0.214706
0.21875
0.113748
-0.0390872
-0.176669
-0.250038
-0.259789
-0.261739
-0.261939
-0.261634
-0.661832
-0.626054
-0.559444
-0.474801
-0.381694
-0.284189
-0.184311
-0.0845087
0.0116726
0.0977391
0.155526
0.143858
0.0283401
-0.108253
-0.219101
-0.255238
-0.259912
-0.259697
-0.259111
-0.258575
-0.695213
-0.659304
-0.593067
-0.508851
-0.416742
-0.320782
-0.223176
-0.126681
-0.035098
0.0444914
0.091858
0.0705331
-0.0535959
-0.16823
-0.247632
-0.260099
-0.257643
-0.258524
-0.258719
-0.258292
-0.728294
-0.692458
-0.626717
-0.543378
-0.452549
-0.358471
-0.263482
-0.170634
-0.0840893
-0.0105901
0.0263004
0.00216011
-0.131091
-0.22538
-0.257672
-0.268213
-0.264175
-0.259241
-0.257421
-0.257097
-0.759495
-0.724408
-0.659449
-0.577442
-0.488327
-0.39653
-0.304545
-0.215622
-0.13449
-0.066875
-0.0353174
-0.0715438
-0.199625
-0.302617
-0.296275
-0.292273
-0.274057
-0.25897
-0.253611
-0.252158
-0.787251
-0.753233
-0.690179
-0.609855
-0.523009
-0.433983
-0.345449
-0.260717
-0.18502
-0.123586
-0.0940181
-0.141771
-0.249645
-0.388273
-0.404659
-0.346463
-0.300877
-0.278262
-0.267832
-0.263777
-0.809494
-0.777152
-0.716815
-0.639215
-0.555285
-0.469625
-0.385033
-0.304807
-0.234291
-0.179389
-0.151422
-0.197596
-0.262229
-0.386699
-0.47618
-0.382337
-0.363886
-0.353551
-0.339812
-0.332349
-0.824033
-0.794327
-0.737487
-0.663626
-0.583595
-0.502056
-0.42195
-0.346564
-0.28102
-0.232347
-0.204486
-0.234344
-0.217141
-0.176677
-0.210042
-0.337496
-0.415557
-0.432792
-0.429052
-0.427867
-0.828232
-0.802472
-0.750301
-0.681249
-0.60618
-0.529749
-0.454718
-0.384502
-0.323896
-0.28174
-0.248005
-0.275183
-0.244291
-0.145537
-0.269375
-0.397347
-0.458811
-0.475822
-0.479066
-0.48054
-0.820204
-0.79922
-0.75313
-0.69045
-0.621489
-0.55101
-0.48171
-0.416994
-0.361741
-0.32456
-0.290832
-0.366762
-0.475484
-0.578683
-0.57877
-0.556709
-0.564887
-0.572217
-0.575321
-0.576845
-0.797459
-0.78143
-0.744171
-0.689979
-0.628412
-0.564628
-0.501352
-0.442092
-0.392452
-0.360269
-0.349542
-0.482803
-0.604383
-0.614816
-0.502071
-0.604433
-0.704919
-0.707322
-0.699361
-0.696606
-0.76225
-0.751707
-0.723897
-0.679873
-0.626739
-0.570039
-0.512488
-0.457837
-0.411854
-0.384972
-0.385841
-0.522401
-0.647848
-0.681665
-0.726239
-0.867905
-0.902043
-0.829396
-0.755979
-0.764233
-0.720585
-0.714574
-0.696731
-0.662641
-0.618063
-0.567628
-0.514808
-0.462562
-0.417128
-0.388282
-0.39623
-0.550496
-0.941746
-1.53963
-1.96528
-2.16402
-2.03041
-1.70293
-1.43445
-1.32286
-0.681204
-0.677768
-0.668363
-0.643367
-0.605308
-0.55933
-0.509018
-0.456685
-0.406555
-0.371079
-0.38201
-0.498896
-0.777993
-1.10855
-1.32736
-1.44083
-1.39352
-1.23118
-1.06447
-0.970657
-0.650949
-0.648881
-0.644192
-0.626656
-0.593308
-0.548675
-0.497526
-0.440701
-0.381884
-0.324321
-0.28024
-0.248274
-0.153574
0.0554849
0.302226
0.562401
0.800995
0.953907
1.04895
1.09426
-0.626221
-0.625397
-0.624153
-0.614277
-0.585078
-0.539674
-0.483849
-0.419336
-0.347425
-0.263693
-0.173548
-0.0377892
0.232394
0.662014
1.13401
1.55777
1.85521
2.03772
2.13123
2.15832
-0.610729
-0.610177
-0.609844
-0.605179
-0.58066
-0.533407
-0.471157
-0.397376
-0.311146
-0.212213
-0.0958045
0.029807
0.350251
0.810882
1.31043
1.76523
2.10331
2.30652
2.40029
2.42728
-0.60078
-0.60034
-0.599899
-0.598891
-0.579722
-0.530947
-0.461744
-0.379931
-0.284882
-0.178791
-0.0635417
0.0471006
0.274099
0.714195
1.17655
1.59159
1.89998
2.07881
2.15908
2.18188
-0.595876
-0.594402
-0.59241
-0.593518
-0.582039
-0.532558
-0.456116
-0.36707
-0.268709
-0.160357
-0.051307
0.0619686
0.212533
0.575577
0.957993
1.27677
1.51523
1.65315
1.71556
1.73336
-0.605422
-0.603379
-0.602866
-0.606201
-0.595188
-0.53724
-0.450402
-0.353785
-0.253747
-0.146004
-0.0413032
0.0649884
0.185803
0.423756
0.713733
0.946003
1.12363
1.22726
1.27213
1.2833
-0.626682
-0.628255
-0.635828
-0.638906
-0.616531
-0.538146
-0.436813
-0.334545
-0.235561
-0.133793
-0.0397944
0.0477104
0.12702
0.286396
0.48974
0.658978
0.788596
0.864017
0.896898
0.904122
-0.615783
-0.624838
-0.637513
-0.638016
-0.600389
-0.508992
-0.403275
-0.304468
-0.213694
-0.124622
-0.0453146
0.024535
0.0866333
0.190977
0.335458
0.451794
0.538601
0.587729
0.607256
0.611178
-0.504621
-0.514069
-0.525748
-0.52415
-0.489749
-0.417443
-0.336571
-0.257818
-0.184473
-0.112416
-0.0467067
0.00655938
0.0548142
0.115808
0.211591
0.292001
0.351526
0.383881
0.397165
0.397527
-0.312312
-0.318112
-0.325737
-0.32796
-0.313222
-0.280962
-0.240284
-0.194628
-0.146023
-0.0941569
-0.0465252
-0.00992488
0.0225657
0.0622937
0.122198
0.176222
0.213704
0.235423
0.242745
0.242745
-0.124203
-0.127162
-0.133481
-0.142517
-0.14987
-0.151327
-0.144484
-0.129104
-0.105842
-0.0752721
-0.0457816
-0.0223807
-0.00137793
0.023198
0.061439
0.0957341
0.119775
0.132169
0.136265
0.135356
0.00113343
-0.000465512
-0.00629266
-0.0197012
-0.0394807
-0.0586144
-0.0713464
-0.0753589
-0.0698284
-0.0557735
-0.0396831
-0.0273042
-0.0186131
-0.00227379
0.0207202
0.0424531
0.0564002
0.0622702
0.0639184
0.062774
0.0603669
0.0592376
0.0540348
0.0407912
0.0196212
-0.00351591
-0.0232067
-0.0362486
-0.0412963
-0.0387417
-0.0334076
-0.0299234
-0.0281449
-0.0180457
-0.00200406
0.00994799
0.0162523
0.0183213
0.0183108
0.0172629
0.0781434
0.0772718
0.0732076
0.0626342
0.0451586
0.0247874
0.00534844
-0.0103392
-0.0204832
-0.0247953
-0.026285
-0.0283366
-0.0305084
-0.0247448
-0.0145669
-0.00805951
-0.00551039
-0.00546204
-0.00610349
-0.00702165
0.076139
0.0755345
0.0726893
0.0651542
0.052288
0.0363522
0.0199407
0.00536104
-0.00584059
-0.0130664
-0.0179177
-0.0225333
-0.0259558
-0.021407
-0.0158536
-0.0132141
-0.0131416
-0.014192
-0.0150236
-0.0158275
0.0663658
0.0659767
0.0641251
0.0591302
0.0502908
0.038794
0.0261822
0.0141005
0.00384318
-0.00366334
-0.00898071
-0.0135689
-0.0166058
-0.0127842
-0.00950688
-0.0092749
-0.0103891
-0.0118789
-0.0127162
-0.0134436
0.0545241
0.0542771
0.0531332
0.0500186
0.0442924
0.0364522
0.0274045
0.0182907
0.0101138
0.00397865
0.000533199
-0.00171596
-0.00222422
0.00107754
0.00193465
0.000842412
-0.00075204
-0.0020062
-0.00270812
-0.00340847
0.0431845
0.0430166
0.0423372
0.0405211
0.0370588
0.0320508
0.0259592
0.019543
0.0136964
0.00975028
0.00927782
0.0114233
0.0143042
0.016949
0.0157544
0.0138487
0.0124526
0.0117522
0.0112772
0.0105582
0.0334363
0.0333126
0.0329183
0.0319321
0.0299736
0.0269444
0.0230697
0.0188512
0.015069
0.0132699
0.0159679
0.0229501
0.0302515
0.0309177
0.0279369
0.0258151
0.0253014
0.0255196
0.0253009
0.0245118
0.0255446
0.0254472
0.0252149
0.024714
0.0236702
0.0219234
0.0195262
0.0167924
0.0144387
0.0140134
0.0184497
0.0284031
0.0382693
0.0378173
0.033893
0.0326584
0.0336157
0.0348848
0.0348756
0.0339744
0.0193376
0.0192544
0.0190945
0.0188258
0.0182929
0.017272
0.0157299
0.0138488
0.0121263
0.011771
0.0155384
0.0244849
0.0332684
0.0320394
0.029834
0.0312885
0.0338253
0.0360866
0.0361903
0.035242
0.0144924
0.0144193
0.0142932
0.0141151
0.0137533
0.0130722
0.0119506
0.0104183
0.00859919
0.007003
0.00720191
0.0102476
0.013963
0.0124003
0.0144251
0.0195625
0.0250407
0.0279026
0.0280084
0.0271033
0.0106278
0.0105633
0.0104556
0.0102867
0.0100285
0.00946938
0.00847965
0.00694876
0.00466469
0.0010234
-0.00434849
-0.0100951
-0.0148948
-0.0147584
-0.00670503
0.00260663
0.00914533
0.0118778
0.0120795
0.0114149
0.00747229
0.0074148
0.00731588
0.00711659
0.00683579
0.00639444
0.00553796
0.00406739
0.00148843
-0.00386544
-0.0137718
-0.0287445
-0.0413037
-0.0385076
-0.0254651
-0.013792
-0.00733911
-0.00490865
-0.00457473
-0.00496973
0.00479148
0.00473011
0.00463522
0.00446675
0.00424124
0.0038783
0.00315139
0.00184269
-0.00066072
-0.00604231
-0.0180088
-0.0378436
-0.0540457
-0.0478678
-0.0329608
-0.0223166
-0.0172884
-0.0156988
-0.015404
-0.0155792
0.00249149
0.00243135
0.00238546
0.00226766
0.00207141
0.00183971
0.00132046
0.000481166
-0.00126657
-0.00507102
-0.014346
-0.0308313
-0.0437668
-0.0361912
-0.0249514
-0.0189522
-0.0162734
-0.0157383
-0.0156013
-0.0156928
0.000643589
0.000596032
0.000547382
0.000511905
0.000456645
0.000289508
0.000169657
0.000228093
3.82524e-05
-0.000321992
-0.00126204
-0.0047359
-0.0102823
-0.01011
-0.00852767
-0.00829907
-0.00888757
-0.00836215
-0.00646429
-0.00531948
-0.0476129
0.141435
0.3439
0.513633
0.64951
0.757112
0.846804
0.921996
0.95253
0.93629
0.280715
0.405029
0.535109
0.647557
0.742433
0.821194
0.884578
0.928929
0.951942
0.964745
0.502284
0.58656
0.67501
0.753763
0.821408
0.87792
0.922657
0.955578
0.979725
0.997579
0.663205
0.723036
0.785152
0.842633
0.892441
0.934631
0.969286
0.997273
1.01998
1.03823
0.789211
0.83212
0.879465
0.922968
0.961774
0.995655
1.02469
1.04914
1.06905
1.08699
0.893502
0.926754
0.965443
1.00104
1.03368
1.06303
1.08874
1.11054
1.12765
1.14525
0.986349
1.01534
1.04952
1.08182
1.11183
1.13911
1.16302
1.18293
1.19758
1.21503
1.07511
1.1046
1.13865
1.17086
1.20053
1.22719
1.25016
1.26864
1.28132
1.29878
1.17054
1.20416
1.24062
1.27437
1.30444
1.33062
1.35255
1.36965
1.38111
1.39891
1.28549
1.32407
1.36232
1.39654
1.42581
1.45049
1.47078
1.48649
1.49783
1.51617
1.43023
1.46972
1.50528
1.53569
1.56126
1.58332
1.60233
1.61786
1.63051
1.64864
1.60498
1.63703
1.66282
1.68516
1.70521
1.72396
1.74158
1.75814
1.77388
1.79207
1.79259
1.81015
1.82568
1.84227
1.85842
1.87297
1.88599
1.89997
1.91705
1.93673
1.97418
1.98515
1.9973
2.00809
2.01734
2.0269
2.03778
2.04938
2.05932
2.0745
2.18521
2.18723
2.17207
2.15683
2.15045
2.15612
2.17472
2.20514
2.23728
2.26802
2.49111
2.35406
2.27777
2.23568
2.21824
2.22228
2.24963
2.30577
2.40923
2.62451
0.787376
0.784
0.77807
0.76826
0.755312
0.742883
0.732562
0.724602
0.718926
0.715617
0.715211
0.717917
0.723011
0.730242
0.739666
0.751346
0.764471
0.776458
0.783912
0.78863
0.705396
0.711281
0.718184
0.723418
0.726258
0.725921
0.723005
0.719067
0.715478
0.713157
0.712958
0.715119
0.718777
0.72311
0.727042
0.729031
0.72791
0.723813
0.717915
0.710869
0.697755
0.700102
0.703448
0.706349
0.708558
0.710347
0.711292
0.711016
0.709959
0.709025
0.709144
0.710522
0.712301
0.713552
0.713576
0.712388
0.710567
0.708216
0.705054
0.702088
0.69263
0.693717
0.695578
0.697953
0.699903
0.701281
0.702359
0.703192
0.703628
0.703829
0.704262
0.704993
0.705492
0.705424
0.704873
0.703979
0.702558
0.700488
0.698368
0.696951
0.687558
0.688213
0.689318
0.69103
0.692823
0.694423
0.695668
0.696665
0.697545
0.698314
0.698979
0.699432
0.699521
0.699273
0.698677
0.697619
0.696158
0.694568
0.693233
0.692447
0.682665
0.68312
0.683899
0.685185
0.686665
0.688179
0.689621
0.690872
0.691958
0.692955
0.693787
0.694255
0.694316
0.693986
0.693243
0.6922
0.691027
0.689866
0.68894
0.688416
0.67791
0.678251
0.678856
0.679913
0.681186
0.682543
0.683962
0.685371
0.686682
0.687878
0.688883
0.689464
0.689548
0.689192
0.688517
0.687677
0.68678
0.685884
0.685195
0.68481
0.673255
0.67352
0.674008
0.674905
0.676055
0.677326
0.67869
0.680137
0.681614
0.683038
0.684258
0.68499
0.685167
0.684936
0.684451
0.683819
0.683114
0.682432
0.681919
0.681625
0.668627
0.668837
0.669242
0.670029
0.671099
0.672319
0.673666
0.675148
0.676745
0.67839
0.679868
0.680823
0.681202
0.681184
0.680908
0.680475
0.679957
0.679453
0.679075
0.678844
0.663944
0.664113
0.66446
0.665174
0.666196
0.667393
0.668761
0.670313
0.672046
0.673918
0.675703
0.676972
0.677637
0.677874
0.677821
0.677589
0.677258
0.676911
0.676642
0.676458
0.659125
0.659262
0.659567
0.660236
0.661241
0.662458
0.663885
0.665549
0.667466
0.669613
0.671771
0.673439
0.674451
0.674979
0.675175
0.675153
0.675002
0.674803
0.674626
0.674478
0.654091
0.654201
0.654477
0.655128
0.656151
0.657434
0.658965
0.660798
0.662972
0.665479
0.668103
0.670245
0.671654
0.672514
0.672982
0.673183
0.673213
0.673155
0.673057
0.672937
0.648757
0.648843
0.649103
0.64976
0.650837
0.652227
0.653918
0.655986
0.658498
0.661466
0.664667
0.667379
0.669256
0.670492
0.671265
0.671717
0.671942
0.672017
0.671987
0.671891
0.643029
0.643094
0.643346
0.644029
0.645197
0.646742
0.648651
0.651029
0.653965
0.657517
0.661429
0.664826
0.667263
0.668946
0.670071
0.670804
0.671239
0.671454
0.67149
0.671413
0.636793
0.636837
0.637088
0.637819
0.639116
0.640867
0.643063
0.645832
0.6493
0.653557
0.658338
0.662583
0.665707
0.667929
0.669464
0.670509
0.671193
0.671558
0.671658
0.671599
0.62991
0.629933
0.630187
0.630991
0.632459
0.634478
0.637048
0.640329
0.644483
0.649635
0.655481
0.660741
0.664671
0.667522
0.669536
0.670948
0.671912
0.672439
0.672606
0.672562
0.622207
0.622217
0.622476
0.623366
0.62506
0.627414
0.630459
0.634388
0.639405
0.64567
0.652824
0.659309
0.664198
0.667793
0.670387
0.672246
0.673524
0.674229
0.674466
0.674436
0.613392
0.61337
0.613681
0.614709
0.61667
0.619456
0.623111
0.627851
0.633935
0.641573
0.650325
0.658286
0.664339
0.668829
0.672113
0.674516
0.676167
0.677079
0.677392
0.677373
0.603196
0.603149
0.603503
0.604709
0.607018
0.610359
0.614784
0.620557
0.627993
0.637326
0.648024
0.657779
0.665207
0.670758
0.674869
0.677908
0.680003
0.681152
0.681546
0.681537
0.591152
0.591078
0.591507
0.592953
0.59572
0.599789
0.605223
0.612342
0.621519
0.633001
0.646065
0.657905
0.666937
0.673731
0.678813
0.682589
0.685206
0.686624
0.687102
0.687098
0.576627
0.576525
0.577071
0.578841
0.582215
0.587251
0.594014
0.602876
0.614242
0.628343
0.644261
0.658617
0.66955
0.677804
0.684042
0.688703
0.691931
0.693651
0.694213
0.694207
0.558662
0.558535
0.559273
0.56153
0.56577
0.572167
0.580772
0.592
0.606251
0.623661
0.642981
0.660188
0.673248
0.683147
0.690698
0.696369
0.700283
0.702325
0.702961
0.702943
0.535796
0.535657
0.53673
0.539761
0.545332
0.553749
0.564985
0.579435
0.597402
0.618852
0.642161
0.662643
0.678095
0.68983
0.698824
0.705624
0.710278
0.712636
0.713325
0.713284
0.505686
0.505576
0.507259
0.511649
0.519479
0.531077
0.546203
0.56511
0.587866
0.614204
0.642092
0.666166
0.684201
0.697896
0.708451
0.71646
0.721844
0.724467
0.725173
0.725098
0.464196
0.464259
0.467301
0.474549
0.486601
0.503436
0.524354
0.549284
0.578015
0.610077
0.643039
0.670945
0.691671
0.707401
0.719571
0.728808
0.734818
0.73758
0.738246
0.738129
0.403647
0.404848
0.412313
0.425991
0.445781
0.47094
0.499999
0.532584
0.568383
0.606836
0.64521
0.677065
0.700508
0.718249
0.73201
0.742363
0.748845
0.751564
0.75208
0.751925
0.331109
0.33322
0.34762
0.371272
0.401831
0.436804
0.474764
0.515569
0.559025
0.60463
0.649402
0.686284
0.71342
0.734014
0.749875
0.761634
0.768756
0.771577
0.772153
0.772113
0.256379
0.262833
0.284242
0.31801
0.358891
0.403444
0.450304
0.4994
0.550615
0.603509
0.654887
0.69702
0.728004
0.751611
0.769903
0.783259
0.790866
0.793416
0.793821
0.793874
0.195506
0.204035
0.230035
0.270871
0.319743
0.372433
0.427331
0.484192
0.542823
0.602732
0.660431
0.707492
0.742029
0.768325
0.788628
0.803204
0.811021
0.813834
0.81465
0.814776
0.145802
0.154936
0.184477
0.230507
0.285463
0.344699
0.40636
0.470069
0.535459
0.601921
0.665567
0.717226
0.754986
0.783651
0.805713
0.821475
0.830224
0.833645
0.834639
0.834789
0.104057
0.113455
0.145426
0.195432
0.255362
0.320031
0.387407
0.457073
0.52851
0.60097
0.670138
0.72604
0.766742
0.797574
0.821258
0.838029
0.847539
0.851405
0.852571
0.852726
0.0678523
0.0773661
0.111166
0.164362
0.228387
0.297674
0.370032
0.44496
0.521835
0.599775
0.674032
0.733845
0.777232
0.809939
0.834848
0.852398
0.862572
0.866843
0.868093
0.868253
0.0355452
0.0451131
0.0803157
0.136209
0.203664
0.276923
0.353681
0.433336
0.515169
0.598163
0.677171
0.740633
0.786458
0.820723
0.846487
0.864549
0.875214
0.879825
0.881175
0.881349
0.00589292
0.0155286
0.0518815
0.110103
0.180513
0.257244
0.337914
0.421848
0.508244
0.595982
0.67951
0.746458
0.794537
0.830159
0.856614
0.875063
0.885987
0.890863
0.892309
0.892483
-0.0219227
-0.012219
0.025181
0.0853886
0.15843
0.238251
0.322417
0.410239
0.500872
0.593106
0.681016
0.751375
0.801623
0.838477
0.865537
0.884283
0.895389
0.900432
0.901882
0.90205
-0.0484324
-0.0386341
-0.00025617
0.061625
0.137072
0.219657
0.306972
0.398349
0.492922
0.589449
0.681669
0.755439
0.80784
0.845893
0.873537
0.892565
0.903792
0.908867
0.910326
0.910423
-0.0740708
-0.0640879
-0.024864
0.0386295
0.116217
0.201276
0.291444
0.386071
0.484319
0.584956
0.681438
0.758682
0.813311
0.852624
0.880892
0.900198
0.911526
0.916581
0.917992
0.918072
-0.0990393
-0.0888228
-0.0488567
0.0162357
0.0957261
0.183001
0.27575
0.37335
0.475015
0.579583
0.680292
0.761118
0.818124
0.858827
0.887811
0.907419
0.918815
0.923805
0.925126
0.925184
-0.123407
-0.112977
-0.0721959
-0.00570805
0.0755086
0.164792
0.259862
0.360166
0.464993
0.57329
0.678183
0.762738
0.822334
0.86461
0.894411
0.914326
0.925717
0.93056
0.931755
0.931753
-0.147292
-0.136568
-0.0950134
-0.0272209
0.0555498
0.146629
0.243782
0.34653
0.454262
0.566069
0.675055
0.763487
0.825954
0.870063
0.900801
0.920986
0.932265
0.936873
0.937885
0.937818
-0.170639
-0.159628
-0.117326
-0.0483182
0.0358624
0.128543
0.227554
0.332488
0.442854
0.557912
0.670856
0.763282
0.828951
0.875248
0.907109
0.927519
0.938498
0.942717
0.943517
0.943396
-0.193485
-0.182155
-0.139073
-0.0689714
0.0164784
0.110577
0.211228
0.318106
0.430823
0.548839
0.665543
0.762032
0.831236
0.880184
0.913499
0.93411
0.944522
0.948124
0.948651
0.94848
-0.215639
-0.204071
-0.160224
-0.0891266
-0.00254648
0.0928045
0.194874
0.303457
0.418244
0.538907
0.659093
0.759638
0.832679
0.884816
0.920142
0.941108
0.950596
0.953151
0.953264
0.953052
-0.237231
-0.22532
-0.180754
-0.108754
-0.0211748
0.0752686
0.178586
0.288624
0.405205
0.528196
0.651515
0.755997
0.833099
0.888966
0.927103
0.949029
0.957391
0.958163
0.957395
0.957118
-0.258101
-0.245871
-0.200635
-0.127803
-0.0393245
0.0580567
0.162448
0.273728
0.391814
0.516775
0.642853
0.751019
0.832289
0.892318
0.934164
0.958332
0.966235
0.964579
0.961659
0.96055
-0.278298
-0.265772
-0.21981
-0.14622
-0.056958
0.0412381
0.146544
0.258847
0.378181
0.50478
0.633184
0.744621
0.830045
0.894436
0.94064
0.968756
0.978501
0.975772
0.968913
0.959378
-0.297749
-0.284988
-0.238366
-0.164167
-0.074296
0.0245236
0.130526
0.243565
0.36384
0.491686
0.621958
0.736193
0.825818
0.894815
0.945562
0.979068