/*--------------------------------*- C++ -*----------------------------------*\
| =========                 |                                                 |
| \\      /  F ield         | OpenFOAM: The Open Source CFD Toolbox           |
|  \\    /   O peration     | Version:  2306                                  |
|   \\  /    A nd           | Website:  www.openfoam.com                      |
|    \\/     M anipulation  |                                                 |
\*---------------------------------------------------------------------------*/
FoamFile
{
    version     2.0;
    format      ascii;
    arch        "LSB;label=32;scalar=64";
    class       surfaceScalarField;
    location    "43";
    object      phi;
}
// * * * * * * * * * * * * * * * * * * * * * * * * * * * * * * * * * * * * * //

dimensions      [0 3 -1 0 0 0 0];

oriented        oriented;

internalField   nonuniform List<scalar> 
17370
(
-0.091099
0.0935443
0.286566
-0.0749528
0.056952
0.364776
-0.0409344
0.0299497
0.427153
-0.0211933
0.0155914
0.504854
-0.0113392
0.00863791
0.602103
-0.00650472
0.00505378
0.720508
-0.00384001
0.00297476
0.863772
-0.00221332
0.00164215
1.03602
-0.0011157
0.000698012
1.24292
-0.000289039
-0.000102156
1.49158
0.000486818
-0.000896785
1.4916
0.0012983
-0.00180049
1.24319
0.00234933
-0.00309033
1.03638
0.00394335
-0.00515002
0.864113
0.00659674
-0.00872389
0.721185
0.0114169
-0.0156576
0.603455
0.0212488
-0.029994
0.508184
0.040969
-0.0569776
0.432177
0.0749725
-0.0935557
0.365359
0.0911114
0.197899
-0.127345
0.0881403
0.0392043
-0.364735
0.353785
-0.072634
0.0835837
-0.446565
0.454366
-0.0817189
0.0739177
-0.520969
0.529523
-0.0658082
0.0572536
-0.612847
0.621015
-0.0495008
0.0413324
-0.726998
0.733787
-0.0344033
0.027615
-0.867514
0.872442
-0.0222766
0.0173485
-1.03855
1.0419
-0.0136374
0.0102916
-1.24471
1.24712
-0.00774053
0.00533308
-1.49284
1.49485
-0.00337014
0.00135885
-1.49269
1.49451
0.000459383
-0.00227728
-1.2441
1.24602
0.00425177
-0.00616524
-1.0376
1.04009
0.00850689
-0.0109933
-0.86616
0.869818
0.0142707
-0.0179286
-0.72448
0.729781
0.0228094
-0.0281105
-0.608889
0.615778
0.0348582
-0.0417471
-0.514991
0.522701
0.049869
-0.0575785
-0.439772
0.447835
0.0660823
-0.074145
-0.375159
0.377
0.081893
-0.083734
-0.256921
0.223427
0.0727385
-0.0392448
-0.0686456
0.0589134
0.00973218
-0.0520896
0.0587912
-0.374536
0.367834
-0.0579081
0.0540836
-0.453825
0.457649
-0.0487262
0.0443871
-0.527737
0.532076
-0.0401631
0.0363807
-0.621097
0.624879
-0.032159
0.0280928
-0.734872
0.738938
-0.023629
0.0196445
-0.874042
0.878027
-0.015515
0.0120039
-1.04339
1.0469
-0.00844201
0.00538259
-1.24866
1.25172
-0.00215256
-0.000844928
-1.49694
1.49994
0.00382263
-0.00699538
-1.49743
1.5006
0.00997237
-0.0134233
-1.2501
1.25355
0.0168245
-0.0208333
-1.04573
1.04974
0.0247175
-0.0290858
-0.877325
0.881693
0.0330744
-0.037215
-0.739319
0.74346
0.0409237
-0.0450698
-0.626352
0.630498
0.0493434
-0.0546379
-0.534944
0.540239
0.0583964
-0.0591965
-0.457927
0.458727
0.0523945
-0.0320283
-0.336409
0.316043
0.00978345
-0.0685119
0.0587285
-0.0531525
0.0491002
0.00405231
-0.0331864
0.0436876
-0.358356
0.347855
-0.0474112
0.0468283
-0.459501
0.460084
-0.0438542
0.0405858
-0.536013
0.539281
-0.036876
0.0335421
-0.628432
0.631766
-0.0299809
0.0268369
-0.742246
0.74539
-0.0234965
0.0203365
-0.881563
0.884723
-0.0167452
0.0133708
-1.05038
1.05376
-0.00964138
0.00620865
-1.25501
1.25844
-0.00238908
-0.00125583
-1.50332
1.50697
0.0048714
-0.00860691
-1.50414
1.50787
0.0119255
-0.0155001
-1.25717
1.26075
0.0187182
-0.0221342
-1.05351
1.05693
0.0251449
-0.0283414
-0.885302
0.888498
0.0313694
-0.0348125
-0.746953
0.750396
0.0380419
-0.0416403
-0.634521
0.638119
0.0448124
-0.0476794
-0.544474
0.547341
0.0481524
-0.0442758
-0.456904
0.453028
0.0335928
-0.0162474
-0.296686
0.27934
0.00411361
-0.0529126
0.048799
-0.0459758
0.0434473
0.00252846
-0.0229496
0.0333281
-0.337206
0.326827
-0.0391201
0.0401122
-0.459789
0.458797
-0.0389009
0.0366048
-0.541948
0.544244
-0.033967
0.0314084
-0.634754
0.637312
-0.0284092
0.0255609
-0.748451
0.751299
-0.02234
0.0193556
-0.88772
0.890704
-0.0160483
0.0129473
-1.05692
1.06002
-0.00941142
0.0060142
-1.26186
1.26525
-0.00209509
-0.00171947
-1.51073
1.51454
0.00549646
-0.0093021
-1.51169
1.51549
0.0125468
-0.0158784
-1.26423
1.26756
0.0187756
-0.0218547
-1.0601
1.06318
0.0246399
-0.0276617
-0.891644
0.894666
0.0303471
-0.0331833
-0.753587
0.756423
0.0356005
-0.0380915
-0.641131
0.643622
0.0402623
-0.0413095
-0.549169
0.550216
0.0401489
-0.0341125
-0.447846
0.441809
0.0234687
-0.0102707
-0.264177
0.250979
0.00260361
-0.0456072
0.0430036
-0.0413461
0.039556
0.00179015
-0.0168874
0.026179
-0.316947
0.307656
-0.0328046
0.0349515
-0.457204
0.455057
-0.0345377
0.0328618
-0.546239
0.547915
-0.0306661
0.0285674
-0.639602
0.641701
-0.0261542
0.0237879
-0.753908
0.756274
-0.0209764
0.0182341
-0.893553
0.896295
-0.0150575
0.0120373
-1.06303
1.06605
-0.00859267
0.00529744
-1.26856
1.27185
-0.00147684
-0.00225897
-1.51831
1.52205
0.00594657
-0.00962512
-1.51925
1.52293
0.0127281
-0.0159154
-1.27083
1.27402
0.0186772
-0.0215605
-1.0662
1.06909
0.0240418
-0.0265891
-0.897469
0.900017
0.0287399
-0.0309418
-0.75888
0.761082
0.0328619
-0.0348719
-0.645828
0.647838
0.0363684
-0.0365615
-0.550788
0.550981
0.034158
-0.027178
-0.435215
0.428235
0.0175321
-0.0074065
-0.239465
0.22934
0.00188159
-0.0408202
0.0389386
-0.0380136
0.0366655
0.00134807
-0.0129176
0.0209188
-0.299014
0.291013
-0.02771
0.0306573
-0.45248
0.449532
-0.0308851
0.0297804
-0.549335
0.550439
-0.0277999
0.0258947
-0.643731
0.645637
-0.0237107
0.0215964
-0.758494
0.760608
-0.0191164
0.016667
-0.898834
0.901283
-0.013762
0.0109209
-1.06894
1.07178
-0.00760892
0.00441253
-1.27507
1.27826
-0.000704289
-0.00290232
-1.5257
1.5293
0.00644919
-0.00997992
-1.52653
1.53007
0.0129363
-0.0159268
-1.27714
1.28014
0.0184427
-0.0209769
-1.07182
1.07435
0.0230964
-0.025242
-0.902331
0.904477
0.0270816
-0.0289956
-0.763111
0.765025
0.0306759
-0.0324357
-0.649702
0.651462
0.0332817
-0.032747
-0.550819
0.550284
0.0294355
-0.0221623
-0.421053
0.41378
0.0137084
-0.00571562
-0.220383
0.212391
0.00145915
-0.037296
0.0358369
-0.0354879
0.0344471
0.0010408
-0.0101111
0.0168881
-0.283651
0.276874
-0.0234274
0.0268393
-0.446336
0.442924
-0.0276527
0.0269815
-0.55132
0.551992
-0.0252421
0.0234803
-0.647508
0.64927
-0.0214421
0.0194596
-0.762655
0.764637
-0.0171278
0.0148389
-0.903581
0.90587
-0.0121461
0.00950363
-1.07445
1.07709
-0.00639088
0.00334794
-1.28134
1.28439
0.000213692
-0.00367763
-1.53282
1.53628
0.00707048
-0.0104107
-1.53351
1.53685
0.0131568
-0.0158737
-1.28302
1.28574
0.0181176
-0.0203538
-1.07675
1.07898
0.0222306
-0.0241382
-0.906499
0.908407
0.0257721
-0.0274719
-0.766815
0.768515
0.0289559
-0.0303926
-0.653078
0.654515
0.0307388
-0.0295008
-0.549411
0.548173
0.0255897
-0.0184199
-0.406537
0.399368
0.0110772
-0.00458656
-0.205221
0.19873
0.00117578
-0.0345377
0.0333619
-0.033533
0.0327199
0.000813158
-0.00802989
0.0137359
-0.270664
0.264958
-0.0198001
0.0234213
-0.439403
0.435782
-0.0247252
0.0243104
-0.552572
0.552987
-0.0228502
0.0212059
-0.651022
0.652666
-0.0192719
0.0173857
-0.766565
0.768452
-0.0151609
0.0129731
-0.908036
0.910224
-0.0103973
0.00787981
-1.07959
1.08211
-0.00492999
0.00204783
-1.2873
1.29018
0.00132733
-0.00461468
-1.53964
1.54292
0.00781328
-0.010922
-1.54008
1.54318
0.0134426
-0.0159099
-1.28835
1.29082
0.0179406
-0.0199565
-1.08113
1.08315
0.0216353
-0.0233307
-0.910221
0.911916
0.0247801
-0.0262924
-0.770106
0.771618
0.0275912
-0.0286643
-0.655747
0.656821
0.0286523
-0.0267649
-0.546618
0.54473
0.0224839
-0.0156161
-0.392346
0.385478
0.00920981
-0.0037974
-0.192831
0.187419
0.000977444
-0.0322998
0.0313224
-0.0320053
0.0313684
0.000636874
-0.0064236
0.0112132
-0.259741
0.254952
-0.0166931
0.0203244
-0.432162
0.42853
-0.0219648
0.0217873
-0.553325
0.553503
-0.0205741
0.0190002
-0.654321
0.655895
-0.0171339
0.0153079
-0.770296
0.772122
-0.0131557
0.0110422
-0.912293
0.914406
-0.00855705
0.00613236
-1.0845
1.08693
-0.00329844
0.000544047
-1.29294
1.2957
0.00265963
-0.00575735
-1.54608
1.54918
0.00874597
-0.0116239
-1.54617
1.54905
0.0139387
-0.0161863
-1.2932
1.29545
0.0180187
-0.0198224
-1.08509
1.08689
0.0213138
-0.0228147
-0.913533
0.915034
0.0240987
-0.0254385
-0.773033
0.774373
0.0265962
-0.0272744
-0.657675
0.658353
0.026907
-0.024491
-0.542598
0.540182
0.020003
-0.0135129
-0.37881
0.37232
0.00786181
-0.00323512
-0.182441
0.177814
0.000836706
-0.0304284
0.0295917
-0.0308116
0.0303174
0.000494213
-0.00512928
0.00912674
-0.250588
0.24659
-0.0139751
0.0174659
-0.424985
0.421494
-0.019302
0.0193271
-0.55363
0.553605
-0.0183224
0.0167943
-0.657511
0.659039
-0.0149633
0.0131667
-0.773915
0.775712
-0.0110529
0.008985
-0.916403
0.918471
-0.00656257
0.00420779
-1.08923
1.09158
-0.00146544
-0.00118171
-1.29833
1.30098
0.00423361
-0.00715237
-1.55215
1.55507
0.0099389
-0.0125956
-1.55181
1.55446
0.0147098
-0.0167401
-1.29762
1.29965
0.0183776
-0.019975
-1.08862
1.09021
0.0212865
-0.0226046
-0.916466
0.917784
0.023735
-0.0249122
-0.775636
0.776813
0.0258905
-0.026214
-0.658828
0.659151
0.0254811
-0.0226346
-0.537572
0.534726
0.0180498
-0.0119426
-0.366044
0.359936
0.00688653
-0.00283526
-0.173511
0.16946
0.000738193
-0.0288173
0.0280791
-0.0298911
0.0295174
0.000373695
-0.00404329
0.00734266
-0.242969
0.23967
-0.0115446
0.0147838
-0.418151
0.414912
-0.0166924
0.0168904
-0.553553
0.553355
-0.0159894
0.0145553
-0.660594
0.662028
-0.0127418
0.0109485
-0.777482
0.779275
-0.00883851
0.0067814
-0.920428
0.922485
-0.0043842
0.00206937
-1.09382
1.09614
0.000601133
-0.00316451
-1.30351
1.30608
0.00609391
-0.00886069
-1.55786
1.56063
0.0114667
-0.0139121
-1.557
1.55945
0.0158242
-0.0176312
-1.3016
1.30341
0.0190713
-0.0204636
-1.09174
1.09313
0.0215995
-0.0227402
-0.919041
0.920182
0.0237197
-0.0247243
-0.777921
0.778926
0.0254501
-0.025494
-0.65933
0.659374
0.024377
-0.0211683
-0.531716
0.528507
0.0165482
-0.0107867
-0.354032
0.34827
0.00618897
-0.00255577
-0.165651
0.162018
0.00067124
-0.027388
0.0267167
-0.0292041
0.0289384
0.000265695
-0.00308591
0.00575078
-0.236712
0.234048
-0.00930147
0.012202
-0.41187
0.40897
-0.014066
0.0143627
-0.553178
0.552882
-0.013526
0.0121566
-0.66351
0.66488
-0.0103401
0.00852511
-0.781044
0.782859
-0.00639106
0.0043207
-0.924427
0.926497
-0.0019243
-0.000368293
-1.09833
1.10063
0.00300608
-0.00550566
-1.30853
1.31103
0.00832882
-0.0109572
-1.56328
1.56591
0.0133901
-0.0156255
-1.56178
1.56401
0.0173361
-0.0189196
-1.30514
1.30672
0.0201576
-0.0213346
-1.09446
1.09564
0.0222831
-0.0232334
-0.921262
0.922213
0.0240528
-0.0248729
-0.779857
0.780677
0.0253424
-0.0251229
-0.659259
0.659039
0.0236139
-0.0200779
-0.525164
0.521628
0.0154434
-0.00996598
-0.342692
0.337214
0.00570891
-0.0023704
-0.158567
0.155228
0.000629309
-0.0260813
0.025452
-0.0287289
0.028566
0.000162911
-0.00219218
0.00425599
-0.231703
0.229639
-0.00714567
0.0096345
-0.406307
0.403819
-0.0113461
0.0116648
-0.552662
0.552344
-0.0108625
0.00952321
-0.666335
0.667675
-0.00768237
0.005823
-0.784653
0.786512
-0.00363748
0.0015257
-0.928448
0.93056
0.000902169
-0.00321554
-1.10281
1.10512
0.00583917
-0.00829702
-1.31342
1.31588
0.0110283
-0.0135212
-1.56841
1.57091
0.015776
-0.0177914
-1.56612
1.56814
0.0192911
-0.0206369
-1.30822
1.30957
0.0216571
-0.0225981
-1.09675
1.09769
0.023341
-0.024085
-0.923105
0.923849
0.0247338
-0.0253913
-0.78143
0.782088
0.0255655
-0.0250372
-0.6586
0.658072
0.023152
-0.0193234
-0.517995
0.514166
0.0146756
-0.00941412
-0.331898
0.326636
0.00539956
-0.00225896
-0.152027
0.148887
0.000607236
-0.0248507
0.0242435
-0.0284586
0.0283986
6.00276e-05
-0.00131791
0.00279162
-0.227884
0.226411
-0.00500159
0.00701049
-0.401604
0.399595
-0.00846492
0.00872745
-0.552159
0.551897
-0.0079225
0.00658905
-0.669132
0.670465
-0.0046979
0.0027708
-0.78835
0.790277
-0.000499848
-0.00168864
-0.932551
0.93474
0.00419002
-0.00655022
-1.10732
1.10968
0.00919718
-0.0116384
-1.31824
1.32068
0.0142984
-0.0166651
-1.57327
1.57564
0.0187422
-0.0205335
-1.57002
1.57181
0.0218127
-0.0229099
-1.31083
1.31192
0.023703
-0.0243966
-1.09857
1.09926
0.0249052
-0.0254042
-0.924539
0.925038
0.0258579
-0.02632
-0.782618
0.78308
0.0261933
-0.0253019
-0.657266
0.656375
0.0230246
-0.0189001
-0.510261
0.506136
0.0142148
-0.00909442
-0.321513
0.316392
0.00523485
-0.00221013
-0.145848
0.142824
0.000602148
-0.0236584
0.0230562
-0.0283975
0.0284453
-4.77747e-05
-0.000427015
0.0012985
-0.225246
0.224374
-0.00279189
0.00424875
-0.397896
0.396439
-0.00533858
0.00545736
-0.551837
0.551718
-0.00458988
0.00320719
-0.671965
0.673347
-0.00123496
-0.000794394
-0.792185
0.794215
0.00318596
-0.00547608
-0.936803
0.939093
0.0080763
-0.010506
-1.11192
1.11435
0.0132004
-0.0156487
-1.32301
1.32546
0.0182603
-0.0205133
-1.57788
1.58013
0.0224138
-0.0239669
-1.57345
1.575
0.0249996
-0.0258067
-1.31291
1.31372
0.0263335
-0.0267372
-1.09988
1.10028
0.0269899
-0.0272265
-0.925502
0.925739
0.0274738
-0.0276611
-0.783281
0.783468
0.027283
-0.0259393
-0.655169
0.653825
0.0232485
-0.018815
-0.501971
0.497538
0.0140526
-0.00899154
-0.311387
0.306326
0.00520391
-0.00221992
-0.139871
0.136887
0.000613322
-0.0224714
0.0218581
-0.0285567
0.0287252
-0.000168443
0.000526083
-0.000295003
-0.223816
0.223585
-0.000433586
0.00126496
-0.39532
0.394488
-0.00188547
0.00178045
-0.551882
0.551987
-0.000790566
-0.000712503
-0.674953
0.676456
0.00281684
-0.00498836
-0.796228
0.798399
0.00753969
-0.0099697
-0.941253
0.943683
0.0127111
-0.015251
-1.11667
1.11921
0.0180318
-0.0205121
-1.3278
1.33028
0.0230884
-0.0252239
-1.58225
1.58438
0.0269274
-0.0282191
-1.57638
1.57768
0.0289891
-0.0294795
-1.31441
1.3149
0.0297082
-0.0297935
-1.10061
1.10069
0.0297616
-0.0297066
-0.925923
0.925868
0.0297071
-0.0295573
-0.783297
0.783147
0.028871
-0.0270057
-0.652207
0.650342
0.0238697
-0.0190885
-0.493088
0.488307
0.0141897
-0.00909893
-0.301354
0.296263
0.00530073
-0.00228501
-0.133949
0.130933
0.000639555
-0.0212582
0.0206186
-0.0289738
0.0292895
-0.000315759
0.00157934
-0.00200044
-0.223698
0.224119
0.00213865
-0.0020498
-0.394008
0.393919
0.00204034
-0.00248094
-0.552499
0.55294
0.00365738
-0.00530372
-0.678223
0.67987
0.00757829
-0.00993305
-0.800548
0.802902
0.0127042
-0.0153346
-0.945988
0.948619
0.0182806
-0.0209778
-1.12164
1.12434
0.0238835
-0.0264199
-1.33265
1.33518
0.0289745
-0.0309972
-1.58637
1.58839
0.0324901
-0.0334713
-1.57876
1.57975
0.0339348
-0.0340588
-1.31524
1.31536
0.0339548
-0.0336885
-1.10066
1.10039
0.0333459
-0.0329602
-0.925712
0.925327
0.0326804
-0.0321017
-0.782557
0.781978
0.0309987
-0.0285411
-0.648271
0.645814
0.0249122
-0.0197327
-0.483531
0.478351
0.0146293
-0.00941422
-0.291236
0.286021
0.00552241
-0.0024039
-0.127937
0.124819
0.000680443
-0.0199887
0.0193083
-0.0296756
0.0301668
-0.000491199
0.00287794
-0.00407973
-0.224949
0.226151
0.00513045
-0.00586198
-0.394193
0.394925
0.00657892
-0.00746166
-0.553916
0.554799
0.00891013
-0.0107758
-0.68185
0.683715
0.01331
-0.0159195
-0.80524
0.80785
0.0189769
-0.0218567
-0.951123
0.954002
0.0250523
-0.0279443
-1.12693
1.12982
0.0310104
-0.0336243
-1.3376
1.34022
0.0361628
-0.0380491
-1.59024
1.59213
0.0393002
-0.0399318
-1.58049
1.58112
0.0400345
-0.0397516
-1.3153
1.31502
0.0392594
-0.0385786
-1.09993
1.09925
0.037869
-0.0370965
-0.924771
0.923998
0.0364782
-0.035387
-0.780878
0.779787
0.0337805
-0.0306671
-0.64322
0.640106
0.0264788
-0.0208169
-0.473193
0.467531
0.0154126
-0.0099582
-0.280842
0.275387
0.00587857
-0.0025794
-0.121694
0.118395
0.000736269
-0.0186344
0.0178981
-0.0307329
0.0314439
-0.000711025
0.00439071
-0.00649957
-0.227788
0.229897
0.00862688
-0.0102652
-0.396079
0.397717
0.0118185
-0.013272
-0.556386
0.55784
0.0151375
-0.0173264
-0.686004
0.688193
0.0202223
-0.0231648
-0.810438
0.81338
0.0265825
-0.0297767
-0.956751
0.959945
0.0332888
-0.0364296
-1.1326
1.13574
0.0397018
-0.042418
-1.34271
1.34543
0.0449424
-0.0466705
-1.59382
1.59555
0.0476286
-0.0478585
-1.58148
1.58171
0.0475224
-0.046769
-1.31448
1.31372
0.0458282
-0.0446654
-1.0983
1.09713
0.0435334
-0.0423168
-0.922972
0.921755
0.0412329
-0.0396154
-0.778154
0.776536
0.037381
-0.0335182
-0.636903
0.63304
0.0286718
-0.0224066
-0.46189
0.455625
0.0165786
-0.0107488
-0.26993
0.2641
0.00637455
-0.00281078
-0.11506
0.111496
0.000805931
-0.0171651
0.0163591
-0.032232
0.0332326
-0.00100068
0.00629542
-0.00948639
-0.23245
0.235641
0.012857
-0.015547
-0.39991
0.4026
0.0180512
-0.0201797
-0.560173
0.562302
0.0225893
-0.0252129
-0.690895
0.693518
0.0285943
-0.031981
-0.816303
0.81969
0.0358779
-0.0394904
-0.963029
0.966641
0.0434204
-0.0468785
-1.13879
1.14225
0.0503958
-0.0532113
-1.348
1.35082
0.0556765
-0.0571713
-1.59703
1.59852
0.0577455
-0.057467
-1.58161
1.58133
0.0566353
-0.0553191
-1.31262
1.3113
0.053881
-0.052179
-1.0956
1.0939
0.0505725
-0.0488363
-0.920184
0.918448
0.047211
-0.0449718
-0.77434
0.772101
0.0420061
-0.03726
-0.629109
0.624363
0.0316253
-0.0246004
-0.449379
0.442354
0.0181906
-0.0118158
-0.258225
0.25185
0.00701941
-0.00309597
-0.107867
0.103944
0.000886406
-0.015556
0.0146696
-0.0343031
0.0356967
-0.00139365
0.00875627
-0.0132612
-0.239252
0.243757
0.0180937
-0.0219949
-0.406027
0.409928
0.0256101
-0.0285654
-0.565565
0.56852
0.0317014
-0.0349238
-0.696759
0.699982
0.0389618
-0.0429302
-0.823057
0.827026
0.0474337
-0.0515537
-0.970161
0.974281
0.0559662
-0.059767
-1.1456
1.1494
0.0635243
-0.0664085
-1.35346
1.35635
0.0687571
-0.0699439
-1.59973
1.60092
0.0700387
-0.0691305
-1.58065
1.57974
0.0676852
-0.0656846
-1.30952
1.30752
0.0636634
-0.0613665
-1.09171
1.08941
0.0592366
-0.0569459
-0.916249
0.913958
0.0546892
-0.0517355
-0.769237
0.766283
0.0479158
-0.0421301
-0.61957
0.613784
0.0355391
-0.0275419
-0.435345
0.427347
0.020342
-0.0132058
-0.245378
0.238242
0.00783003
-0.00343628
-0.0999213
0.0955275
0.000975921
-0.0137871
0.0128112
-0.0371359
0.0390914
-0.00195554
0.0120971
-0.0182603
-0.248639
0.254802
0.0248343
-0.0301389
-0.414877
0.420182
0.0350666
-0.0390571
-0.572949
0.57694
0.0431603
-0.0472143
-0.703965
0.708019
0.0521407
-0.0568511
-0.830981
0.835692
0.0620836
-0.0667793
-0.97832
0.983016
0.0717
-0.0758251
-1.15307
1.1572
0.0797534
-0.0826014
-1.35899
1.36184
0.0846687
-0.0853616
-1.60171
1.6024
0.0847998
-0.0831012
-1.57835
1.57665
0.080909
-0.0780974
-1.30497
1.30216
0.0753853
-0.0724035
-1.08646
1.08348
0.069721
-0.0668476
-0.911068
0.908195
0.0639136
-0.0601376
-0.762676
0.7589
0.0553447
-0.0483391
-0.607963
0.600958
0.0405808
-0.0313412
-0.419359
0.410119
0.0230889
-0.0149297
-0.23095
0.222791
0.00879938
-0.00382409
-0.0910029
0.0860276
0.0010717
-0.0118416
0.0107699
-0.0410405
0.0438562
-0.00281568
0.0169342
-0.0252728
-0.261281
0.269619
0.03398
-0.0409567
-0.427081
0.434057
0.047438
-0.0526765
-0.582826
0.588064
0.0580474
-0.0632216
-0.71299
0.718164
0.0692458
-0.0748183
-0.840377
0.84595
0.0808461
-0.0861172
-0.987613
0.992884
0.0914857
-0.0958252
-1.16112
1.16546
0.0997497
-0.10236
-1.36433
1.36694
0.103898
-0.103859
-1.60255
1.60251
0.102417
-0.0997254
-1.57436
1.57167
0.0966439
-0.092901
-1.29874
1.295
0.0893914
-0.085619
-1.0797
1.07593
0.0822999
-0.0787616
-0.904502
0.900963
0.0751545
-0.070407
-0.754331
0.749583
0.0644599
-0.0559948
-0.593879
0.585414
0.046808
-0.0359953
-0.400886
0.390073
0.0263775
-0.0169109
-0.214442
0.204975
0.00986316
-0.00422574
-0.0809145
0.0752771
0.00116318
-0.00971246
0.00854928
-0.0465713
0.0508403
-0.004269
0.0244592
-0.035759
-0.278283
0.289583
0.0472308
-0.0564302
-0.44364
0.452839
0.0648114
-0.0714935
-0.595758
0.60244
0.0784036
-0.0850201
-0.724249
0.730866
0.0922247
-0.0986222
-0.851462
0.85786
0.105328
-0.111
-0.997975
1.00365
0.116544
-0.120792
-1.16944
1.17369
0.124328
-0.126325
-1.36899
1.37099
0.126916
-0.125777
-1.60173
1.60059
0.123129
-0.119172
-1.56821
1.56426
0.115019
-0.110202
-1.29055
1.28573
0.105811
-0.101195
-1.07127
1.06666
0.0972038
-0.0928683
-0.89632
0.891985
0.088514
-0.0826137
-0.743859
0.737959
0.0752767
-0.0650336
-0.576765
0.566522
0.0540914
-0.0413224
-0.379249
0.36648
0.0300093
-0.0189801
-0.195362
0.184333
0.0109022
-0.00458387
-0.069553
0.0632347
0.00123294
-0.00741568
0.00618274
-0.0547827
0.0621122
-0.00732956
0.0378245
-0.0535033
-0.301759
0.317438
0.0688607
-0.0810458
-0.466104
0.478289
0.0914375
-0.0995158
-0.612169
0.620248
0.107999
-0.115868
-0.738056
0.745925
0.123985
-0.13081
-0.864016
0.87084
0.137638
-0.143131
-1.00889
1.01438
0.148189
-0.151716
-1.17726
1.18079
0.154202
-0.154985
-1.37211
1.37289
0.15404
-0.151302
-1.59843
1.59569
0.147052
-0.141524
-1.55935
1.55382
0.136068
-0.130002
-1.28011
1.27404
0.124609
-0.11906
-1.06102
1.05547
0.114353
-0.109247
-0.886313
0.881208
0.104017
-0.096638
-0.730803
0.723425
0.0875762
-0.0750984
-0.555866
0.543389
0.061963
-0.0468829
-0.353636
0.338556
0.0336558
-0.0209506
-0.173368
0.160663
0.0118118
-0.00485239
-0.0570127
0.0500533
0.00126024
-0.00500725
0.00374701
-0.068973
0.0730037
-0.00403066
0.0287528
-0.0423369
-0.335685
0.349269
0.0559763
-0.0670582
-0.495767
0.506849
0.0769566
-0.0862751
-0.63178
0.641098
0.0967432
-0.106098
-0.753357
0.762712
0.116412
-0.125532
-0.876798
0.885917
0.135133
-0.143526
-1.01893
1.02732
0.152075
-0.159137
-1.18318
1.19025
0.165751
-0.170513
-1.37244
1.3772
0.173912
-0.174934
-1.59164
1.59267
0.173507
-0.170132
-1.54712
1.54375
0.165773
-0.160145
-1.26705
1.26143
0.154862
-0.148687
-1.04879
1.04261
0.143425
-0.137529
-0.874277
0.868381
0.131075
-0.120909
-0.714423
0.704257
0.107904
-0.0904936
-0.530148
0.512738
0.0728013
-0.0529754
-0.323165
0.303339
0.036503
-0.0216408
-0.148401
0.133538
0.0116086
-0.00452166
-0.0437058
0.0366188
0.00109064
-0.00259598
0.00150534
-0.0802618
0.0782327
0.00202915
0.00705137
-0.0159424
-0.365655
0.374546
0.0263032
-0.0341954
-0.522626
0.530518
0.0421354
-0.0501169
-0.652792
0.660773
0.0597619
-0.0685956
-0.771725
0.780559
0.0778982
-0.0863249
-0.894514
0.902941
0.0951566
-0.102543
-1.03542
1.04281
0.110245
-0.11624
-1.1971
1.20309
0.121768
-0.125408
-1.38159
1.38523
0.127313
-0.127024
-1.59273
1.59244
0.124302
-0.119608
-1.53943
1.53473
0.11389
-0.106821
-1.25509
1.24803
0.100128
-0.0925886
-1.03533
1.02779
0.0855947
-0.0777208
-0.858831
0.850957
0.0702382
-0.0612551
-0.690023
0.68104
0.0514474
-0.0395276
-0.493436
0.481516
0.0286777
-0.0183909
-0.283297
0.273011
0.0112649
-0.00595052
-0.119351
0.114036
0.00291822
-0.00109894
-0.0299587
0.0281395
0.000316778
-0.000374464
5.76863e-05
-0.0815662
0.0786448
0.00292148
-0.0019523
-0.00311342
-0.385857
0.390923
0.0100939
-0.0159596
-0.542467
0.548333
0.0220169
-0.0289235
-0.670753
0.67766
0.0372854
-0.0449604
-0.78849
0.796165
0.0532723
-0.0606512
-0.910648
0.918027
0.0681508
-0.074791
-1.05004
1.05668
0.0815126
-0.0868331
-1.20866
1.21398
0.0912875
-0.0939621
-1.3882
1.39087
0.0951492
-0.0940066
-1.5914
1.59026
0.0904475
-0.0849212
-1.52932
1.52379
0.0785538
-0.0709818
-1.24064
1.23306
0.0634252
-0.055124
-1.01925
1.01095
0.0474002
-0.0389072
-0.841097
0.832603
0.0315323
-0.0237242
-0.66821
0.660402
0.0162334
-0.00817811
-0.46772
0.459664
0.0026481
0.000827344
-0.261823
0.258347
-0.00210351
0.0021167
-0.10777
0.107757
-0.00149711
0.000665793
-0.02583
0.0266613
-0.000124952
0.000243576
-0.000118624
-0.0802835
0.0775395
0.00274397
-0.00541469
0.00301245
-0.399284
0.401686
0.00139783
-0.00589088
-0.55732
0.561813
0.0111143
-0.0169362
-0.68559
0.691411
0.0241103
-0.0307274
-0.803215
0.809832
0.0378802
-0.0442596
-0.924907
0.931286
0.0511366
-0.0568401
-1.06292
1.06862
0.0628078
-0.0670921
-1.21893
1.22321
0.0709542
-0.0731499
-1.39335
1.39554
0.0736934
-0.0718059
-1.58864
1.58675
0.0679292
-0.0621399
-1.51759
1.5118
0.0555818
-0.0475297
-1.22512
1.21707
0.0399717
-0.0317819
-1.0021
0.993914
0.024127
-0.0161272
-0.822982
0.814982
0.00883057
-0.00176123
-0.648818
0.641748
-0.00400179
0.00884491
-0.450004
0.445161
-0.0107271
0.0103006
-0.252236
0.252663
-0.00871885
0.00620587
-0.106449
0.108962
-0.00394555
0.00174255
-0.0267784
0.0289814
-0.000430659
-1.67351e-05
0.000447394
-0.0788078
0.0764131
0.00239465
-0.00638618
0.00551672
-0.408248
0.409118
-0.00227323
-0.000964941
-0.569354
0.572592
0.00529931
-0.0106161
-0.698059
0.703376
0.0166727
-0.0225294
-0.815761
0.821617
0.0287929
-0.0344113
-0.937261
0.942879
0.0404095
-0.04559
-1.07424
1.07942
0.0507566
-0.0548053
-1.22741
1.23145
0.0581993
-0.0600495
-1.39741
1.39926
0.0603174
-0.0583049
-1.5847
1.58269
0.0544684
-0.0487061
-1.50538
1.49962
0.0424913
-0.0350709
-1.20909
1.20166
0.0280131
-0.0201613
-0.985442
0.977591
0.012938
-0.00504784
-0.805887
0.797997
-0.00193063
0.00835218
-0.631494
0.625072
-0.012906
0.016067
-0.437839
0.434678
-0.0164678
0.0143492
-0.249634
0.251753
-0.0115272
0.00814146
-0.110126
0.113512
-0.00514003
0.00232107
-0.0305072
0.0333262
-0.000670097
-0.000830766
0.00150086
-0.0774942
0.0754631
0.00203114
-0.00616856
0.00574659
-0.414457
0.414879
-0.00382034
0.00116561
-0.578664
0.581318
0.00306997
-0.00765311
-0.708691
0.713274
0.0129168
-0.0180586
-0.826693
0.831835
0.0237062
-0.0288176
-0.9482
0.953311
0.0344194
-0.0390722
-1.08438
1.08903
0.0438501
-0.0476113
-1.23527
1.23903
0.0507199
-0.0524141
-1.40091
1.4026
0.0526496
-0.0511929
-1.5807
1.57924
0.0477648
-0.0428411
-1.49369
1.48877
0.0373688
-0.0307915
-1.1944
1.18782
0.0246481
-0.0172362
-0.969729
0.962317
0.0102171
-0.00248619
-0.789326
0.781596
-0.00440168
0.0108462
-0.615809
0.609364
-0.0149521
0.0174893
-0.428902
0.426365
-0.0172761
0.014883
-0.250275
0.252668
-0.0119297
0.0083618
-0.115575
0.119143
-0.005249
0.00241342
-0.0352743
0.0381099
-0.000721738
-0.00196341
0.00268515
-0.0765425
0.0749741
0.0015684
-0.00524173
0.00511454
-0.419145
0.419272
-0.00352659
0.00148289
-0.586864
0.588908
0.00251934
-0.00670896
-0.717975
0.722164
0.0117576
-0.0162517
-0.836591
0.841085
0.0213004
-0.0259228
-0.958438
0.963061
0.0313361
-0.0356655
-1.09376
1.09809
0.040032
-0.0437014
-1.24266
1.24633
0.0470929
-0.0488092
-1.40439
1.4061
0.04939
-0.0482994
-1.57758
1.57649
0.0458194
-0.0414865
-1.48397
1.47964
0.036955
-0.0313172
-1.18141
1.17577
0.0256173
-0.0188154
-0.954985
0.948184
0.0119728
-0.00422168
-0.773056
0.765305
-0.00224978
0.00837658
-0.600768
0.594641
-0.0122415
0.0143202
-0.421418
0.419339
-0.014395
0.0126781
-0.251827
0.253544
-0.0101881
0.00712852
-0.12105
0.12411
-0.00448009
0.00208006
-0.0398724
0.0422725
-0.000637217
-0.00309954
0.00373676
-0.0761037
0.0748807
0.00122296
-0.00416894
0.00415086
-0.422933
0.422951
-0.00271388
0.00075783
-0.594084
0.596041
0.00314373
-0.00695334
-0.726408
0.730217
0.0113464
-0.0157319
-0.845536
0.849921
0.0204685
-0.0252799
-0.967529
0.972341
0.030032
-0.0342345
-1.10255
1.10675
0.0387915
-0.0422945
-1.24992
1.25343
0.0453314
-0.047613
-1.40781
1.41009
0.0486364
-0.0481677
-1.57564
1.57517
0.0462399
-0.0428566
-1.47575
1.47236
0.0388964
-0.0337229
-1.16996
1.16478
0.0284052
-0.0218301
-0.941158
0.934582
0.0152369
-0.00798074
-0.757204
0.749948
0.00156204
0.00407571
-0.586857
0.581219
-0.00755353
0.00953561
-0.414796
0.412814
-0.00994549
0.00885394
-0.252569
0.25366
-0.00719531
0.00507544
-0.125228
0.127348
-0.00322908
0.00152071
-0.0434732
0.0451816
-0.000483728
-0.00401004
0.00449377
-0.076182
0.075167
0.00101499
-0.00292878
0.00267215
-0.426362
0.426618
-0.00139821
-0.00062364
-0.600751
0.602773
0.00425527
-0.00796292
-0.734357
0.738065
0.0122145
-0.0162385
-0.854109
0.858133
0.0211298
-0.0251928
-0.976608
0.980671
0.0299438
-0.0339948
-1.11113
1.11518
0.0384722
-0.0422135
-1.25694
1.26068
0.0456162
-0.047805
-1.4122
1.41439
0.0493479
-0.0494675
-1.57476
1.57488
0.0483293
-0.0453343
-1.46897
1.46597
0.0417796
-0.036888
-1.15969
1.15479
0.0318249
-0.0254802
-0.927684
0.921339
0.019375
-0.012558
-0.742262
0.735445
0.00672854
-0.00139562
-0.574363
0.56903
-0.00209638
0.00403264
-0.408415
0.406478
-0.00477
0.00446194
-0.252169
0.252477
-0.00374805
0.00262207
-0.127591
0.128717
-0.00165909
0.000821114
-0.0456379
0.0464759
-0.000277485
-0.00460799
0.00488548
-0.0765288
0.0758296
0.000699203
-0.00183607
0.00118574
-0.429898
0.430548
-0.00014059
-0.00220816
-0.606633
0.608981
0.00548815
-0.00908615
-0.741841
0.745439
0.0131887
-0.017361
-0.862024
0.866197
0.021662
-0.0258961
-0.984955
0.989189
0.0306174
-0.0344699
-1.11966
1.12351
0.0390514
-0.0427772
-1.26425
1.26797
0.0462951
-0.0490818
-1.41703
1.41982
0.0511994
-0.0516557
-1.5751
1.57556
0.050748
-0.0483538
-1.46314
1.46075
0.0451844
-0.0404814
-1.1497
1.145
0.0355706
-0.0297963
-0.914859
0.909085
0.0238353
-0.0178141
-0.728334
0.722313
0.012596
-0.0076603
-0.563135
0.558199
0.00434354
-0.00188548
-0.401941
0.399483
0.000640344
5.36173e-06
-0.250429
0.249784
-0.000214664
0.00026674
-0.12796
0.127908
-0.000292951
0.00023646
-0.0462337
0.0462902
-0.000121194
-0.00482404
0.00494523
-0.0772767
0.0767322
0.000544572
-0.000918903
0.00039085
-0.433631
0.434159
0.00140385
-0.00353128
-0.612787
0.614914
0.0069471
-0.0104294
-0.748857
0.752339
0.014387
-0.0181716
-0.870044
0.873828
0.0226021
-0.026524
-0.993434
0.997356
0.0311892
-0.0354679
-1.12782
1.13209
0.039698
-0.0437653
-1.27176
1.27582
0.0477339
-0.0506505
-1.42254
1.42546
0.0531577
-0.0543502
-1.57624
1.57744
0.0537745
-0.0518231
-1.45817
1.45621
0.0486949
-0.0443157
-1.14024
1.13586
0.0397898
-0.0343087
-0.902902
0.89742
0.0289771
-0.023438
-0.715809
0.71027
0.0186539
-0.0139005
-0.552617
0.547864
0.0103963
-0.0075545
-0.39512
0.392278
0.00551518
-0.00396046
-0.246949
0.245394
0.00275927
-0.00163274
-0.126215
0.125089
0.00078856
-0.000188848
-0.0453338
0.0447341
-1.90579e-05
-0.0046688
0.00468785
-0.0782775
0.0779156
0.000361911
3.94011e-05
-0.000853703
-0.437413
0.438227
0.00249979
-0.00491114
-0.618496
0.620908
0.00824852
-0.0115741
-0.755655
0.75898
0.0156111
-0.0192456
-0.87759
0.881225
0.0235146
-0.0275471
-1.00175
1.00578
0.0321046
-0.0363397
-1.13623
1.14046
0.0407874
-0.0448901
-1.27982
1.28392
0.0490602
-0.052724
-1.42868
1.43234
0.0556432
-0.0570438
-1.57855
1.57995
0.0570093
-0.0552017
-1.45408
1.45227
0.0524921
-0.0485657
-1.13136
1.12744
0.0441411
-0.0390432
-0.89168
0.886582
0.0341307
-0.0288647
-0.704369
0.699103
0.0244294
-0.0197141
-0.542754
0.538039