/*--------------------------------*- C++ -*----------------------------------*\
| =========                 |                                                 |
| \\      /  F ield         | OpenFOAM: The Open Source CFD Toolbox           |
|  \\    /   O peration     | Version:  2306                                  |
|   \\  /    A nd           | Website:  www.openfoam.com                      |
|    \\/     M anipulation  |                                                 |
\*---------------------------------------------------------------------------*/
FoamFile
{
    version     2.0;
    format      ascii;
    arch        "LSB;label=32;scalar=64";
    class       volVectorField;
    location    "43";
    object      U;
}
// * * * * * * * * * * * * * * * * * * * * * * * * * * * * * * * * * * * * * //

dimensions      [0 1 -1 0 0 0 0];

internalField   nonuniform List<vector> 
8800
(
(0.984962 -0.0884524 0)
(1.00213 -0.0568239 0)
(0.99967 -0.0305566 0)
(1.00001 -0.0158609 0)
(1.00007 -0.00871603 0)
(1.00007 -0.00507873 0)
(1.00004 -0.00299872 0)
(1.00002 -0.00169796 0)
(0.999997 -0.000798761 0)
(1.00006 -9.94943e-05 0)
(0.999988 0.000609206 0)
(0.999996 0.00136439 0)
(1.00001 0.00239288 0)
(1.00002 0.00399707 0)
(1.00003 0.00671234 0)
(0.999995 0.0117379 0)
(0.999827 0.0220504 0)
(0.999164 0.0411681 0)
(1.00747 0.0768953 0)
(0.773652 0.0450709 0)
(0.360995 -0.0151724 0)
(1.04556 -0.0742072 0)
(1.08711 -0.0679001 0)
(1.04776 -0.0523123 0)
(1.02458 -0.0384083 0)
(1.01237 -0.0261289 0)
(1.00647 -0.0167893 0)
(1.00361 -0.0102841 0)
(1.00218 -0.00564187 0)
(1.00151 -0.00203956 0)
(1.00138 0.00118682 0)
(1.00174 0.00450918 0)
(1.0027 0.0084162 0)
(1.0047 0.0137606 0)
(1.00879 0.021501 0)
(1.01733 0.0323293 0)
(1.03443 0.0456706 0)
(1.06547 0.059781 0)
(1.09408 0.0729279 0)
(0.842222 0.0557122 0)
(0.217049 -0.00164747 0)
(1.07584 -0.0503737 0)
(1.09983 -0.0487442 0)
(1.06464 -0.0402003 0)
(1.03995 -0.0330406 0)
(1.02375 -0.0257475 0)
(1.01397 -0.0183751 0)
(1.0085 -0.0116526 0)
(1.00565 -0.00585151 0)
(1.00448 -0.000536858 0)
(1.0048 0.0046001 0)
(1.00664 0.00992694 0)
(1.01056 0.0159753 0)
(1.01785 0.0228987 0)
(1.0305 0.030177 0)
(1.05065 0.0371853 0)
(1.08035 0.044527 0)
(1.10619 0.0517483 0)
(0.942855 0.0413233 0)
(0.216496 0.00166666 0)
(0.175855 -0.00064666 0)
(1.01861 -0.035439 0)
(1.10555 -0.0414658 0)
(1.07809 -0.0363122 0)
(1.05281 -0.0302945 0)
(1.03552 -0.0245803 0)
(1.02352 -0.0188671 0)
(1.01561 -0.0128511 0)
(1.01096 -0.00671883 0)
(1.00892 -0.000453864 0)
(1.00946 0.00573225 0)
(1.01257 0.0116909 0)
(1.0186 0.0175104 0)
(1.02832 0.0230968 0)
(1.04267 0.0285411 0)
(1.0634 0.0342132 0)
(1.09379 0.0401876 0)
(1.09416 0.0418296 0)
(0.828906 0.0227669 0)
(0.174916 0.000666658 0)
(0.15428 -0.000488654 0)
(0.957169 -0.0255916 0)
(1.10402 -0.0351561 0)
(1.08789 -0.0327316 0)
(1.06134 -0.0281952 0)
(1.04344 -0.0232194 0)
(1.03104 -0.0179778 0)
(1.02237 -0.012485 0)
(1.01676 -0.00659333 0)
(1.01408 -0.000135342 0)
(1.01474 0.00633751 0)
(1.0186 0.0122173 0)
(1.02546 0.0175236 0)
(1.03567 0.0225091 0)
(1.05037 0.0273446 0)
(1.07206 0.031844 0)
(1.10075 0.0357387 0)
(1.06921 0.0339044 0)
(0.74143 0.014338 0)
(0.152871 0.000510916 0)
(0.139722 -0.000360082 0)
(0.9001 -0.0192542 0)
(1.09631 -0.0302285 0)
(1.09595 -0.029374 0)
(1.06893 -0.025644 0)
(1.05022 -0.0215732 0)
(1.03729 -0.016881 0)
(1.0283 -0.0116588 0)
(1.02233 -0.00597223 0)
(1.01934 0.000355765 0)
(1.01999 0.00670884 0)
(1.02404 0.0123443 0)
(1.03111 0.0173234 0)
(1.04162 0.0218252 0)
(1.05694 0.0258119 0)
(1.07955 0.0293272 0)
(1.10307 0.0320241 0)
(1.03741 0.0280217 0)
(0.674944 0.0102128 0)
(0.137739 0.00038612 0)
(0.129035 -0.00027589 0)
(0.850214 -0.0148879 0)
(1.08383 -0.0261436 0)
(1.10156 -0.026509 0)
(1.0757 -0.0232346 0)
(1.05647 -0.0196285 0)
(1.04311 -0.0154632 0)
(1.03376 -0.0106225 0)
(1.02755 -0.0051602 0)
(1.02436 0.000965977 0)
(1.0249 0.00708596 0)
(1.02897 0.0124359 0)
(1.03617 0.0170088 0)
(1.04698 0.0209133 0)
(1.0627 0.0242765 0)
(1.08576 0.0273122 0)
(1.10233 0.0291406 0)
(1.00281 0.0234614 0)
(0.623248 0.00782027 0)
(0.126355 0.000307246 0)
(0.12087 -0.000213479 0)
(0.80771 -0.0117233 0)
(1.0684 -0.0225627 0)
(1.10498 -0.0239125 0)
(1.08186 -0.0210846 0)
(1.0622 -0.0177049 0)
(1.04857 -0.0138405 0)
(1.03896 -0.00934831 0)
(1.03248 -0.00417952 0)
(1.02908 0.00169945 0)
(1.02949 0.00754309 0)
(1.03352 0.0125339 0)
(1.0408 0.0166445 0)
(1.05173 0.0200664 0)
(1.0677 0.0230312 0)
(1.09113 0.0257749 0)
(1.09872 0.026711 0)
(0.967917 0.0198559 0)
(0.581852 0.00625385 0)
(0.117343 0.00025147 0)
(0.114526 -0.000165601 0)
(0.771853 -0.00935368 0)
(1.0514 -0.019409 0)
(1.10722 -0.0215129 0)
(1.08762 -0.0190769 0)
(1.06755 -0.0158643 0)
(1.05368 -0.0121788 0)
(1.04389 -0.00790963 0)
(1.03719 -0.00300594 0)
(1.03354 0.002586 0)
(1.03377 0.00810156 0)
(1.03771 0.0127011 0)
(1.04494 0.016407 0)
(1.0559 0.0194589 0)
(1.07211 0.0220925 0)
(1.09527 0.0245076 0)
(1.09239 0.0246579 0)
(0.93409 0.017042 0)
(0.547776 0.00517097 0)
(0.109967 0.000211765 0)
(0.109562 -0.000127491 0)
(0.741722 -0.00751332 0)
(1.03393 -0.0166063 0)
(1.10848 -0.019247 0)
(1.09305 -0.0171416 0)
(1.0727 -0.014043 0)
(1.05857 -0.0104712 0)
(1.04859 -0.0063539 0)
(1.0417 -0.00165586 0)
(1.0378 0.00365459 0)
(1.03778 0.00882119 0)
(1.04153 0.0130408 0)
(1.04865 0.0163793 0)
(1.05962 0.0190982 0)
(1.07605 0.0214381 0)
(1.09817 0.0234951 0)
(1.08371 0.0229149 0)
(0.901951 0.0148618 0)
(0.519001 0.00440114 0)
(0.103751 0.000183597 0)
(0.10569 -9.60308e-05 0)
(0.716508 -0.00602711 0)
(1.01681 -0.0140835 0)
(1.10886 -0.0170482 0)
(1.09835 -0.0152422 0)
(1.07773 -0.0121777 0)
(1.06331 -0.00867082 0)
(1.05312 -0.00465768 0)
(1.04601 -0.000112587 0)
(1.04183 0.00493997 0)
(1.0415 0.00976049 0)
(1.04499 0.0136152 0)
(1.05195 0.0166039 0)
(1.06292 0.0189968 0)
(1.07957 0.0210631 0)
(1.09977 0.0227366 0)
(1.07312 0.0214715 0)
(0.871674 0.0131996 0)
(0.494109 0.00385399 0)
(0.0983545 0.000164568 0)
(0.102722 -6.89333e-05 0)
(0.695581 -0.00477818 0)
(1.00066 -0.0117731 0)
(1.10851 -0.0148848 0)
(1.10343 -0.0133121 0)
(1.08271 -0.0102524 0)
(1.06797 -0.00675904 0)
(1.05754 -0.00278976 0)
(1.05015 0.00164667 0)
(1.04563 0.00648545 0)
(1.04493 0.0109938 0)
(1.04811 0.0144896 0)
(1.05487 0.017122 0)
(1.06582 0.0191922 0)
(1.08264 0.020985 0)
(1.10043 0.0222426 0)
(1.06094 0.0203238 0)
(0.843173 0.011956 0)
(0.472056 0.00347078 0)
(0.0935286 0.000152518 0)
(0.100538 -4.38801e-05 0)
(0.678488 -0.00367472 0)
(0.985956 -0.00959663 0)
(1.10762 -0.0126538 0)
(1.10826 -0.0112329 0)
(1.0877 -0.00815711 0)
(1.07263 -0.0046308 0)
(1.06189 -0.00066177 0)
(1.05414 0.00369941 0)
(1.04919 0.00836043 0)
(1.04803 0.0125691 0)
(1.05083 0.0157032 0)
(1.05738 0.0179715 0)
(1.0683 0.0196967 0)
(1.08521 0.0211925 0)
(1.10007 0.0220864 0)
(1.04741 0.0194642 0)
(0.816216 0.0110572 0)
(0.452051 0.00321348 0)
(0.0890813 0.000146124 0)
(0.0990766 -1.92772e-05 0)
(0.664934 -0.00264577 0)
(0.973072 -0.00747835 0)
(1.10654 -0.0102996 0)
(1.11297 -0.00895394 0)
(1.09278 -0.00583519 0)
(1.07733 -0.00222522 0)
(1.06622 0.00179715 0)
(1.05805 0.00613114 0)
(1.05255 0.0106398 0)
(1.05083 0.0145456 0)
(1.05319 0.0172945 0)
(1.05946 0.0191698 0)
(1.07034 0.0205234 0)
(1.08732 0.0217266 0)
(1.09864 0.0221941 0)
(1.03268 0.0188833 0)
(0.790489 0.010443 0)
(0.433467 0.0030562 0)
(0.0848605 0.000144402 0)
(0.0983187 6.5785e-06 0)
(0.654779 -0.00164169 0)
(0.962331 -0.00535094 0)
(1.10556 -0.00775997 0)
(1.11768 -0.00641319 0)
(1.09801 -0.00322471 0)
(1.08215 0.000528309 0)
(1.07062 0.0046653 0)
(1.06193 0.00903349 0)
(1.05578 0.0134188 0)
(1.05337 0.0170177 0)
(1.05519 0.019372 0)
(1.06111 0.0208335 0)
(1.07189 0.0217773 0)
(1.08885 0.0226273 0)
(1.09604 0.0226141 0)
(1.01684 0.0185837 0)
(0.765661 0.0100789 0)
(0.415804 0.00298318 0)
(0.0807423 0.000146706 0)
(0.0982942 2.99932e-05 0)
(0.648023 -0.000621734 0)
(0.954057 -0.0031425 0)
(1.10502 -0.00495737 0)
(1.12251 -0.00350013 0)
(1.10347 -0.00018299 0)
(1.08716 0.00376508 0)
(1.07512 0.00806009 0)
(1.06579 0.0125036 0)
(1.05884 0.0168052 0)
(1.05559 0.0200958 0)
(1.05674 0.022012 0)
(1.06224 0.022988 0)
(1.07291 0.0234669 0)
(1.08963 0.0239088 0)
(1.09209 0.023374 0)
(0.999869 0.0185904 0)
(0.741362 0.00994718 0)
(0.398614 0.00298904 0)
(0.0766144 0.00015302 0)
(0.0990518 6.8129e-05 0)
(0.644812 0.000444682 0)
(0.948594 -0.000771081 0)
(1.10531 -0.00181866 0)
(1.12768 -0.000132957 0)
(1.10925 0.0033853 0)
(1.09243 0.00759647 0)
(1.07975 0.0121207 0)
(1.06963 0.0167014 0)
(1.06169 0.0209375 0)
(1.05743 0.0238963 0)
(1.05777 0.0253369 0)
(1.06276 0.0257768 0)
(1.07329 0.0257391 0)
(1.08949 0.025713 0)
(1.08669 0.0245199 0)
(0.981696 0.0189269 0)
(0.717188 0.0100437 0)
(0.381479 0.0030698 0)
(0.0723697 0.000162889 0)
(0.100779 0.000102974 0)
(0.645498 0.00163756 0)
(0.946296 0.00181336 0)
(1.10684 0.00176124 0)
(1.13336 0.00376661 0)
(1.11546 0.00757545 0)
(1.09807 0.0121601 0)
(1.08464 0.0170133 0)
(1.07353 0.0217927 0)
(1.06436 0.0259864 0)
(1.05887 0.0285982 0)
(1.05825 0.0294679 0)
(1.06263 0.0293104 0)
(1.07293 0.0287099 0)
(1.08824 0.028105 0)
(1.07963 0.026096 0)
(0.962137 0.0196107 0)
(0.69271 0.0103672 0)
(0.363991 0.00322391 0)
(0.0679065 0.000176183 0)
(0.103556 0.000152928 0)
(0.650526 0.00311384 0)
(0.947675 0.0047954 0)
(1.1101 0.00588797 0)
(1.13972 0.00838779 0)
(1.12226 0.0126517 0)
(1.10422 0.0177011 0)
(1.08988 0.0229588 0)
(1.0776 0.0280008 0)
(1.06697 0.0321594 0)
(1.05993 0.0343508 0)
(1.05813 0.034597 0)
(1.06173 0.0337322 0)
(1.07173 0.0324753 0)
(1.08568 0.0311774 0)
(1.0707 0.0282058 0)
(0.940981 0.0207178 0)
(0.667456 0.0109446 0)
(0.345735 0.00345607 0)
(0.0631255 0.000192748 0)
(0.107657 0.000217968 0)
(0.660322 0.00481956 0)
(0.953132 0.00825212 0)
(1.11559 0.0107082 0)
(1.14707 0.0138909 0)
(1.12981 0.0187854 0)
(1.11097 0.0244211 0)
(1.09547 0.0301947 0)
(1.08168 0.035568 0)
(1.0692 0.0397001 0)
(1.06035 0.0414022 0)
(1.05719 0.0408929 0)
(1.05987 0.039215 0)
(1.06949 0.0371979 0)
(1.08167 0.0351434 0)
(1.05963 0.0309934 0)
(0.917822 0.0223196 0)
(0.640835 0.0117987 0)
(0.326249 0.00376689 0)
(0.0579248 0.000211772 0)
(0.113431 0.000306634 0)
(0.675588 0.00694426 0)
(0.963359 0.0124347 0)
(1.12379 0.0164292 0)
(1.15574 0.0204886 0)
(1.13837 0.0262316 0)
(1.11853 0.0326443 0)
(1.10161 0.0391013 0)
(1.08598 0.0448764 0)
(1.07126 0.0489058 0)
(1.06023 0.0499538 0)
(1.0554 0.048553 0)
(1.05693 0.0459642 0)
(1.06605 0.0430958 0)
(1.07611 0.0401337 0)
(1.04605 0.0346031 0)
(0.892169 0.0245241 0)
(0.612157 0.0129682 0)
(0.30504 0.00415759 0)
(0.0522258 0.000231387 0)
(0.121371 0.00043132 0)
(0.69719 0.00966531 0)
(0.979103 0.0175538 0)
(1.13534 0.0233624 0)
(1.16621 0.0285752 0)
(1.14829 0.0354659 0)
(1.12716 0.0428603 0)
(1.10839 0.0501075 0)
(1.0904 0.0562761 0)
(1.07295 0.0601221 0)
(1.05935 0.060355 0)
(1.05258 0.0578404 0)
(1.0528 0.054206 0)
(1.06124 0.0503834 0)
(1.06871 0.0464166 0)
(1.02952 0.0392579 0)
(0.863384 0.0274799 0)
(0.580558 0.014515 0)
(0.281533 0.00463223 0)
(0.0459636 0.000250333 0)
(0.132213 0.000615308 0)
(0.726391 0.0133323 0)
(1.00143 0.0240505 0)
(1.15101 0.0320178 0)
(1.17911 0.0387646 0)
(1.15992 0.0472034 0)
(1.13695 0.0557808 0)
(1.11569 0.0638702 0)
(1.09472 0.070331 0)
(1.07399 0.0737265 0)
(1.05744 0.0728335 0)
(1.04849 0.0689701 0)
(1.04728 0.0640748 0)
(1.0549 0.0591715 0)
(1.05919 0.0540642 0)
(1.00952 0.0451605 0)
(0.830624 0.0313137 0)
(0.544982 0.0164637 0)
(0.255109 0.00518055 0)
(0.0390862 0.000267883 0)
(0.147157 0.000904064 0)
(0.765022 0.0185852 0)
(1.03187 0.0327206 0)
(1.17179 0.0432969 0)
(1.19534 0.0520978 0)
(1.17366 0.0623791 0)
(1.14805 0.0722633 0)
(1.12355 0.0811129 0)
(1.09893 0.0875889 0)
(1.07433 0.0901249 0)
(1.05443 0.0877271 0)
(1.04306 0.0822292 0)
(1.04031 0.0758945 0)
(1.04693 0.069673 0)
(1.04712 0.0633721 0)
(0.98538 0.0524384 0)
(0.792902 0.0360597 0)
(0.504322 0.0187483 0)
(0.22529 0.00575739 0)
(0.0315958 0.000281182 0)
(0.168318 0.00140018 0)
(0.816092 0.0265802 0)
(1.07303 0.0451506 0)
(1.19865 0.059054 0)
(1.21544 0.0705855 0)
(1.18962 0.0825965 0)
(1.16022 0.0936686 0)
(1.13146 0.102845 0)
(1.10236 0.108703 0)
(1.07336 0.109702 0)
(1.04983 0.105218 0)
(1.03595 0.0977383 0)
(1.03164 0.0897798 0)
(1.03696 0.0822627 0)
(1.03205 0.0744341 0)
(0.956185 0.061066 0)
(0.749061 0.0415853 0)
(0.457736 0.0211998 0)
(0.192035 0.00628485 0)
(0.0236101 0.000285573 0)
(0.199035 0.00250778 0)
(0.885225 0.0400856 0)
(1.12799 0.0652051 0)
(1.23196 0.0828616 0)
(1.23921 0.0971322 0)
(1.20729 0.110372 0)
(1.17275 0.121733 0)
(1.13874 0.130124 0)
(1.10451 0.134271 0)
(1.07073 0.132731 0)
(1.04343 0.125407 0)
(1.02704 0.115495 0)
(1.02121 0.105695 0)
(1.02495 0.0968196 0)
(1.01338 0.0872245 0)
(0.920791 0.0708228 0)
(0.69797 0.0474719 0)
(0.405413 0.0235959 0)
(0.156423 0.00670084 0)
(0.0155413 0.000272571 0)
(0.240919 0.0087152 1.02907e-19)
(0.976417 0.0671455 9.16812e-20)
(1.19446 0.0992368 -3.19952e-20)
(1.26895 0.11845 0)
(1.26402 0.13543 -8.03751e-34)
(1.22464 0.148108 1.17118e-20)
(1.18411 0.157987 -2.08283e-20)
(1.14424 0.164199 0)
(1.10444 0.165584 4.21243e-34)
(1.06547 0.160738 -2.51622e-20)
(1.03407 0.150095 0)
(1.01493 0.137521 -2.95466e-20)
(1.00737 0.125798 -8.68877e-20)
(1.0092 0.115805 -4.09553e-20)
(0.988969 0.104703 -1.22655e-20)
(0.874898 0.0841814 -7.27327e-21)
(0.633942 0.0551079 0)
(0.344761 0.0266067 5.07947e-21)
(0.119246 0.00771984 5.97753e-21)
(0.00789949 0.000410907 1.05982e-19)
(0.269899 0.0239807 7.91855e-20)
(1.05156 0.109686 1.02375e-21)
(1.24882 0.147927 8.69598e-21)
(1.30255 0.167214 0)
(1.28587 0.184017 -4.14239e-20)
(1.23949 0.194615 -4.67706e-20)
(1.19291 0.202265 -2.12008e-20)
(1.147 0.206084 -7.46582e-20)
(1.10125 0.204763 0)
(1.05642 0.196827 1.07733e-19)
(1.01997 0.183161 1.06321e-19)
(0.997144 0.16815 3.15076e-20)
(0.987065 0.154417 1.14229e-19)
(0.984204 0.142057 1.59804e-19)
(0.951684 0.127501 0)
(0.813688 0.101553 2.2427e-19)
(0.559216 0.0648311 3.21313e-19)
(0.282471 0.0306007 3.5603e-19)
(0.0850504 0.00876126 -4.05581e-19)
(0.0011631 0.000210464 -7.49829e-21)
(0.270926 0.0398379 0)
(1.09887 0.16508 1.49336e-20)
(1.2855 0.207841 0)
(1.32874 0.226776 -5.61583e-20)
(1.30303 0.240343 0)
(1.25067 0.247175 -9.30246e-20)
(1.19842 0.251251 4.36104e-20)
(1.14681 0.251685 -1.51422e-19)
(1.09538 0.246952 -3.12755e-21)
(1.04496 0.23548 5.60581e-20)
(1.00362 0.218494 2.34063e-19)
(0.977096 0.200838 -5.90138e-22)
(0.963927 0.185079 -8.31106e-20)
(0.956352 0.170747 -1.51081e-19)
(0.916315 0.15301 1.78791e-19)
(0.769452 0.12086 -3.15416e-19)
(0.51867 0.0765774 -4.15394e-20)
(0.258453 0.0365336 0)
(0.0763238 0.0105398 -2.08739e-24)
(-0.000356159 1.21971e-05 0)
(0.264626 0.0535255 2.11445e-19)
(1.12421 0.223755 -1.01843e-19)
(1.30824 0.27256 -7.53943e-20)
(1.34595 0.291572 2.71051e-20)
(1.314 0.301035 -4.54678e-20)
(1.25715 0.30352 1.95777e-19)
(1.20027 0.303409 9.14655e-20)
(1.14371 0.299903 0)
(1.08717 0.291282 -2.83561e-19)
(1.03149 0.275816 0)
(0.985436 0.255117 -1.23363e-19)
(0.95533 0.234637 -1.51354e-19)
(0.939335 0.217059 -9.072e-20)
(0.928421 0.201443 -1.09941e-19)
(0.88352 0.180911 0)
(0.737882 0.142932 0)
(0.500361 0.0924619 -2.71253e-19)
(0.257711 0.046537 5.35518e-20)
(0.081094 0.0144291 -3.13509e-20)
(0.000906067 0.000179883 -3.60963e-20)
(0.257331 0.065649 -9.82737e-20)
(1.13527 0.282362 0)
(1.32079 0.338314 1.61541e-19)
(1.35518 0.357744 7.81488e-20)
(1.31887 0.363298 1.04023e-19)
(1.25879 0.361478 0)
(1.19831 0.357164 9.04755e-20)
(1.13767 0.349582 1.68638e-19)
(1.07666 0.336886 1.45975e-19)
(1.01618 0.317255 2.64619e-19)
(0.965732 0.292976 0)
(0.932351 0.270135 -3.27035e-19)
(0.913995 0.251215 -1.96419e-19)
(0.900196 0.234162 -1.15879e-19)
(0.852016 0.210138 7.10642e-19)
(0.713283 0.167621 8.42831e-20)
(0.493412 0.112005 3.95347e-19)
(0.266065 0.0596336 -1.86265e-18)
(0.0923939 0.0206805 1.10464e-18)
(0.00431155 0.000995717 -1.31119e-18)
(0.250511 0.0766614 -6.40312e-20)
(1.13742 0.339049 1.86373e-20)
(1.32592 0.403172 -1.91771e-20)
(1.35806 0.423462 -8.48105e-20)
(1.31862 0.425443 -9.11842e-20)
(1.25617 0.419538 3.5265e-21)
(1.19285 0.41122 -9.79361e-20)
(1.12883 0.399651 1.75142e-19)
(1.06397 0.382922 -3.14261e-19)
(0.999282 0.359297 0)
(0.94501 0.331898 -1.48596e-19)
(0.90871 0.307201 -3.2244e-21)
(0.887852 0.286973 -2.14849e-19)
(0.870617 0.267733 0)
(0.820545 0.239848 -1.54023e-19)
(0.691675 0.193729 -3.64863e-19)
(0.490055 0.133543 9.74603e-19)
(0.276344 0.0749623 -9.55964e-19)
(0.10468 0.028589 1.35571e-18)
(0.00818555 0.0023306 -1.38738e-18)
(0.244914 0.0869012 -8.09662e-22)
(1.13406 0.393134 -1.14066e-20)
(1.32577 0.466127 -6.14678e-20)
(1.35607 0.487559 3.64721e-20)
(1.31431 0.4864 -4.63382e-20)
(1.2501 0.476733 0)
(1.18448 0.464658 -9.2556e-20)
(1.11761 0.449272 -1.83726e-19)
(1.04947 0.42868 -1.63726e-19)
(0.981208 0.401352 0)
(0.923697 0.371135 -1.54533e-19)
(0.884765 0.344506 -1.90411e-19)
(0.861026 0.322302 2.32967e-19)
(0.840025 0.300137 -1.41237e-19)
(0.789137 0.2689 -6.71845e-19)
(0.670872 0.220332 3.99739e-19)
(0.485689 0.156264 1.1933e-19)
(0.284156 0.0912508 0)
(0.11491 0.0372492 -1.31042e-18)
(0.0116144 0.00390732 -4.73189e-20)
(0.24058 0.0966835 -2.96404e-21)
(1.12741 0.444405 6.77421e-21)
(1.32181 0.526667 3.02706e-20)
(1.35044 0.549329 1.26488e-19)
(1.30688 0.545465 -1.75246e-19)
(1.24134 0.532407 1.93892e-19)
(1.17383 0.516832 1.98949e-19)
(1.10455 0.49784 -2.93457e-19)
(1.03359 0.47362 9.98892e-20)
(0.962299 0.442834 -6.50482e-19)
(0.901981 0.409727 -1.7414e-19)
(0.860513 0.380572 0)
(0.833705 0.355536 2.52324e-19)
(0.809192 0.33014 3.01696e-19)
(0.758674 0.296309 3.60924e-19)
(0.649899 0.245962 -4.34169e-19)
(0.478565 0.178369 -1.2802e-19)
(0.287394 0.107068 1.50134e-19)
(0.121397 0.0455416 0)
(0.0140365 0.0054121 -1.02532e-19)
(0.237363 0.106138 -1.23493e-20)
(1.11897 0.49296 -6.32579e-21)
(1.31532 0.585044 -2.88555e-20)
(1.34219 0.608418 7.94555e-20)
(1.29713 0.602195 -8.14286e-20)
(1.23053 0.586085 -8.08956e-21)
(1.16146 0.567294 -2.16533e-19)
(1.09013 0.544961 -1.05924e-19)
(1.01674 0.517376 -2.83814e-19)
(0.942798 0.483281 4.90976e-22)
(0.879897 0.446976 -5.4534e-19)
(0.835917 0.414629 4.57361e-19)
(0.80608 0.386305 -2.76456e-19)
(0.77863 0.357925 3.31614e-19)
(0.72908 0.32218 0)
(0.628264 0.270098 -2.3489e-19)
(0.468317 0.199092 -8.78265e-22)
(0.285773 0.121378 -6.52682e-19)
(0.123394 0.0525938 -9.56357e-20)
(0.0153038 0.00661375 0)
(0.235122 0.115389 0)
(1.10963 0.538994 4.06214e-22)
(1.30691 0.640517 -3.87888e-20)
(1.33205 0.66467 -7.53304e-20)
(1.2857 0.656359 -9.97764e-20)
(1.21824 0.637491 0)
(1.14787 0.615762 -1.00031e-19)
(1.07477 0.590388 -2.31303e-21)
(0.999265 0.559733 6.07175e-19)
(0.92288 0.522412 -8.93762e-20)
(0.857459 0.48258 -3.93163e-19)
(0.810985 0.446609 2.3802e-19)
(0.778451 0.414927 -4.21231e-21)
(0.748864 0.384017 3.52152e-19)
(0.700424 0.346661 2.16881e-19)
(0.605468 0.29253 -5.0656e-19)
(0.454826 0.217564 5.98644e-19)
(0.279449 0.133207 1.76441e-19)
(0.121456 0.0577314 7.23861e-19)
(0.0154794 0.00736052 -1.90999e-18)
(0.233784 0.124574 -1.82418e-20)
(1.09996 0.582709 1.61051e-20)
(1.29741 0.693064 -3.76076e-21)
(1.32057 0.718061 6.39337e-20)
(1.2731 0.707834 0)
(1.20493 0.686466 -9.22238e-20)
(1.13344 0.662094 3.33282e-19)
(1.05883 0.634 2.3209e-19)
(0.981423 0.600575 0)
(0.902674 0.560109 -1.28201e-18)
(0.834708 0.516543 1.06071e-18)
(0.785799 0.476771 0)
(0.750978 0.44183 3.21622e-19)
(0.719914 0.408633 -4.13463e-21)
(0.672463 0.369473 -6.91166e-19)
(0.581753 0.312469 2.70479e-19)
(0.438078 0.232925 0)
(0.268758 0.142071 9.50232e-19)
(0.116032 0.0606275 0)
(0.0145917 0.00752361 -9.01163e-19)
(0.233172 0.133741 2.60842e-20)
(1.09045 0.624225 3.29773e-20)
(1.28694 0.742769 -6.24993e-22)
(1.30818 0.76856 0)
(1.25974 0.75659 -8.86306e-20)
(1.19097 0.732965 0)
(1.11855 0.706234 -3.31271e-19)
(1.04262 0.675753 -1.08987e-19)
(0.96344 0.639863 1.07315e-19)
(0.882333 0.596372 -6.33337e-19)
(0.811728 0.54903 1.09607e-19)
(0.760435 0.505454 0)
(0.723675 0.46735 -6.85849e-19)
(0.691546 0.431841 4.14547e-21)
(0.644743 0.390427 0)
(0.556987 0.329884 3.83812e-21)
(0.418398 0.245002 8.69153e-19)
(0.254311 0.147552 -8.20106e-19)
(0.107714 0.0614282 2.40149e-19)
(0.0129971 0.00726258 0)
(0.232983 0.142767 0)
(1.08136 0.663617 4.76492e-20)
(1.27586 0.789803 1.93692e-20)
(1.29524 0.81622 -4.77385e-21)
(1.24594 0.80265 -3.31542e-20)
(1.17667 0.776997 -2.05835e-19)
(1.10346 0.748195 1.23039e-19)
(1.02636 0.715655 -1.27142e-19)
(0.94552 0.677591 4.76564e-19)
(0.862005 0.631266 -1.01e-18)
(0.788632 0.580247 -7.11439e-21)
(0.73495 0.532943 -3.01249e-19)
(0.696478 0.491696 1.11052e-18)
(0.6635 0.4537 -4.84692e-21)
(0.61698 0.409518 -5.33981e-19)
(0.530952 0.344723 -9.53006e-19)
(0.396064 0.253769 0)
(0.236575 0.149702 0)
(0.0970948 0.0601058 2.5984e-19)
(0.0109879 0.00659352 -1.4985e-19)
(0.233341 0.151817 4.57177e-20)
(1.07264 0.700803 -1.17295e-19)
(1.26447 0.834212 -2.14425e-20)
(1.28202 0.861119 0)
(1.23194 0.846082 -3.15286e-21)
(1.16228 0.81861 -1.92393e-19)
(1.08843 0.788018 2.99664e-19)
(1.01029 0.753733 5.03188e-19)
(0.927833 0.713785 6.19231e-19)
(0.841853 0.664871 -8.24347e-19)
(0.765561 0.610394 -9.0689e-19)
(0.709398 0.559467 8.04684e-19)
(0.669304 0.51499 0)
(0.635564 0.474174 -2.42407e-19)
(0.589029 0.426624 -5.7698e-19)
(0.503812 0.356749 -6.8333e-19)
(0.371344 0.258919 -8.09258e-19)
(0.216249 0.148461 2.38487e-19)
(0.0847071 0.0566395 -1.39671e-19)
(0.00859483 0.00551867 5.11787e-22)
(0.233825 0.160731 0)
(1.0645 0.736247 0)
(1.25295 0.876093 5.17445e-21)
(1.26869 0.903351 0)
(1.21795 0.886976 8.30363e-20)
(1.14799 0.857887 1.33798e-19)
(1.07362 0.825764 0)
(0.994549 0.790023 6.01978e-20)
(0.910537 0.748468 1.03245e-18)
(0.822049 0.697267 -1.89186e-18)
(0.742672 0.639642 0)
(0.683849 0.585217 -5.1663e-19)
(0.642048 0.537321 -5.87409e-21)
(0.60751 0.4932 -4.71384e-21)
(0.560726 0.441542 6.15524e-19)
(0.475631 0.365696 -6.89488e-22)
(0.344337 0.260265 -1.73958e-18)
(0.193849 0.143779 5.1243e-19)
(0.0716255 0.0515018 1.50738e-19)
(0.00613671 0.00420408 0)
(0.23434 0.169492 -2.05062e-19)
(1.05669 0.770005 -9.28963e-20)
(1.2414 0.915521 -9.93804e-20)
(1.25542 0.943023 2.61921e-20)
(1.20412 0.925412 1.15224e-19)
(1.13396 0.894909 0)
(1.05918 0.861499 1.82272e-19)
(0.97928 0.824566 -1.33178e-19)
(0.893766 0.781673 7.70001e-21)
(0.802757 0.728528 1.38817e-19)
(0.720124 0.668126 1.17047e-18)
(0.658376 0.610369 -1.81124e-19)
(0.614616 0.558827 -6.81293e-19)
(0.579083 0.510756 -2.81378e-19)
(0.531854 0.454037 3.34321e-19)
(0.446511 0.371228 -3.19435e-22)
(0.316147 0.257717 4.68236e-19)
(0.170745 0.136152 -1.10092e-18)
(0.0585833 0.0451639 1.29558e-18)
(0.00377227 0.00277432 1.86064e-19)
(0.23472 0.177975 8.12566e-20)
(1.04925 0.802173 -5.48079e-20)
(1.22995 0.9526 1.23014e-20)
(1.24232 0.98026 3.83377e-20)
(1.19057 0.961507 -1.09883e-20)
(1.1203 0.929764 -2.34847e-19)
(1.04522 0.895288 5.40956e-20)
(0.964582 0.85739 -5.5493e-19)
(0.877639 0.813411 -1.13519e-18)
(0.784119 0.758685 -1.12459e-18)
(0.698085 0.695946 0)
(0.633073 0.635084 -7.92115e-19)
(0.586932 0.579702 9.79262e-19)
(0.549981 0.526886 0)
(0.502086 0.463823 -7.14724e-19)
(0.416524 0.372834 4.26532e-19)
(0.287514 0.251018 -5.02433e-19)
(0.1482 0.125987 -5.91781e-19)
(0.0464798 0.03819 -1.04239e-18)
(0.00167249 0.00136561 -8.00511e-19)
(0.235426 0.186308 -9.48002e-20)
(1.04203 0.832736 5.86385e-20)
(1.21866 0.987402 1.28869e-19)
(1.22948 1.01514 6.91321e-20)
(1.1774 0.995358 3.07182e-20)
(1.10711 0.96255 -1.29357e-19)
(1.03181 0.927191 1.78898e-19)
(0.950533 0.888539 -5.70259e-19)
(0.862236 0.843709 -6.71031e-19)
(0.766266 0.78777 1.17487e-18)
(0.676709 0.723168 2.56138e-18)
(0.608063 0.659517 0)
(0.558966 0.600193 0)
(0.519854 0.541789 -3.2317e-19)
(0.470854 0.470632 0)
(0.385494 0.369621 9.16768e-19)
(0.259479 0.23939 1.07993e-18)
(0.128103 0.113423 0)
(0.0365746 0.0311594 0)
(-2.01321e-05 0.000138034 8.59329e-19)
(0.235777 0.194188 1.11468e-19)
(1.03508 0.861689 9.11397e-20)
(1.20762 1.02005 9.53592e-20)
(1.21697 1.04781 -8.25503e-20)
(1.16466 1.02707 1.77963e-20)
(1.09443 0.99335 1.36571e-19)
(1.01902 0.957271 -2.45371e-19)
(0.937189 0.918037 -2.21463e-23)
(0.847638 0.872575 -9.96319e-21)
(0.749299 0.815786 -1.05123e-20)
(0.65616 0.749834 1.3167e-18)
(0.583503 0.683789 0)
(0.530779 0.620585 9.86038e-19)
(0.488391 0.555841 6.87875e-19)
(0.437262 0.474501 1.66275e-18)
(0.352583 0.360434 4.92633e-19)
(0.232934 0.220672 -5.81319e-19)
(0.114183 0.0964591 -3.40315e-19)
(0.0336185 0.0232021 0)
(0.000142989 -0.000446181 9.22244e-19)
(0.236419 0.202073 -2.57646e-19)
(1.02836 0.889127 0)
(1.19682 1.05059 1.2058e-19)
(1.20482 1.07833 -7.61717e-20)
(1.15241 1.05675 4.12671e-21)
(1.08231 1.02225 -1.5191e-19)
(1.00688 0.985583 4.78926e-19)
(0.924582 0.945916 -4.64014e-20)
(0.833885 0.900018 0)
(0.733303 0.842709 -1.29219e-18)
(0.636592 0.775946 -2.85585e-18)
(0.559589 0.708008 1.16205e-19)
(0.502545 0.641151 1.35435e-18)
(0.455434 0.569587 0)
(0.400207 0.476116 1.11927e-18)
(0.315509 0.344653 0)
(0.206034 0.190517 0)
(0.109961 0.0631922 -3.68079e-19)
(0.0577018 0.00343079 0)
(0.0267328 0.0106423 2.46828e-19)
(0.23669 0.209345 -2.94097e-19)
(1.02185 0.915406 0)
(1.18628 1.07925 2.07072e-19)
(1.193 1.10696 0)
(1.14063 1.08466 -1.1622e-20)
(1.07069 1.04954 0)
(0.995331 1.01243 2.42368e-20)
(0.91262 0.972509 7.77528e-20)
(0.820872 0.926405 8.33747e-20)
(0.718135 0.86893 -1.41347e-18)
(0.617867 0.80194 8.5664e-20)
(0.536138 0.732761 9.30726e-19)
(0.473955 0.662563 1.31726e-18)
(0.420277 0.583863 1.77319e-19)
(0.357903 0.477196 8.74704e-19)
(0.26974 0.32374 0)
(0.167663 0.147075 1.22514e-18)
(0.087966 0.00812182 -7.13353e-19)
(0.0417557 0.0460816 8.18606e-19)
(-0.0599269 0.431761 -9.71678e-19)
(0.236929 0.216411 2.47188e-19)
(1.01529 0.940296 3.8029e-19)
(1.17592 1.10633 0)
(1.18139 1.13413 1.01896e-20)
(1.12913 1.11138 5.1354e-20)
(1.05931 1.0759 1.91526e-19)
(0.984069 1.03862 1.67068e-19)
(0.900914 0.998756 0)
(0.80809 0.952827 5.55218e-19)
(0.703147 0.895743 -7.40889e-20)
(0.599089 0.829258 0)
(0.511989 0.759774 0)
(0.443423 0.686522 1.1773e-18)
(0.381045 0.599894 -5.47162e-19)
(0.307407 0.480297 -8.83929e-19)
(0.210603 0.302573 0)
(0.0967226 0.140256 6.09975e-19)
(0.00799247 0.440824 -7.01081e-19)
(0.0327771 1.88729 -3.8673e-19)
(0.0639541 2.80673 -5.09781e-19)
(0.236941 0.222705 -1.88784e-19)
(1.0088 0.963965 -4.94759e-19)
(1.16576 1.13183 1.27467e-19)
(1.16999 1.1597 9.24475e-20)
(1.11796 1.13668 0)
(1.04826 1.10105 1.09901e-19)
(0.973289 1.06383 2.29861e-19)
(0.889641 1.02422 -3.77308e-20)
(0.795798 0.978765 8.25183e-20)
(0.688711 0.922539 1.34631e-18)
(0.580856 0.857228 1.43694e-18)
(0.488121 0.788692 1.03823e-18)
(0.411923 0.712848 1.18036e-18)
(0.339513 0.61645 -1.27876e-18)
(0.254902 0.488473 -1.33034e-18)
(0.138363 0.334281 0)
(0.048764 0.834276 0)
(0.102026 2.55057 3.37082e-19)
(0.104642 3.19884 0)
(0.107084 3.38666 7.50104e-19)
(0.239989 0.228507 0)
(1.00296 0.986667 0)
(1.15555 1.15561 0)
(1.15858 1.18348 3.04298e-20)
(1.10679 1.16034 5.356e-20)
(1.03731 1.12485 5.25357e-20)
(0.962893 1.08795 1.47976e-19)
(0.878744 1.04878 -3.68568e-20)
(0.783946 1.00406 6.93299e-19)
(0.67484 0.949165 -1.89993e-20)
(0.563294 0.885706 2.83542e-18)
(0.464923 0.819418 -1.19192e-19)
(0.379722 0.742314 1.42858e-19)
(0.298069 0.631094 1.84565e-19)
(0.193835 0.505429 -3.98144e-21)
(0.107299 0.967129 3.48703e-21)
(0.143445 2.71421 -1.75965e-18)
(0.152141 3.29147 -6.58269e-19)
(0.140418 3.42611 3.35079e-19)
(0.126973 3.44824 -3.69363e-19)
(0.159207 0.180001 1.10346e-19)
(0.99258 1.01127 0)
(1.14501 1.17788 -2.65162e-19)
(1.14761 1.20585 -2.61044e-19)
(1.09636 1.18304 1.68634e-19)
(1.02729 1.14789 -4.41698e-20)
(0.952776 1.11101 -1.51886e-19)
(0.868319 1.07252 4.12583e-19)
(0.772704 1.02882 -5.65432e-19)
(0.661823 0.975742 0)
(0.546767 0.914866 1.38973e-18)
(0.442959 0.851726 -8.43664e-19)
(0.347328 0.777963 0)
(0.252418 0.648913 1.6536e-19)
(0.156631 0.797652 4.02044e-19)
(0.158057 2.48438 -4.79299e-19)
(0.217009 3.32389 5.31228e-19)
(0.196303 3.44031 2.89873e-19)
(0.162497 3.46167 3.22434e-19)
(0.140486 3.47178 5.21393e-19)
(0.280274 0.267293 -1.93183e-19)
(0.976458 1.02107 0)
(1.12653 1.20308 2.98041e-19)
(1.13287 1.23788 3.07586e-19)
(1.07961 1.21624 -2.11694e-19)
(1.0102 1.18175 -5.26367e-21)
(0.934882 1.14658 1.49027e-19)
(0.849947 1.10936 3.22391e-20)
(0.752927 1.0676 5.432e-19)
(0.639177 1.01796 1.16212e-18)
(0.518869 0.962695 7.87418e-20)
(0.405984 0.906026 7.49526e-19)
(0.290221 0.835142 1.32209e-19)
(0.216957 0.96774 -1.66928e-19)
(0.231343 2.33716 -3.78056e-19)
(0.291735 3.32826 3.59449e-19)
(0.275584 3.4709 -4.07936e-19)
(0.239791 3.49235 -2.38172e-19)
(0.202722 3.51934 -1.97097e-19)
(0.151805 3.51248 -1.89768e-20)
(0.269469 0.264876 0)
(0.974271 1.0441 9.16691e-20)
(1.11825 1.22647 -6.35845e-20)
(1.12254 1.26133 -3.88724e-20)
(1.06914 1.23946 -1.58757e-19)
(0.999922 1.20531 1.667e-20)
(0.92439 1.17046 -7.94127e-20)
(0.839296 1.13405 2.90681e-20)
(0.741762 1.0936 -5.6748e-19)
(0.626778 1.0465 -2.79315e-20)
(0.503952 0.995614 -2.51751e-18)
(0.386975 0.944071 1.06576e-19)
(0.279461 0.904408 -1.24516e-19)
(0.25612 1.49647 -1.55704e-19)
(0.329397 3.09958 3.4283e-20)
(0.350912 3.47005 1.78704e-21)
(0.309832 3.52544 6.07625e-19)
(0.272646 3.55092 3.00005e-19)
(0.223987 3.57369 -7.91247e-20)
(0.16632 3.5691 -9.24106e-20)
(0.253682 0.262904 2.3577e-19)
(0.970613 1.06969 6.354e-19)
(1.10948 1.25195 -1.84124e-19)
(1.11162 1.28616 -1.4751e-19)
(1.05814 1.26407 0)
(0.989222 1.23009 8.89083e-20)
(0.913745 1.19561 -8.49128e-20)
(0.828753 1.15996 2.56773e-20)
(0.731021 1.12089 -6.3013e-20)
(0.61533 1.07655 -1.05607e-18)
(0.490822 1.03041 -1.16359e-18)
(0.371477 0.984794 -8.75447e-19)
(0.28046 1.03643 -9.46822e-19)
(0.323741 2.19953 9.71314e-19)
(0.414546 3.38028 8.02799e-19)
(0.39431 3.52861 0)
(0.34783 3.57191 0)
(0.309622 3.61132 -6.45158e-20)
(0.258997 3.66974 0)
(0.178134 3.6456 -7.23381e-20)
(0.243118 0.264784 -3.60734e-19)
(0.964826 1.09616 -5.49559e-19)
(1.09929 1.27864 0)
(1.09936 1.31178 1.20473e-20)
(1.04589 1.2893 -1.94855e-19)
(0.977419 1.25541 1.7885e-19)
(0.90232 1.22132 -3.66069e-20)
(0.817633 1.18633 1.56828e-20)
(0.719947 1.14857 -4.05936e-19)
(0.603964 1.10695 5.32943e-20)