0.490941 	1.4277 	0.00555166 	3.00047 	-4.45003e-20
0.561075 	1.4277 	0.00555166 	3.00047 	-4.45003e-20
0.63121 	1.4277 	0.00555166 	3.00047 	-4.45003e-20
0.701344 	1.4277 	0.00555166 	3.00047 	-4.45003e-20
0.771478 	1.4277 	0.00555166 	3.00047 	-4.45003e-20
0.841613 	1.4277 	0.00555166 	3.00047 	-4.45003e-20
0.911747 	1.4277 	0.00555166 	3.00047 	-4.45003e-20
0.981881 	1.4277 	0.00555166 	3.00047 	-4.45003e-20
1.05202 	1.4277 	0.00555166 	3.00047 	-4.45003e-20
1.12215 	1.4277 	0.00555166 	3.00047 	-4.45003e-20
1.19228 	1.4277 	0.00555166 	3.00047 	-4.45003e-20
1.26242 	1.4277 	0.00555166 	3.00047 	-4.45003e-20
1.33255 	1.39068 	0.0137899 	3.01246 	-4.50697e-20
1.40269 	1.39068 	0.0137899 	3.01246 	-4.50697e-20
1.47282 	1.39068 	0.0137899 	3.01246 	-4.50697e-20
1.54296 	1.39068 	0.0137899 	3.01246 	-4.50697e-20
1.61309 	1.39068 	0.0137899 	3.01246 	-4.50697e-20
1.68323 	1.39068 	0.0137899 	3.01246 	-4.50697e-20
1.75336 	1.39068 	0.0137899 	3.01246 	-4.50697e-20
1.82349 	1.39068 	0.0137899 	3.01246 	-4.50697e-20
1.89363 	1.39068 	0.0137899 	3.01246 	-4.50697e-20
1.96376 	1.39068 	0.0137899 	3.01246 	-4.50697e-20
2.0339 	1.39068 	0.0137899 	3.01246 	-4.50697e-20
2.10403 	1.39068 	0.0137899 	3.01246 	-4.50697e-20
2.17417 	1.32964 	0.0157768 	3.03223 	9.34158e-20
2.2443 	1.32964 	0.0157768 	3.03223 	9.34158e-20
2.31443 	1.32964 	0.0157768 	3.03223 	9.34158e-20
2.38457 	1.32964 	0.0157768 	3.03223 	9.34158e-20
2.4547 	1.32964 	0.0157768 	3.03223 	9.34158e-20
2.52484 	1.32964 	0.0157768 	3.03223 	9.34158e-20
2.59497 	1.32964 	0.0157768 	3.03223 	9.34158e-20
2.66511 	1.32964 	0.0157768 	3.03223 	9.34158e-20
2.73524 	1.32964 	0.0157768 	3.03223 	9.34158e-20
2.80538 	1.32964 	0.0157768 	3.03223 	9.34158e-20
2.87551 	1.32964 	0.0157768 	3.03223 	9.34158e-20
2.94564 	1.32964 	0.0157768 	3.03223 	9.34158e-20
3.01578 	1.25488 	0.0161114 	3.05818 	-1.06749e-20
3.08591 	1.25488 	0.0161114 	3.05818 	-1.06749e-20
3.15605 	1.25488 	0.0161114 	3.05818 	-1.06749e-20
3.22618 	1.25488 	0.0161114 	3.05818 	-1.06749e-20
3.29632 	1.25488 	0.0161114 	3.05818 	-1.06749e-20
3.36645 	1.25488 	0.0161114 	3.05818 	-1.06749e-20
3.43659 	1.25488 	0.0161114 	3.05818 	-1.06749e-20
3.50672 	1.25488 	0.0161114 	3.05818 	-1.06749e-20
3.57685 	1.25488 	0.0161114 	3.05818 	-1.06749e-20
3.64699 	1.25488 	0.0161114 	3.05818 	-1.06749e-20
3.71712 	1.25488 	0.0161114 	3.05818 	-1.06749e-20
3.78726 	1.24823 	0.00385457 	3.05847 	2.09276e-20
3.85739 	1.17129 	0.000163018 	3.08005 	-1.50948e-19
3.92753 	1.17129 	0.000163018 	3.08005 	-1.50948e-19
3.99766 	1.17129 	0.000163018 	3.08005 	-1.50948e-19
4.06779 	1.17129 	0.000163018 	3.08005 	-1.50948e-19
4.13793 	1.17129 	0.000163018 	3.08005 	-1.50948e-19
4.20806 	1.17129 	0.000163018 	3.08005 	-1.50948e-19
4.2782 	1.17129 	0.000163018 	3.08005 	-1.50948e-19
4.34833 	1.17129 	0.000163018 	3.08005 	-1.50948e-19
4.41847 	1.17129 	0.000163018 	3.08005 	-1.50948e-19
4.4886 	1.17129 	0.000163018 	3.08005 	-1.50948e-19
4.55874 	1.17129 	0.000163018 	3.08005 	-1.50948e-19
4.62887 	1.17129 	0.000163018 	3.08005 	-1.50948e-19
4.699 	1.17129 	0.000163018 	3.08005 	-1.50948e-19
4.76914 	1.08617 	0.00242733 	3.10647 	2.90493e-19
4.83927 	1.08617 	0.00242733 	3.10647 	2.90493e-19
4.90941 	1.08617 	0.00242733 	3.10647 	2.90493e-19
4.97954 	1.08617 	0.00242733 	3.10647 	2.90493e-19
5.04968 	1.08617 	0.00242733 	3.10647 	2.90493e-19
5.11981 	1.08617 	0.00242733 	3.10647 	2.90493e-19
5.18994 	1.08617 	0.00242733 	3.10647 	2.90493e-19
5.26008 	1.08617 	0.00242733 	3.10647 	2.90493e-19
5.33021 	1.08617 	0.00242733 	3.10647 	2.90493e-19
5.40035 	1.08617 	0.00242733 	3.10647 	2.90493e-19
5.47048 	1.08617 	0.00242733 	3.10647 	2.90493e-19
5.54062 	1.08617 	0.00242733 	3.10647 	2.90493e-19
5.61075 	1.00197 	0.00400848 	3.13815 	-1.39277e-19
5.68089 	1.00197 	0.00400848 	3.13815 	-1.39277e-19
5.75102 	1.00197 	0.00400848 	3.13815 	-1.39277e-19
5.82115 	1.00197 	0.00400848 	3.13815 	-1.39277e-19
5.89129 	1.00197 	0.00400848 	3.13815 	-1.39277e-19
5.96142 	1.00197 	0.00400848 	3.13815 	-1.39277e-19
6.03156 	1.00197 	0.00400848 	3.13815 	-1.39277e-19
6.10169 	1.00197 	0.00400848 	3.13815 	-1.39277e-19
6.17183 	1.00197 	0.00400848 	3.13815 	-1.39277e-19
6.24196 	1.00197 	0.00400848 	3.13815 	-1.39277e-19
6.3121 	1.00197 	0.00400848 	3.13815 	-1.39277e-19
6.38223 	1.00197 	0.00400848 	3.13815 	-1.39277e-19
6.45236 	0.936362 	0.00650998 	3.15983 	0
6.5225 	0.936362 	0.00650998 	3.15983 	0
6.59263 	0.936362 	0.00650998 	3.15983 	0
6.66277 	0.936362 	0.00650998 	3.15983 	0
6.7329 	0.936362 	0.00650998 	3.15983 	0
6.80304 	0.936362 	0.00650998 	3.15983 	0
6.87317 	0.936362 	0.00650998 	3.15983 	0
6.9433 	0.936362 	0.00650998 	3.15983 	0
7.01344 	0.936362 	0.00650998 	3.15983 	0
7.08357 	0.936362 	0.00650998 	3.15983 	0
7.15371 	0.936362 	0.00650998 	3.15983 	0
7.22384 	0.936362 	0.00650998 	3.15983 	0
7.29398 	0.887093 	0.00428339 	3.1763 	0
7.36411 	0.887093 	0.00428339 	3.1763 	0
7.43425 	0.887093 	0.00428339 	3.1763 	0
7.50438 	0.887093 	0.00428339 	3.1763 	0
7.57451 	0.887093 	0.00428339 	3.1763 	0
7.64465 	0.887093 	0.00428339 	3.1763 	0
7.71478 	0.887093 	0.00428339 	3.1763 	0
7.78492 	0.887093 	0.00428339 	3.1763 	0
7.85505 	0.887093 	0.00428339 	3.1763 	0
7.92519 	0.887093 	0.00428339 	3.1763 	0
7.99532 	0.887093 	0.00428339 	3.1763 	0
8.06545 	0.887093 	0.00428339 	3.1763 	0
8.13559 	0.887093 	0.00428339 	3.1763 	0
8.20572 	0.828601 	0.00794284 	3.18834 	4.34345e-22
8.27586 	0.828601 	0.00794284 	3.18834 	4.34345e-22
8.34599 	0.828601 	0.00794284 	3.18834 	4.34345e-22
8.41613 	0.828601 	0.00794284 	3.18834 	4.34345e-22
8.48626 	0.828601 	0.00794284 	3.18834 	4.34345e-22
8.5564 	0.828601 	0.00794284 	3.18834 	4.34345e-22
8.62653 	0.828601 	0.00794284 	3.18834 	4.34345e-22
8.69666 	0.828601 	0.00794284 	3.18834 	4.34345e-22
8.7668 	0.828601 	0.00794284 	3.18834 	4.34345e-22
8.83693 	0.828601 	0.00794284 	3.18834 	4.34345e-22
8.90707 	0.828601 	0.00794284 	3.18834 	4.34345e-22
8.9772 	0.828601 	0.00794284 	3.18834 	4.34345e-22
9.04734 	0.755625 	0.00882614 	3.21341 	1.91281e-19
9.11747 	0.755625 	0.00882614 	3.21341 	1.91281e-19
9.18761 	0.755625 	0.00882614 	3.21341 	1.91281e-19
9.25774 	0.755625 	0.00882614 	3.21341 	1.91281e-19
9.32787 	0.755625 	0.00882614 	3.21341 	1.91281e-19
9.39801 	0.755625 	0.00882614 	3.21341 	1.91281e-19
9.46814 	0.755625 	0.00882614 	3.21341 	1.91281e-19
9.53828 	0.755625 	0.00882614 	3.21341 	1.91281e-19
9.60841 	0.755625 	0.00882614 	3.21341 	1.91281e-19
9.67855 	0.755625 	0.00882614 	3.21341 	1.91281e-19
9.74868 	0.755625 	0.00882614 	3.21341 	1.91281e-19
9.81881 	0.755625 	0.00882614 	3.21341 	1.91281e-19
9.88895 	0.755625 	0.00882614 	3.21341 	1.91281e-19
9.95908 	0.680664 	0.0249794 	3.22863 	-9.06291e-21
10.0292 	0.680664 	0.0249794 	3.22863 	-9.06291e-21
10.0994 	0.680664 	0.0249794 	3.22863 	-9.06291e-21
10.1695 	0.680664 	0.0249794 	3.22863 	-9.06291e-21
10.2396 	0.680664 	0.0249794 	3.22863 	-9.06291e-21
10.3098 	0.680664 	0.0249794 	3.22863 	-9.06291e-21
10.3799 	0.680664 	0.0249794 	3.22863 	-9.06291e-21
10.45 	0.680664 	0.0249794 	3.22863 	-9.06291e-21
10.5202 	0.680664 	0.0249794 	3.22863 	-9.06291e-21
10.5903 	0.680664 	0.0249794 	3.22863 	-9.06291e-21
10.6604 	0.680664 	0.0249794 	3.22863 	-9.06291e-21
10.7306 	0.680664 	0.0249794 	3.22863 	-9.06291e-21
10.8007 	0.606724 	0.0569568 	3.24068 	-1.80832e-19
10.8708 	0.606724 	0.0569568 	3.24068 	-1.80832e-19
10.941 	0.606724 	0.0569568 	3.24068 	-1.80832e-19
11.0111 	0.606724 	0.0569568 	3.24068 	-1.80832e-19
11.0812 	0.606724 	0.0569568 	3.24068 	-1.80832e-19
11.1514 	0.606724 	0.0569568 	3.24068 	-1.80832e-19
11.2215 	0.606724 	0.0569568 	3.24068 	-1.80832e-19
11.2916 	0.606724 	0.0569568 	3.24068 	-1.80832e-19
11.3618 	0.606724 	0.0569568 	3.24068 	-1.80832e-19
11.4319 	0.606724 	0.0569568 	3.24068 	-1.80832e-19
11.502 	0.606724 	0.0569568 	3.24068 	-1.80832e-19
11.5722 	0.606724 	0.0569568 	3.24068 	-1.80832e-19
11.6423 	0.606724 	0.0569568 	3.24068 	-1.80832e-19
11.7124 	0.514821 	0.100624 	3.26537 	-2.30662e-19
11.7826 	0.514821 	0.100624 	3.26537 	-2.30662e-19
11.8527 	0.514821 	0.100624 	3.26537 	-2.30662e-19
11.9228 	0.514821 	0.100624 	3.26537 	-2.30662e-19
11.993 	0.514821 	0.100624 	3.26537 	-2.30662e-19
12.0631 	0.514821 	0.100624 	3.26537 	-2.30662e-19
12.1332 	0.514821 	0.100624 	3.26537 	-2.30662e-19
12.2034 	0.514821 	0.100624 	3.26537 	-2.30662e-19
12.2735 	0.514821 	0.100624 	3.26537 	-2.30662e-19
12.3437 	0.514821 	0.100624 	3.26537 	-2.30662e-19
12.4138 	0.514821 	0.100624 	3.26537 	-2.30662e-19
12.4839 	0.514821 	0.100624 	3.26537 	-2.30662e-19
12.5541 	0.514821 	0.100624 	3.26537 	-2.30662e-19
12.6242 	0.377981 	0.159665 	3.28578 	3.73378e-19
12.6943 	0.377981 	0.159665 	3.28578 	3.73378e-19
12.7645 	0.377981 	0.159665 	3.28578 	3.73378e-19
12.8346 	0.377981 	0.159665 	3.28578 	3.73378e-19
12.9047 	0.377981 	0.159665 	3.28578 	3.73378e-19
12.9749 	0.377981 	0.159665 	3.28578 	3.73378e-19
13.045 	0.377981 	0.159665 	3.28578 	3.73378e-19
13.1151 	0.377981 	0.159665 	3.28578 	3.73378e-19
13.1853 	0.377981 	0.159665 	3.28578 	3.73378e-19
13.2554 	0.377981 	0.159665 	3.28578 	3.73378e-19
13.3255 	0.377981 	0.159665 	3.28578 	3.73378e-19
13.3957 	0.377981 	0.159665 	3.28578 	3.73378e-19
13.4658 	0.377981 	0.159665 	3.28578 	3.73378e-19
13.5359 	0.135745 	0.276482 	3.36258 	-1.37125e-19
13.6061 	0.135745 	0.276482 	3.36258 	-1.37125e-19
13.6762 	0.135745 	0.276482 	3.36258 	-1.37125e-19
13.7463 	0.135745 	0.276482 	3.36258 	-1.37125e-19
13.8165 	0.135745 	0.276482 	3.36258 	-1.37125e-19
13.8866 	0.135745 	0.276482 	3.36258 	-1.37125e-19
13.9567 	0.135745 	0.276482 	3.36258 	-1.37125e-19
14.0269 	0.135745 	0.276482 	3.36258 	-1.37125e-19
14.097 	0.135745 	0.276482 	3.36258 	-1.37125e-19
14.1671 	0.135745 	0.276482 	3.36258 	-1.37125e-19
14.2373 	0.135745 	0.276482 	3.36258 	-1.37125e-19
14.3074 	0.135745 	0.276482 	3.36258 	-1.37125e-19
14.3776 	-0.140792 	0.290479 	3.44202 	0
14.4477 	-0.474198 	0.208215 	3.51316 	-5.00242e-19
14.5178 	-0.474198 	0.208215 	3.51316 	-5.00242e-19
14.588 	-0.474198 	0.208215 	3.51316 	-5.00242e-19
14.6581 	-0.474198 	0.208215 	3.51316 	-5.00242e-19
14.7282 	-0.474198 	0.208215 	3.51316 	-5.00242e-19
14.7984 	-0.474198 	0.208215 	3.51316 	-5.00242e-19
14.8685 	-0.544633 	0.253663 	3.55731 	1.20004e-18
14.9386 	-0.544633 	0.253663 	3.55731 	1.20004e-18
15.0088 	-0.544633 	0.253663 	3.55731 	1.20004e-18
15.0789 	-0.544633 	0.253663 	3.55731 	1.20004e-18
15.149 	-0.544633 	0.253663 	3.55731 	1.20004e-18
15.2192 	-0.85907 	0.260837 	3.59741 	-1.50384e-18
15.2893 	-0.85907 	0.260837 	3.59741 	-1.50384e-18
15.3594 	-0.85907 	0.260837 	3.59741 	-1.50384e-18
15.4296 	-0.810746 	0.310772 	3.58143 	3.33243e-19
15.4997 	-0.810746 	0.310772 	3.58143 	3.33243e-19
15.5698 	-0.810746 	0.310772 	3.58143 	3.33243e-19
15.64 	-0.810746 	0.310772 	3.58143 	3.33243e-19
15.7101 	-0.810746 	0.310772 	3.58143 	3.33243e-19
15.7802 	-0.810746 	0.310772 	3.58143 	3.33243e-19
15.8504 	-0.810746 	0.310772 	3.58143 	3.33243e-19
15.9205 	-1.04897 	0.321731 	3.60538 	8.50542e-20
15.9906 	-1.04897 	0.321731 	3.60538 	8.50542e-20
16.0608 	-1.04897 	0.321731 	3.60538 	8.50542e-20
16.1309 	-0.909681 	0.314558 	3.56367 	-4.4518e-19
16.201 	-0.909681 	0.314558 	3.56367 	-4.4518e-19
16.2712 	-0.909681 	0.314558 	3.56367 	-4.4518e-19
16.3413 	-0.909681 	0.314558 	3.56367 	-4.4518e-19
16.4114 	-0.909681 	0.314558 	3.56367 	-4.4518e-19
16.4816 	-0.909681 	0.314558 	3.56367 	-4.4518e-19
16.5517 	-0.909681 	0.314558 	3.56367 	-4.4518e-19
16.6219 	-1.04204 	0.372909 	3.54613 	0
16.692 	-1.04204 	0.372909 	3.54613 	0
16.7621 	-1.04204 	0.372909 	3.54613 	0
16.8323 	-1.04204 	0.372909 	3.54613 	0
16.9024 	-1.04204 	0.372909 	3.54613 	0
16.9725 	-0.80317 	0.304966 	3.44455 	-3.46804e-19
17.0427 	-0.80317 	0.304966 	3.44455 	-3.46804e-19
17.1128 	-0.80317 	0.304966 	3.44455 	-3.46804e-19
17.1829 	-0.80317 	0.304966 	3.44455 	-3.46804e-19
17.2531 	-0.802868 	0.410949 	3.39944 	-7.51549e-19
17.3232 	-0.802868 	0.410949 	3.39944 	-7.51549e-19
17.3933 	-0.802868 	0.410949 	3.39944 	-7.51549e-19
17.4635 	-0.802868 	0.410949 	3.39944 	-7.51549e-19
17.5336 	-0.802868 	0.410949 	3.39944 	-7.51549e-19
17.6037 	-0.802868 	0.410949 	3.39944 	-7.51549e-19
17.6739 	-0.802868 	0.410949 	3.39944 	-7.51549e-19
17.744 	-0.802868 	0.410949 	3.39944 	-7.51549e-19
17.8141 	-0.802868 	0.410949 	3.39944 	-7.51549e-19
17.8843 	-0.802868 	0.410949 	3.39944 	-7.51549e-19
17.9544 	-0.377491 	0.361773 	3.14533 	0
18.0245 	-0.377491 	0.361773 	3.14533 	0
18.0947 	-0.377491 	0.361773 	3.14533 	0
18.1648 	-0.377491 	0.361773 	3.14533 	0
18.2349 	-0.377491 	0.361773 	3.14533 	0
18.3051 	-0.377491 	0.361773 	3.14533 	0
18.3752 	-0.377491 	0.361773 	3.14533 	0
18.4453 	-0.377491 	0.361773 	3.14533 	0
18.5155 	-0.377491 	0.361773 	3.14533 	0
18.5856 	-0.265793 	0.488392 	3.01259 	0
18.6557 	-0.265793 	0.488392 	3.01259 	0
18.7259 	-0.265793 	0.488392 	3.01259 	0
18.796 	-0.265793 	0.488392 	3.01259 	0
18.8662 	-0.265793 	0.488392 	3.01259 	0
18.9363 	-0.265793 	0.488392 	3.01259 	0
19.0064 	-0.265793 	0.488392 	3.01259 	0
19.0766 	-0.265793 	0.488392 	3.01259 	0
19.1467 	-0.265793 	0.488392 	3.01259 	0
19.2168 	-0.133485 	0.646467 	2.85968 	6.77085e-20
19.287 	0.246798 	0.353546 	2.60692 	-1.43115e-20
19.3571 	0.246798 	0.353546 	2.60692 	-1.43115e-20
19.4272 	0.246798 	0.353546 	2.60692 	-1.43115e-20
19.4974 	0.246798 	0.353546 	2.60692 	-1.43115e-20
19.5675 	0.246798 	0.353546 	2.60692 	-1.43115e-20
19.6376 	0.246798 	0.353546 	2.60692 	-1.43115e-20
19.7078 	0.246798 	0.353546 	2.60692 	-1.43115e-20
19.7779 	0.246798 	0.353546 	2.60692 	-1.43115e-20
19.848 	0.246798 	0.353546 	2.60692 	-1.43115e-20
19.9182 	0.324882 	0.503273 	2.47546 	-3.74114e-19
19.9883 	0.324882 	0.503273 	2.47546 	-3.74114e-19
20.0584 	0.324882 	0.503273 	2.47546 	-3.74114e-19
20.1286 	0.324882 	0.503273 	2.47546 	-3.74114e-19
20.1987 	0.324882 	0.503273 	2.47546 	-3.74114e-19
20.2688 	0.324882 	0.503273 	2.47546 	-3.74114e-19
20.339 	0.324882 	0.503273 	2.47546 	-3.74114e-19
20.4091 	0.324882 	0.503273 	2.47546 	-3.74114e-19
20.4792 	0.324882 	0.503273 	2.47546 	-3.74114e-19
20.5494 	0.324882 	0.503273 	2.47546 	-3.74114e-19
20.6195 	0.392655 	0.625764 	2.32884 	-1.16932e-19
20.6896 	0.392655 	0.625764 	2.32884 	-1.16932e-19
20.7598 	0.392655 	0.625764 	2.32884 	-1.16932e-19
20.8299 	0.392655 	0.625764 	2.32884 	-1.16932e-19
20.9 	0.541964 	0.410894 	2.09321 	-5.72971e-19
20.9702 	0.541964 	0.410894 	2.09321 	-5.72971e-19
21.0403 	0.541964 	0.410894 	2.09321 	-5.72971e-19
21.1105 	0.541964 	0.410894 	2.09321 	-5.72971e-19
21.1806 	0.541964 	0.410894 	2.09321 	-5.72971e-19
21.2507 	0.541964 	0.410894 	2.09321 	-5.72971e-19
21.3209 	0.560687 	0.520613 	2.01241 	0
21.391 	0.560687 	0.520613 	2.01241 	0
21.4611 	0.560687 	0.520613 	2.01241 	0
21.5313 	0.560687 	0.520613 	2.01241 	0
21.6014 	0.560687 	0.520613 	2.01241 	0
21.6715 	0.560687 	0.520613 	2.01241 	0
21.7417 	0.560687 	0.520613 	2.01241 	0
21.8118 	0.560687 	0.520613 	2.01241 	0
21.8819 	0.560687 	0.520613 	2.01241 	0
21.9521 	0.560687 	0.520613 	2.01241 	0
22.0222 	0.560687 	0.520613 	2.01241 	0
22.0923 	0.584092 	0.597292 	1.91669 	-4.3274e-19
22.1625 	0.584092 	0.597292 	1.91669 	-4.3274e-19
22.2326 	0.584092 	0.597292 	1.91669 	-4.3274e-19
22.3027 	0.584092 	0.597292 	1.91669 	-4.3274e-19
22.3729 	0.584092 	0.597292 	1.91669 	-4.3274e-19
22.443 	0.584092 	0.597292 	1.91669 	-4.3274e-19
22.5131 	0.584092 	0.597292 	1.91669 	-4.3274e-19
22.5833 	0.584092 	0.597292 	1.91669 	-4.3274e-19
22.6534 	0.584092 	0.597292 	1.91669 	-4.3274e-19
22.7235 	0.584092 	0.597292 	1.91669 	-4.3274e-19
22.7937 	0.584092 	0.597292 	1.91669 	-4.3274e-19
22.8638 	0.608921 	0.633566 	1.82467 	9.24692e-19
22.9339 	0.608921 	0.633566 	1.82467 	9.24692e-19
23.0041 	0.608921 	0.633566 	1.82467 	9.24692e-19
23.0742 	0.580224 	0.533133 	1.76407 	2.26874e-19
23.1443 	0.580224 	0.533133 	1.76407 	2.26874e-19
23.2145 	0.580224 	0.533133 	1.76407 	2.26874e-19
23.2846 	0.580224 	0.533133 	1.76407 	2.26874e-19
23.3548 	0.580224 	0.533133 	1.76407 	2.26874e-19
23.4249 	0.580224 	0.533133 	1.76407 	2.26874e-19
23.495 	0.580224 	0.533133 	1.76407 	2.26874e-19
23.5652 	0.580224 	0.533133 	1.76407 	2.26874e-19
23.6353 	0.580224 	0.533133 	1.76407 	2.26874e-19
23.7054 	0.581706 	0.558059 	1.72441 	-1.0214e-19
23.7756 	0.581706 	0.558059 	1.72441 	-1.0214e-19
23.8457 	0.581706 	0.558059 	1.72441 	-1.0214e-19
23.9158 	0.581706 	0.558059 	1.72441 	-1.0214e-19
23.986 	0.581706 	0.558059 	1.72441 	-1.0214e-19
24.0561 	0.581706 	0.558059 	1.72441 	-1.0214e-19
24.1262 	0.581706 	0.558059 	1.72441 	-1.0214e-19
24.1964 	0.581706 	0.558059 	1.72441 	-1.0214e-19
24.2665 	0.581706 	0.558059 	1.72441 	-1.0214e-19
24.3366 	0.581706 	0.558059 	1.72441 	-1.0214e-19
24.4068 	0.581706 	0.558059 	1.72441 	-1.0214e-19
24.4769 	0.581706 	0.558059 	1.72441 	-1.0214e-19
24.547 	0.581706 	0.558059 	1.72441 	-1.0214e-19
24.6172 	0.583414 	0.567159 	1.69039 	8.10056e-19
24.6873 	0.583414 	0.567159 	1.69039 	8.10056e-19
24.7574 	0.583414 	0.567159 	1.69039 	8.10056e-19
24.8276 	0.583414 	0.567159 	1.69039 	8.10056e-19
24.8977 	0.583414 	0.567159 	1.69039 	8.10056e-19
24.9678 	0.583414 	0.567159 	1.69039 	8.10056e-19
25.038 	0.583414 	0.567159 	1.69039 	8.10056e-19
25.1081 	0.583414 	0.567159 	1.69039 	8.10056e-19
25.1782 	0.583414 	0.567159 	1.69039 	8.10056e-19
25.2484 	0.583414 	0.567159 	1.69039 	8.10056e-19
25.3185 	0.583414 	0.567159 	1.69039 	8.10056e-19
25.3886 	0.583414 	0.567159 	1.69039 	8.10056e-19
25.4588 	0.58326 	0.560269 	1.66275 	-7.32646e-19
25.5289 	0.58326 	0.560269 	1.66275 	-7.32646e-19
25.5991 	0.58326 	0.560269 	1.66275 	-7.32646e-19
25.6692 	0.58326 	0.560269 	1.66275 	-7.32646e-19
25.7393 	0.58326 	0.560269 	1.66275 	-7.32646e-19
25.8095 	0.58326 	0.560269 	1.66275 	-7.32646e-19
25.8796 	0.58326 	0.560269 	1.66275 	-7.32646e-19
25.9497 	0.58326 	0.560269 	1.66275 	-7.32646e-19
26.0199 	0.58326 	0.560269 	1.66275 	-7.32646e-19
26.09 	0.483343 	0.537501 	1.67558 	-1.19544e-19
26.1601 	0.483343 	0.537501 	1.67558 	-1.19544e-19
26.2303 	0.483343 	0.537501 	1.67558 	-1.19544e-19
26.3004 	0.483343 	0.537501 	1.67558 	-1.19544e-19
26.3705 	0.483343 	0.537501 	1.67558 	-1.19544e-19
26.4407 	0.474302 	0.530578 	1.67087 	1.03675e-19
26.5108 	0.474302 	0.530578 	1.67087 	1.03675e-19
26.5809 	0.474302 	0.530578 	1.67087 	1.03675e-19
26.6511 	0.474302 	0.530578 	1.67087 	1.03675e-19
26.7212 	0.474302 	0.530578 	1.67087 	1.03675e-19
26.7913 	0.474302 	0.530578 	1.67087 	1.03675e-19
26.8615 	0.474302 	0.530578 	1.67087 	1.03675e-19
26.9316 	0.474302 	0.530578 	1.67087 	1.03675e-19
27.0017 	0.474302 	0.530578 	1.67087 	1.03675e-19
27.0719 	0.474302 	0.530578 	1.67087 	1.03675e-19
27.142 	0.474302 	0.530578 	1.67087 	1.03675e-19
27.2121 	0.474302 	0.530578 	1.67087 	1.03675e-19
27.2823 	0.474302 	0.530578 	1.67087 	1.03675e-19
27.3524 	0.46638 	0.51162 	1.66954 	0
27.4225 	0.46638 	0.51162 	1.66954 	0
27.4927 	0.46638 	0.51162 	1.66954 	0
27.5628 	0.46638 	0.51162 	1.66954 	0
27.6329 	0.46638 	0.51162 	1.66954 	0
27.7031 	0.46638 	0.51162 	1.66954 	0
27.7732 	0.46638 	0.51162 	1.66954 	0
27.8434 	0.46638 	0.51162 	1.66954 	0
27.9135 	0.46638 	0.51162 	1.66954 	0
27.9836 	0.46638 	0.51162 	1.66954 	0
28.0538 	0.46638 	0.51162 	1.66954 	0
28.1239 	0.46638 	0.51162 	1.66954 	0
28.194 	0.46638 	0.51162 	1.66954 	0
28.2642 	0.46638 	0.51162 	1.66954 	0
28.3343 	0.46638 	0.51162 	1.66954 	0
28.4044 	0.457077 	0.481976 	1.67227 	0
28.4746 	0.457077 	0.481976 	1.67227 	0
28.5447 	0.457077 	0.481976 	1.67227 	0
28.6148 	0.457077 	0.481976 	1.67227 	0
28.685 	0.457077 	0.481976 	1.67227 	0
28.7551 	0.457077 	0.481976 	1.67227 	0
28.8252 	0.457077 	0.481976 	1.67227 	0
28.8954 	0.457077 	0.481976 	1.67227 	0
28.9655 	0.457077 	0.481976 	1.67227 	0
29.0356 	0.457077 	0.481976 	1.67227 	0
29.1058 	0.457077 	0.481976 	1.67227 	0
29.1759 	0.457077 	0.481976 	1.67227 	0
29.246 	0.457077 	0.481976 	1.67227 	0
29.3162 	0.457077 	0.481976 	1.67227 	0
29.3863 	0.457077 	0.481976 	1.67227 	0
29.4564 	0.445576 	0.445824 	1.67747 	1.85888e-19
29.5266 	0.445576 	0.445824 	1.67747 	1.85888e-19
29.5967 	0.445576 	0.445824 	1.67747 	1.85888e-19
29.6668 	0.445576 	0.445824 	1.67747 	1.85888e-19
29.737 	0.445576 	0.445824 	1.67747 	1.85888e-19
29.8071 	0.445576 	0.445824 	1.67747 	1.85888e-19
29.8773 	0.445576 	0.445824 	1.67747 	1.85888e-19
29.9474 	0.445576 	0.445824 	1.67747 	1.85888e-19
30.0175 	0.445576 	0.445824 	1.67747 	1.85888e-19
30.0877 	0.445576 	0.445824 	1.67747 	1.85888e-19
30.1578 	0.445576 	0.445824 	1.67747 	1.85888e-19
30.2279 	0.445576 	0.445824 	1.67747 	1.85888e-19
30.2981 	0.445576 	0.445824 	1.67747 	1.85888e-19
30.3682 	0.445576 	0.445824 	1.67747 	1.85888e-19
30.4383 	0.445576 	0.445824 	1.67747 	1.85888e-19
30.5085 	0.445576 	0.445824 	1.67747 	1.85888e-19
30.5786 	0.431702 	0.40392 	1.68536 	2.00038e-20
30.6487 	0.431702 	0.40392 	1.68536 	2.00038e-20
30.7189 	0.431702 	0.40392 	1.68536 	2.00038e-20
30.789 	0.431702 	0.40392 	1.68536 	2.00038e-20
30.8591 	0.431702 	0.40392 	1.68536 	2.00038e-20
30.9293 	0.431702 	0.40392 	1.68536 	2.00038e-20
30.9994 	0.431702 	0.40392 	1.68536 	2.00038e-20
31.0695 	0.431702 	0.40392 	1.68536 	2.00038e-20
31.1397 	0.431702 	0.40392 	1.68536 	2.00038e-20
31.2098 	0.431702 	0.40392 	1.68536 	2.00038e-20
31.2799 	0.431702 	0.40392 	1.68536 	2.00038e-20
31.3501 	0.431702 	0.40392 	1.68536 	2.00038e-20
31.4202 	0.431702 	0.40392 	1.68536 	2.00038e-20
31.4903 	0.431702 	0.40392 	1.68536 	2.00038e-20
31.5605 	0.294327 	0.419077 	1.7443 	1.97903e-19
31.6306 	0.294327 	0.419077 	1.7443 	1.97903e-19
31.7007 	0.280653 	0.373526 	1.75708 	-1.28026e-19
31.7709 	0.280653 	0.373526 	1.75708 	-1.28026e-19
31.841 	0.280653 	0.373526 	1.75708 	-1.28026e-19
31.9111 	0.280653 	0.373526 	1.75708 	-1.28026e-19
31.9813 	0.280653 	0.373526 	1.75708 	-1.28026e-19
32.0514 	0.280653 	0.373526 	1.75708 	-1.28026e-19
32.1216 	0.280653 	0.373526 	1.75708 	-1.28026e-19
32.1917 	0.280653 	0.373526 	1.75708 	-1.28026e-19
32.2618 	0.280653 	0.373526 	1.75708 	-1.28026e-19
32.332 	0.280653 	0.373526 	1.75708 	-1.28026e-19
32.4021 	0.280653 	0.373526 	1.75708 	-1.28026e-19
32.4722 	0.280653 	0.373526 	1.75708 	-1.28026e-19
32.5424 	0.280653 	0.373526 	1.75708 	-1.28026e-19
32.6125 	0.280653 	0.373526 	1.75708 	-1.28026e-19
32.6826 	0.280653 	0.373526 	1.75708 	-1.28026e-19
32.7528 	0.280653 	0.373526 	1.75708 	-1.28026e-19
32.8229 	0.280653 	0.373526 	1.75708 	-1.28026e-19
32.893 	0.280653 	0.373526 	1.75708 	-1.28026e-19
32.9632 	0.265535 	0.323913 	1.76931 	-2.011e-20
33.0333 	0.265535 	0.323913 	1.76931 	-2.011e-20
33.1034 	0.265535 	0.323913 	1.76931 	-2.011e-20
33.1736 	0.265535 	0.323913 	1.76931 	-2.011e-20
33.2437 	0.265535 	0.323913 	1.76931 	-2.011e-20
33.3138 	0.265535 	0.323913 	1.76931 	-2.011e-20
33.384 	0.265535 	0.323913 	1.76931 	-2.011e-20
33.4541 	0.265535 	0.323913 	1.76931 	-2.011e-20
33.5242 	0.265535 	0.323913 	1.76931 	-2.011e-20
33.5944 	0.265535 	0.323913 	1.76931 	-2.011e-20
33.6645 	0.265535 	0.323913 	1.76931 	-2.011e-20
33.7346 	0.265535 	0.323913 	1.76931 	-2.011e-20
33.8048 	0.265535 	0.323913 	1.76931 	-2.011e-20
33.8749 	0.265535 	0.323913 	1.76931 	-2.011e-20
33.945 	0.265535 	0.323913 	1.76931 	-2.011e-20
34.0152 	0.265535 	0.323913 	1.76931 	-2.011e-20
34.0853 	0.265535 	0.323913 	1.76931 	-2.011e-20
34.1554 	0.265535 	0.323913 	1.76931 	-2.011e-20
34.2256 	0.248758 	0.271303 	1.78152 	2.64804e-20
34.2957 	0.248758 	0.271303 	1.78152 	2.64804e-20
34.3659 	0.248758 	0.271303 	1.78152 	2.64804e-20
34.436 	0.248758 	0.271303 	1.78152 	2.64804e-20
34.5061 	0.248758 	0.271303 	1.78152 	2.64804e-20
34.5763 	0.248758 	0.271303 	1.78152 	2.64804e-20
34.6464 	0.248758 	0.271303 	1.78152 	2.64804e-20
34.7165 	0.248758 	0.271303 	1.78152 	2.64804e-20
34.7867 	0.248758 	0.271303 	1.78152 	2.64804e-20
34.8568 	0.248758 	0.271303 	1.78152 	2.64804e-20
34.9269 	0.248758 	0.271303 	1.78152 	2.64804e-20
34.9971 	0.248758 	0.271303 	1.78152 	2.64804e-20
35.0672 	0.248758 	0.271303 	1.78152 	2.64804e-20
35.1373 	0.248758 	0.271303 	1.78152 	2.64804e-20
35.2075 	0.248758 	0.271303 	1.78152 	2.64804e-20
35.2776 	0.248758 	0.271303 	1.78152 	2.64804e-20
35.3477 	0.248758 	0.271303 	1.78152 	2.64804e-20
35.4179 	0.248758 	0.271303 	1.78152 	2.64804e-20
35.488 	0.248758 	0.271303 	1.78152 	2.64804e-20
35.5581 	0.248758 	0.271303 	1.78152 	2.64804e-20
35.6283 	0.230861 	0.218782 	1.79122 	3.43914e-21
35.6984 	0.230861 	0.218782 	1.79122 	3.43914e-21
35.7685 	0.230861 	0.218782 	1.79122 	3.43914e-21
35.8387 	0.230861 	0.218782 	1.79122 	3.43914e-21
35.9088 	0.230861 	0.218782 	1.79122 	3.43914e-21
35.9789 	0.230861 	0.218782 	1.79122 	3.43914e-21
36.0491 	0.230861 	0.218782 	1.79122 	3.43914e-21
36.1192 	0.230861 	0.218782 	1.79122 	3.43914e-21
36.1893 	0.230861 	0.218782 	1.79122 	3.43914e-21
36.2595 	0.230861 	0.218782 	1.79122 	3.43914e-21
36.3296 	0.230861 	0.218782 	1.79122 	3.43914e-21
36.3997 	0.230861 	0.218782 	1.79122 	3.43914e-21
36.4699 	0.230861 	0.218782 	1.79122 	3.43914e-21
36.54 	0.230861 	0.218782 	1.79122 	3.43914e-21
36.6102 	0.230861 	0.218782 	1.79122 	3.43914e-21
36.6803 	0.230861 	0.218782 	1.79122 	3.43914e-21
36.7504 	0.230861 	0.218782 	1.79122 	3.43914e-21
36.8206 	0.230861 	0.218782 	1.79122 	3.43914e-21
36.8907 	0.230861 	0.218782 	1.79122 	3.43914e-21
36.9608 	0.230861 	0.218782 	1.79122 	3.43914e-21
37.031 	0.230861 	0.218782 	1.79122 	3.43914e-21
37.1011 	0.214363 	0.173964 	1.79839 	0
37.1712 	0.214363 	0.173964 	1.79839 	0
37.2414 	0.214363 	0.173964 	1.79839 	0
37.3115 	0.214363 	0.173964 	1.79839 	0
37.3816 	0.214363 	0.173964 	1.79839 	0
37.4518 	0.214363 	0.173964 	1.79839 	0
37.5219 	0.214363 	0.173964 	1.79839 	0
37.592 	0.214363 	0.173964 	1.79839 	0
37.6622 	0.214363 	0.173964 	1.79839 	0
37.7323 	0.214363 	0.173964 	1.79839 	0
37.8024 	0.214363 	0.173964 	1.79839 	0
37.8726 	0.214363 	0.173964 	1.79839 	0
37.9427 	0.214363 	0.173964 	1.79839 	0
38.0128 	0.214363 	0.173964 	1.79839 	0
38.083 	0.214363 	0.173964 	1.79839 	0
38.1531 	0.214363 	0.173964 	1.79839 	0
38.2232 	0.214363 	0.173964 	1.79839 	0
38.2934 	0.201362 	0.137711 	1.80295 	0
38.3635 	0.201362 	0.137711 	1.80295 	0
38.4336 	0.201362 	0.137711 	1.80295 	0
38.5038 	0.201362 	0.137711 	1.80295 	0
38.5739 	0.201362 	0.137711 	1.80295 	0
38.644 	0.201362 	0.137711 	1.80295 	0
38.7142 	0.201362 	0.137711 	1.80295 	0
38.7843 	0.201362 	0.137711 	1.80295 	0
38.8545 	0.201362 	0.137711 	1.80295 	0
38.9246 	0.201362 	0.137711 	1.80295 	0
38.9947 	0.201362 	0.137711 	1.80295 	0
39.0649 	0.201362 	0.137711 	1.80295 	0
39.135 	0.201362 	0.137711 	1.80295 	0
39.2051 	0.201362 	0.137711 	1.80295 	0
39.2753 	0.201362 	0.137711 	1.80295 	0
39.3454 	0.201362 	0.137711 	1.80295 	0
39.4155 	0.201362 	0.137711 	1.80295 	0
39.4857 	0.201362 	0.137711 	1.80295 	0
39.5558 	0.191946 	0.107371 	1.80387 	0
39.6259 	0.191946 	0.107371 	1.80387 	0
39.6961 	0.191946 	0.107371 	1.80387 	0
39.7662 	0.191946 	0.107371 	1.80387 	0
39.8363 	0.191946 	0.107371 	1.80387 	0
39.9065 	0.191946 	0.107371 	1.80387 	0
39.9766 	0.191946 	0.107371 	1.80387 	0
40.0467 	0.191946 	0.107371 	1.80387 	0
40.1169 	0.191946 	0.107371 	1.80387 	0
40.187 	0.191946 	0.107371 	1.80387 	0
40.2571 	0.191946 	0.107371 	1.80387 	0
40.3273 	0.191946 	0.107371 	1.80387 	0
40.3974 	0.191946 	0.107371 	1.80387 	0
40.4675 	0.191946 	0.107371 	1.80387 	0
40.5377 	0.191946 	0.107371 	1.80387 	0
40.6078 	0.191946 	0.107371 	1.80387 	0
40.6779 	0.191946 	0.107371 	1.80387 	0
40.7481 	0.185607 	0.0834154 	1.80214 	0
40.8182 	0.185607 	0.0834154 	1.80214 	0
40.8883 	0.185607 	0.0834154 	1.80214 	0
40.9585 	0.185607 	0.0834154 	1.80214 	0
41.0286 	0.185607 	0.0834154 	1.80214 	0
41.0988 	0.185607 	0.0834154 	1.80214 	0
41.1689 	0.185607 	0.0834154 	1.80214 	0
41.239 	0.185607 	0.0834154 	1.80214 	0
41.3092 	0.185607 	0.0834154 	1.80214 	0
41.3793 	0.185607 	0.0834154 	1.80214 	0
41.4494 	0.185607 	0.0834154 	1.80214 	0
41.5196 	0.185607 	0.0834154 	1.80214 	0
41.5897 	0.185607 	0.0834154 	1.80214 	0
41.6598 	0.185607 	0.0834154 	1.80214 	0
41.73 	0.185607 	0.0834154 	1.80214 	0
41.8001 	0.185607 	0.0834154 	1.80214 	0
41.8702 	0.185607 	0.0834154 	1.80214 	0
41.9404 	0.185607 	0.0834154 	1.80214 	0
42.0105 	0.179936 	0.0650181 	1.80013 	0
42.0806 	0.179936 	0.0650181 	1.80013 	0
42.1508 	0.179936 	0.0650181 	1.80013 	0
42.2209 	0.179936 	0.0650181 	1.80013 	0
42.291 	0.179936 	0.0650181 	1.80013 	0
42.3612 	0.179936 	0.0650181 	1.80013 	0
42.4313 	0.179936 	0.0650181 	1.80013 	0
42.5014 	0.179936 	0.0650181 	1.80013 	0
42.5716 	0.179936 	0.0650181 	1.80013 	0
42.6417 	0.179936 	0.0650181 	1.80013 	0
42.7118 	0.179936 	0.0650181 	1.80013 	0
42.782 	0.179936 	0.0650181 	1.80013 	0
42.8521 	0.179936 	0.0650181 	1.80013 	0
42.9222 	0.179936 	0.0650181 	1.80013 	0
42.9924 	0.179936 	0.0650181 	1.80013 	0
43.0625 	0.179936 	0.0650181 	1.80013 	0
43.1327 	0.179936 	0.0650181 	1.80013 	0
43.2028 	0.173601 	0.0507237 	1.79857 	0
43.2729 	0.173601 	0.0507237 	1.79857 	0
43.3431 	0.173601 	0.0507237 	1.79857 	0
43.4132 	0.173601 	0.0507237 	1.79857 	0
43.4833 	0.173601 	0.0507237 	1.79857 	0
43.5535 	0.173601 	0.0507237 	1.79857 	0
43.6236 	0.173601 	0.0507237 	1.79857 	0
43.6937 	0.173601 	0.0507237 	1.79857 	0
43.7639 	0.173601 	0.0507237 	1.79857 	0
43.834 	0.173601 	0.0507237 	1.79857 	0
43.9041 	0.173601 	0.0507237 	1.79857 	0
43.9743 	0.173601 	0.0507237 	1.79857 	0
44.0444 	0.173601 	0.0507237 	1.79857 	0
44.1145 	0.173601 	0.0507237 	1.79857 	0
44.1847 	0.173601 	0.0507237 	1.79857 	0
44.2548 	0.173601 	0.0507237 	1.79857 	0
44.3249 	0.173601 	0.0507237 	1.79857 	0
44.3951 	0.173601 	0.0507237 	1.79857 	0
44.4652 	0.166742 	0.0394751 	1.79718 	0
44.5353 	0.166742 	0.0394751 	1.79718 	0
44.6055 	0.166742 	0.0394751 	1.79718 	0
44.6756 	0.166742 	0.0394751 	1.79718 	0
44.7457 	0.166742 	0.0394751 	1.79718 	0
44.8159 	0.166742 	0.0394751 	1.79718 	0