0.490941 	0.815773 	0.00775377 	2.98937 	-2.30849e-20
0.561075 	0.815773 	0.00775377 	2.98937 	-2.30849e-20
0.63121 	0.815773 	0.00775377 	2.98937 	-2.30849e-20
0.701344 	0.815773 	0.00775377 	2.98937 	-2.30849e-20
0.771478 	0.815773 	0.00775377 	2.98937 	-2.30849e-20
0.841613 	0.815773 	0.00775377 	2.98937 	-2.30849e-20
0.911747 	0.815773 	0.00775377 	2.98937 	-2.30849e-20
0.981881 	0.815773 	0.00775377 	2.98937 	-2.30849e-20
1.05202 	0.815773 	0.00775377 	2.98937 	-2.30849e-20
1.12215 	0.815773 	0.00775377 	2.98937 	-2.30849e-20
1.19228 	0.815773 	0.00775377 	2.98937 	-2.30849e-20
1.26242 	0.815773 	0.00775377 	2.98937 	-2.30849e-20
1.33255 	0.766234 	0.0031392 	2.99401 	-1.79341e-20
1.40269 	0.766234 	0.0031392 	2.99401 	-1.79341e-20
1.47282 	0.766234 	0.0031392 	2.99401 	-1.79341e-20
1.54296 	0.766234 	0.0031392 	2.99401 	-1.79341e-20
1.61309 	0.766234 	0.0031392 	2.99401 	-1.79341e-20
1.68323 	0.766234 	0.0031392 	2.99401 	-1.79341e-20
1.75336 	0.766234 	0.0031392 	2.99401 	-1.79341e-20
1.82349 	0.766234 	0.0031392 	2.99401 	-1.79341e-20
1.89363 	0.766234 	0.0031392 	2.99401 	-1.79341e-20
1.96376 	0.766234 	0.0031392 	2.99401 	-1.79341e-20
2.0339 	0.766234 	0.0031392 	2.99401 	-1.79341e-20
2.10403 	0.766234 	0.0031392 	2.99401 	-1.79341e-20
2.17417 	0.624286 	-0.00740094 	3.0212 	4.41314e-20
2.2443 	0.624286 	-0.00740094 	3.0212 	4.41314e-20
2.31443 	0.624286 	-0.00740094 	3.0212 	4.41314e-20
2.38457 	0.624286 	-0.00740094 	3.0212 	4.41314e-20
2.4547 	0.624286 	-0.00740094 	3.0212 	4.41314e-20
2.52484 	0.624286 	-0.00740094 	3.0212 	4.41314e-20
2.59497 	0.624286 	-0.00740094 	3.0212 	4.41314e-20
2.66511 	0.624286 	-0.00740094 	3.0212 	4.41314e-20
2.73524 	0.624286 	-0.00740094 	3.0212 	4.41314e-20
2.80538 	0.624286 	-0.00740094 	3.0212 	4.41314e-20
2.87551 	0.624286 	-0.00740094 	3.0212 	4.41314e-20
2.94564 	0.624286 	-0.00740094 	3.0212 	4.41314e-20
3.01578 	0.468937 	0.00829345 	3.09052 	-3.74244e-21
3.08591 	0.468937 	0.00829345 	3.09052 	-3.74244e-21
3.15605 	0.468937 	0.00829345 	3.09052 	-3.74244e-21
3.22618 	0.468937 	0.00829345 	3.09052 	-3.74244e-21
3.29632 	0.468937 	0.00829345 	3.09052 	-3.74244e-21
3.36645 	0.468937 	0.00829345 	3.09052 	-3.74244e-21
3.43659 	0.468937 	0.00829345 	3.09052 	-3.74244e-21
3.50672 	0.468937 	0.00829345 	3.09052 	-3.74244e-21
3.57685 	0.468937 	0.00829345 	3.09052 	-3.74244e-21
3.64699 	0.468937 	0.00829345 	3.09052 	-3.74244e-21
3.71712 	0.468937 	0.00829345 	3.09052 	-3.74244e-21
3.78726 	0.458602 	-0.00268482 	3.07903 	7.10546e-21
3.85739 	0.438295 	0.00475018 	3.07623 	-5.30075e-20
3.92753 	0.438295 	0.00475018 	3.07623 	-5.30075e-20
3.99766 	0.438295 	0.00475018 	3.07623 	-5.30075e-20
4.06779 	0.438295 	0.00475018 	3.07623 	-5.30075e-20
4.13793 	0.438295 	0.00475018 	3.07623 	-5.30075e-20
4.20806 	0.438295 	0.00475018 	3.07623 	-5.30075e-20
4.2782 	0.438295 	0.00475018 	3.07623 	-5.30075e-20
4.34833 	0.438295 	0.00475018 	3.07623 	-5.30075e-20
4.41847 	0.438295 	0.00475018 	3.07623 	-5.30075e-20
4.4886 	0.438295 	0.00475018 	3.07623 	-5.30075e-20
4.55874 	0.438295 	0.00475018 	3.07623 	-5.30075e-20
4.62887 	0.438295 	0.00475018 	3.07623 	-5.30075e-20
4.699 	0.438295 	0.00475018 	3.07623 	-5.30075e-20
4.76914 	0.450358 	0.0140922 	3.05493 	1.04269e-19
4.83927 	0.450358 	0.0140922 	3.05493 	1.04269e-19
4.90941 	0.450358 	0.0140922 	3.05493 	1.04269e-19
4.97954 	0.450358 	0.0140922 	3.05493 	1.04269e-19
5.04968 	0.450358 	0.0140922 	3.05493 	1.04269e-19
5.11981 	0.450358 	0.0140922 	3.05493 	1.04269e-19
5.18994 	0.450358 	0.0140922 	3.05493 	1.04269e-19
5.26008 	0.450358 	0.0140922 	3.05493 	1.04269e-19
5.33021 	0.450358 	0.0140922 	3.05493 	1.04269e-19
5.40035 	0.450358 	0.0140922 	3.05493 	1.04269e-19
5.47048 	0.450358 	0.0140922 	3.05493 	1.04269e-19
5.54062 	0.450358 	0.0140922 	3.05493 	1.04269e-19
5.61075 	0.409229 	0.014147 	3.05646 	-5.02323e-20
5.68089 	0.409229 	0.014147 	3.05646 	-5.02323e-20
5.75102 	0.409229 	0.014147 	3.05646 	-5.02323e-20
5.82115 	0.409229 	0.014147 	3.05646 	-5.02323e-20
5.89129 	0.409229 	0.014147 	3.05646 	-5.02323e-20
5.96142 	0.409229 	0.014147 	3.05646 	-5.02323e-20
6.03156 	0.409229 	0.014147 	3.05646 	-5.02323e-20
6.10169 	0.409229 	0.014147 	3.05646 	-5.02323e-20
6.17183 	0.409229 	0.014147 	3.05646 	-5.02323e-20
6.24196 	0.409229 	0.014147 	3.05646 	-5.02323e-20
6.3121 	0.409229 	0.014147 	3.05646 	-5.02323e-20
6.38223 	0.409229 	0.014147 	3.05646 	-5.02323e-20
6.45236 	0.335712 	0.00856096 	3.06496 	0
6.5225 	0.335712 	0.00856096 	3.06496 	0
6.59263 	0.335712 	0.00856096 	3.06496 	0
6.66277 	0.335712 	0.00856096 	3.06496 	0
6.7329 	0.335712 	0.00856096 	3.06496 	0
6.80304 	0.335712 	0.00856096 	3.06496 	0
6.87317 	0.335712 	0.00856096 	3.06496 	0
6.9433 	0.335712 	0.00856096 	3.06496 	0
7.01344 	0.335712 	0.00856096 	3.06496 	0
7.08357 	0.335712 	0.00856096 	3.06496 	0
7.15371 	0.335712 	0.00856096 	3.06496 	0
7.22384 	0.335712 	0.00856096 	3.06496 	0
7.29398 	0.268208 	0.0013638 	3.06773 	0
7.36411 	0.268208 	0.0013638 	3.06773 	0
7.43425 	0.268208 	0.0013638 	3.06773 	0
7.50438 	0.268208 	0.0013638 	3.06773 	0
7.57451 	0.268208 	0.0013638 	3.06773 	0
7.64465 	0.268208 	0.0013638 	3.06773 	0
7.71478 	0.268208 	0.0013638 	3.06773 	0
7.78492 	0.268208 	0.0013638 	3.06773 	0
7.85505 	0.268208 	0.0013638 	3.06773 	0
7.92519 	0.268208 	0.0013638 	3.06773 	0
7.99532 	0.268208 	0.0013638 	3.06773 	0
8.06545 	0.268208 	0.0013638 	3.06773 	0
8.13559 	0.268208 	0.0013638 	3.06773 	0
8.20572 	0.210543 	-0.00878294 	3.06537 	1.84423e-22
8.27586 	0.210543 	-0.00878294 	3.06537 	1.84423e-22
8.34599 	0.210543 	-0.00878294 	3.06537 	1.84423e-22
8.41613 	0.210543 	-0.00878294 	3.06537 	1.84423e-22
8.48626 	0.210543 	-0.00878294 	3.06537 	1.84423e-22
8.5564 	0.210543 	-0.00878294 	3.06537 	1.84423e-22
8.62653 	0.210543 	-0.00878294 	3.06537 	1.84423e-22
8.69666 	0.210543 	-0.00878294 	3.06537 	1.84423e-22
8.7668 	0.210543 	-0.00878294 	3.06537 	1.84423e-22
8.83693 	0.210543 	-0.00878294 	3.06537 	1.84423e-22
8.90707 	0.210543 	-0.00878294 	3.06537 	1.84423e-22
8.9772 	0.210543 	-0.00878294 	3.06537 	1.84423e-22
9.04734 	0.155242 	-0.0329284 	3.06535 	3.38507e-20
9.11747 	0.155242 	-0.0329284 	3.06535 	3.38507e-20
9.18761 	0.155242 	-0.0329284 	3.06535 	3.38507e-20
9.25774 	0.155242 	-0.0329284 	3.06535 	3.38507e-20
9.32787 	0.155242 	-0.0329284 	3.06535 	3.38507e-20
9.39801 	0.155242 	-0.0329284 	3.06535 	3.38507e-20
9.46814 	0.155242 	-0.0329284 	3.06535 	3.38507e-20
9.53828 	0.155242 	-0.0329284 	3.06535 	3.38507e-20
9.60841 	0.155242 	-0.0329284 	3.06535 	3.38507e-20
9.67855 	0.155242 	-0.0329284 	3.06535 	3.38507e-20
9.74868 	0.155242 	-0.0329284 	3.06535 	3.38507e-20
9.81881 	0.155242 	-0.0329284 	3.06535 	3.38507e-20
9.88895 	0.155242 	-0.0329284 	3.06535 	3.38507e-20
9.95908 	0.102336 	-0.0596358 	3.05521 	-9.81142e-21
10.0292 	0.102336 	-0.0596358 	3.05521 	-9.81142e-21
10.0994 	0.102336 	-0.0596358 	3.05521 	-9.81142e-21
10.1695 	0.102336 	-0.0596358 	3.05521 	-9.81142e-21
10.2396 	0.102336 	-0.0596358 	3.05521 	-9.81142e-21
10.3098 	0.102336 	-0.0596358 	3.05521 	-9.81142e-21
10.3799 	0.102336 	-0.0596358 	3.05521 	-9.81142e-21
10.45 	0.102336 	-0.0596358 	3.05521 	-9.81142e-21
10.5202 	0.102336 	-0.0596358 	3.05521 	-9.81142e-21
10.5903 	0.102336 	-0.0596358 	3.05521 	-9.81142e-21
10.6604 	0.102336 	-0.0596358 	3.05521 	-9.81142e-21
10.7306 	0.102336 	-0.0596358 	3.05521 	-9.81142e-21
10.8007 	0.0697983 	-0.123613 	3.03777 	-2.35594e-20
10.8708 	0.0697983 	-0.123613 	3.03777 	-2.35594e-20
10.941 	0.0697983 	-0.123613 	3.03777 	-2.35594e-20
11.0111 	0.0697983 	-0.123613 	3.03777 	-2.35594e-20
11.0812 	0.0697983 	-0.123613 	3.03777 	-2.35594e-20
11.1514 	0.0697983 	-0.123613 	3.03777 	-2.35594e-20
11.2215 	0.0697983 	-0.123613 	3.03777 	-2.35594e-20
11.2916 	0.0697983 	-0.123613 	3.03777 	-2.35594e-20
11.3618 	0.0697983 	-0.123613 	3.03777 	-2.35594e-20
11.4319 	0.0697983 	-0.123613 	3.03777 	-2.35594e-20
11.502 	0.0697983 	-0.123613 	3.03777 	-2.35594e-20
11.5722 	0.0697983 	-0.123613 	3.03777 	-2.35594e-20
11.6423 	0.0697983 	-0.123613 	3.03777 	-2.35594e-20
11.7124 	0.0517815 	-0.162892 	2.99994 	-3.44316e-20
11.7826 	0.0517815 	-0.162892 	2.99994 	-3.44316e-20
11.8527 	0.0517815 	-0.162892 	2.99994 	-3.44316e-20
11.9228 	0.0517815 	-0.162892 	2.99994 	-3.44316e-20
11.993 	0.0517815 	-0.162892 	2.99994 	-3.44316e-20
12.0631 	0.0517815 	-0.162892 	2.99994 	-3.44316e-20
12.1332 	0.0517815 	-0.162892 	2.99994 	-3.44316e-20
12.2034 	0.0517815 	-0.162892 	2.99994 	-3.44316e-20
12.2735 	0.0517815 	-0.162892 	2.99994 	-3.44316e-20
12.3437 	0.0517815 	-0.162892 	2.99994 	-3.44316e-20
12.4138 	0.0517815 	-0.162892 	2.99994 	-3.44316e-20
12.4839 	0.0517815 	-0.162892 	2.99994 	-3.44316e-20
12.5541 	0.0517815 	-0.162892 	2.99994 	-3.44316e-20
12.6242 	0.0846966 	-0.277576 	2.91575 	1.02952e-19
12.6943 	0.0846966 	-0.277576 	2.91575 	1.02952e-19
12.7645 	0.0846966 	-0.277576 	2.91575 	1.02952e-19
12.8346 	0.0846966 	-0.277576 	2.91575 	1.02952e-19
12.9047 	0.0846966 	-0.277576 	2.91575 	1.02952e-19
12.9749 	0.0846966 	-0.277576 	2.91575 	1.02952e-19
13.045 	0.0846966 	-0.277576 	2.91575 	1.02952e-19
13.1151 	0.0846966 	-0.277576 	2.91575 	1.02952e-19
13.1853 	0.0846966 	-0.277576 	2.91575 	1.02952e-19
13.2554 	0.0846966 	-0.277576 	2.91575 	1.02952e-19
13.3255 	0.0846966 	-0.277576 	2.91575 	1.02952e-19
13.3957 	0.0846966 	-0.277576 	2.91575 	1.02952e-19
13.4658 	0.0846966 	-0.277576 	2.91575 	1.02952e-19
13.5359 	0.184516 	-0.253314 	2.74109 	-7.21341e-20
13.6061 	0.184516 	-0.253314 	2.74109 	-7.21341e-20
13.6762 	0.184516 	-0.253314 	2.74109 	-7.21341e-20
13.7463 	0.184516 	-0.253314 	2.74109 	-7.21341e-20
13.8165 	0.184516 	-0.253314 	2.74109 	-7.21341e-20
13.8866 	0.184516 	-0.253314 	2.74109 	-7.21341e-20
13.9567 	0.184516 	-0.253314 	2.74109 	-7.21341e-20
14.0269 	0.184516 	-0.253314 	2.74109 	-7.21341e-20
14.097 	0.184516 	-0.253314 	2.74109 	-7.21341e-20
14.1671 	0.184516 	-0.253314 	2.74109 	-7.21341e-20
14.2373 	0.184516 	-0.253314 	2.74109 	-7.21341e-20
14.3074 	0.184516 	-0.253314 	2.74109 	-7.21341e-20
14.3776 	0.304902 	-0.267256 	2.64307 	0
14.4477 	0.239957 	-0.185053 	2.59359 	2.99313e-19
14.5178 	0.239957 	-0.185053 	2.59359 	2.99313e-19
14.588 	0.239957 	-0.185053 	2.59359 	2.99313e-19
14.6581 	0.239957 	-0.185053 	2.59359 	2.99313e-19
14.7282 	0.239957 	-0.185053 	2.59359 	2.99313e-19
14.7984 	0.239957 	-0.185053 	2.59359 	2.99313e-19
14.8685 	0.325823 	-0.210441 	2.52002 	-6.88882e-19
14.9386 	0.325823 	-0.210441 	2.52002 	-6.88882e-19
15.0088 	0.325823 	-0.210441 	2.52002 	-6.88882e-19
15.0789 	0.325823 	-0.210441 	2.52002 	-6.88882e-19
15.149 	0.325823 	-0.210441 	2.52002 	-6.88882e-19
15.2192 	0.212611 	-0.00656612 	2.54614 	4.85367e-19
15.2893 	0.212611 	-0.00656612 	2.54614 	4.85367e-19
15.3594 	0.212611 	-0.00656612 	2.54614 	4.85367e-19
15.4296 	0.367495 	0.00151437 	2.44867 	3.39698e-20
15.4997 	0.367495 	0.00151437 	2.44867 	3.39698e-20
15.5698 	0.367495 	0.00151437 	2.44867 	3.39698e-20
15.64 	0.367495 	0.00151437 	2.44867 	3.39698e-20
15.7101 	0.367495 	0.00151437 	2.44867 	3.39698e-20
15.7802 	0.367495 	0.00151437 	2.44867 	3.39698e-20
15.8504 	0.367495 	0.00151437 	2.44867 	3.39698e-20
15.9205 	0.200167 	0.098301 	2.50218 	7.52713e-20
15.9906 	0.200167 	0.098301 	2.50218 	7.52713e-20
16.0608 	0.200167 	0.098301 	2.50218 	7.52713e-20
16.1309 	0.467658 	0.169085 	2.3263 	3.35004e-19
16.201 	0.467658 	0.169085 	2.3263 	3.35004e-19
16.2712 	0.467658 	0.169085 	2.3263 	3.35004e-19
16.3413 	0.467658 	0.169085 	2.3263 	3.35004e-19
16.4114 	0.467658 	0.169085 	2.3263 	3.35004e-19
16.4816 	0.467658 	0.169085 	2.3263 	3.35004e-19
16.5517 	0.467658 	0.169085 	2.3263 	3.35004e-19
16.6219 	0.335263 	0.36731 	2.27629 	0
16.692 	0.335263 	0.36731 	2.27629 	0
16.7621 	0.335263 	0.36731 	2.27629 	0
16.8323 	0.335263 	0.36731 	2.27629 	0
16.9024 	0.335263 	0.36731 	2.27629 	0
16.9725 	0.594741 	0.343696 	2.12834 	3.68634e-19
17.0427 	0.594741 	0.343696 	2.12834 	3.68634e-19
17.1128 	0.594741 	0.343696 	2.12834 	3.68634e-19
17.1829 	0.594741 	0.343696 	2.12834 	3.68634e-19
17.2531 	0.480699 	0.490811 	2.12252 	5.5203e-19
17.3232 	0.480699 	0.490811 	2.12252 	5.5203e-19
17.3933 	0.480699 	0.490811 	2.12252 	5.5203e-19
17.4635 	0.480699 	0.490811 	2.12252 	5.5203e-19
17.5336 	0.480699 	0.490811 	2.12252 	5.5203e-19
17.6037 	0.480699 	0.490811 	2.12252 	5.5203e-19
17.6739 	0.480699 	0.490811 	2.12252 	5.5203e-19
17.744 	0.480699 	0.490811 	2.12252 	5.5203e-19
17.8141 	0.480699 	0.490811 	2.12252 	5.5203e-19
17.8843 	0.480699 	0.490811 	2.12252 	5.5203e-19
17.9544 	0.651532 	0.555745 	1.92287 	0
18.0245 	0.651532 	0.555745 	1.92287 	0
18.0947 	0.651532 	0.555745 	1.92287 	0
18.1648 	0.651532 	0.555745 	1.92287 	0
18.2349 	0.651532 	0.555745 	1.92287 	0
18.3051 	0.651532 	0.555745 	1.92287 	0
18.3752 	0.651532 	0.555745 	1.92287 	0
18.4453 	0.651532 	0.555745 	1.92287 	0
18.5155 	0.651532 	0.555745 	1.92287 	0
18.5856 	0.629631 	0.667979 	1.87292 	0
18.6557 	0.629631 	0.667979 	1.87292 	0
18.7259 	0.629631 	0.667979 	1.87292 	0
18.796 	0.629631 	0.667979 	1.87292 	0
18.8662 	0.629631 	0.667979 	1.87292 	0
18.9363 	0.629631 	0.667979 	1.87292 	0
19.0064 	0.629631 	0.667979 	1.87292 	0
19.0766 	0.629631 	0.667979 	1.87292 	0
19.1467 	0.629631 	0.667979 	1.87292 	0
19.2168 	0.634749 	0.750801 	1.7923 	-2.54985e-19
19.287 	0.753896 	0.653985 	1.71533 	-2.46185e-19
19.3571 	0.753896 	0.653985 	1.71533 	-2.46185e-19
19.4272 	0.753896 	0.653985 	1.71533 	-2.46185e-19
19.4974 	0.753896 	0.653985 	1.71533 	-2.46185e-19
19.5675 	0.753896 	0.653985 	1.71533 	-2.46185e-19
19.6376 	0.753896 	0.653985 	1.71533 	-2.46185e-19
19.7078 	0.753896 	0.653985 	1.71533 	-2.46185e-19
19.7779 	0.753896 	0.653985 	1.71533 	-2.46185e-19
19.848 	0.753896 	0.653985 	1.71533 	-2.46185e-19
19.9182 	0.750632 	0.694092 	1.66661 	-7.65435e-19
19.9883 	0.750632 	0.694092 	1.66661 	-7.65435e-19
20.0584 	0.750632 	0.694092 	1.66661 	-7.65435e-19
20.1286 	0.750632 	0.694092 	1.66661 	-7.65435e-19
20.1987 	0.750632 	0.694092 	1.66661 	-7.65435e-19
20.2688 	0.750632 	0.694092 	1.66661 	-7.65435e-19
20.339 	0.750632 	0.694092 	1.66661 	-7.65435e-19
20.4091 	0.750632 	0.694092 	1.66661 	-7.65435e-19
20.4792 	0.750632 	0.694092 	1.66661 	-7.65435e-19
20.5494 	0.750632 	0.694092 	1.66661 	-7.65435e-19
20.6195 	0.76262 	0.712369 	1.61824 	-2.4021e-19
20.6896 	0.76262 	0.712369 	1.61824 	-2.4021e-19
20.7598 	0.76262 	0.712369 	1.61824 	-2.4021e-19
20.8299 	0.76262 	0.712369 	1.61824 	-2.4021e-19
20.9 	0.796727 	0.659126 	1.59232 	-8.67172e-19
20.9702 	0.796727 	0.659126 	1.59232 	-8.67172e-19
21.0403 	0.796727 	0.659126 	1.59232 	-8.67172e-19
21.1105 	0.796727 	0.659126 	1.59232 	-8.67172e-19
21.1806 	0.796727 	0.659126 	1.59232 	-8.67172e-19
21.2507 	0.796727 	0.659126 	1.59232 	-8.67172e-19
21.3209 	0.792782 	0.67075 	1.56966 	0
21.391 	0.792782 	0.67075 	1.56966 	0
21.4611 	0.792782 	0.67075 	1.56966 	0
21.5313 	0.792782 	0.67075 	1.56966 	0
21.6014 	0.792782 	0.67075 	1.56966 	0
21.6715 	0.792782 	0.67075 	1.56966 	0
21.7417 	0.792782 	0.67075 	1.56966 	0
21.8118 	0.792782 	0.67075 	1.56966 	0
21.8819 	0.792782 	0.67075 	1.56966 	0
21.9521 	0.792782 	0.67075 	1.56966 	0
22.0222 	0.792782 	0.67075 	1.56966 	0
22.0923 	0.794106 	0.67256 	1.54953 	-5.63803e-19
22.1625 	0.794106 	0.67256 	1.54953 	-5.63803e-19
22.2326 	0.794106 	0.67256 	1.54953 	-5.63803e-19
22.3027 	0.794106 	0.67256 	1.54953 	-5.63803e-19
22.3729 	0.794106 	0.67256 	1.54953 	-5.63803e-19
22.443 	0.794106 	0.67256 	1.54953 	-5.63803e-19
22.5131 	0.794106 	0.67256 	1.54953 	-5.63803e-19
22.5833 	0.794106 	0.67256 	1.54953 	-5.63803e-19
22.6534 	0.794106 	0.67256 	1.54953 	-5.63803e-19
22.7235 	0.794106 	0.67256 	1.54953 	-5.63803e-19
22.7937 	0.794106 	0.67256 	1.54953 	-5.63803e-19
22.8638 	0.798501 	0.663597 	1.53249 	1.23537e-18
22.9339 	0.798501 	0.663597 	1.53249 	1.23537e-18
23.0041 	0.798501 	0.663597 	1.53249 	1.23537e-18
23.0742 	0.763044 	0.646683 	1.54527 	2.96229e-19
23.1443 	0.763044 	0.646683 	1.54527 	2.96229e-19
23.2145 	0.763044 	0.646683 	1.54527 	2.96229e-19
23.2846 	0.763044 	0.646683 	1.54527 	2.96229e-19
23.3548 	0.763044 	0.646683 	1.54527 	2.96229e-19
23.4249 	0.763044 	0.646683 	1.54527 	2.96229e-19
23.495 	0.763044 	0.646683 	1.54527 	2.96229e-19
23.5652 	0.763044 	0.646683 	1.54527 	2.96229e-19
23.6353 	0.763044 	0.646683 	1.54527 	2.96229e-19
23.7054 	0.756058 	0.639025 	1.54329 	-1.30617e-19
23.7756 	0.756058 	0.639025 	1.54329 	-1.30617e-19
23.8457 	0.756058 	0.639025 	1.54329 	-1.30617e-19
23.9158 	0.756058 	0.639025 	1.54329 	-1.30617e-19
23.986 	0.756058 	0.639025 	1.54329 	-1.30617e-19
24.0561 	0.756058 	0.639025 	1.54329 	-1.30617e-19
24.1262 	0.756058 	0.639025 	1.54329 	-1.30617e-19
24.1964 	0.756058 	0.639025 	1.54329 	-1.30617e-19
24.2665 	0.756058 	0.639025 	1.54329 	-1.30617e-19
24.3366 	0.756058 	0.639025 	1.54329 	-1.30617e-19
24.4068 	0.756058 	0.639025 	1.54329 	-1.30617e-19
24.4769 	0.756058 	0.639025 	1.54329 	-1.30617e-19
24.547 	0.756058 	0.639025 	1.54329 	-1.30617e-19
24.6172 	0.752173 	0.622525 	1.53992 	1.03483e-18
24.6873 	0.752173 	0.622525 	1.53992 	1.03483e-18
24.7574 	0.752173 	0.622525 	1.53992 	1.03483e-18
24.8276 	0.752173 	0.622525 	1.53992 	1.03483e-18
24.8977 	0.752173 	0.622525 	1.53992 	1.03483e-18
24.9678 	0.752173 	0.622525 	1.53992 	1.03483e-18
25.038 	0.752173 	0.622525 	1.53992 	1.03483e-18
25.1081 	0.752173 	0.622525 	1.53992 	1.03483e-18
25.1782 	0.752173 	0.622525 	1.53992 	1.03483e-18
25.2484 	0.752173 	0.622525 	1.53992 	1.03483e-18
25.3185 	0.752173 	0.622525 	1.53992 	1.03483e-18
25.3886 	0.752173 	0.622525 	1.53992 	1.03483e-18
25.4588 	0.748324 	0.59943 	1.53989 	-9.41862e-19
25.5289 	0.748324 	0.59943 	1.53989 	-9.41862e-19
25.5991 	0.748324 	0.59943 	1.53989 	-9.41862e-19
25.6692 	0.748324 	0.59943 	1.53989 	-9.41862e-19
25.7393 	0.748324 	0.59943 	1.53989 	-9.41862e-19
25.8095 	0.748324 	0.59943 	1.53989 	-9.41862e-19
25.8796 	0.748324 	0.59943 	1.53989 	-9.41862e-19
25.9497 	0.748324 	0.59943 	1.53989 	-9.41862e-19
26.0199 	0.748324 	0.59943 	1.53989 	-9.41862e-19
26.09 	0.660134 	0.60711 	1.57954 	-1.73651e-19
26.1601 	0.660134 	0.60711 	1.57954 	-1.73651e-19
26.2303 	0.660134 	0.60711 	1.57954 	-1.73651e-19
26.3004 	0.660134 	0.60711 	1.57954 	-1.73651e-19
26.3705 	0.660134 	0.60711 	1.57954 	-1.73651e-19
26.4407 	0.647413 	0.580689 	1.58897 	1.52041e-19
26.5108 	0.647413 	0.580689 	1.58897 	1.52041e-19
26.5809 	0.647413 	0.580689 	1.58897 	1.52041e-19
26.6511 	0.647413 	0.580689 	1.58897 	1.52041e-19
26.7212 	0.647413 	0.580689 	1.58897 	1.52041e-19
26.7913 	0.647413 	0.580689 	1.58897 	1.52041e-19
26.8615 	0.647413 	0.580689 	1.58897 	1.52041e-19
26.9316 	0.647413 	0.580689 	1.58897 	1.52041e-19
27.0017 	0.647413 	0.580689 	1.58897 	1.52041e-19
27.0719 	0.647413 	0.580689 	1.58897 	1.52041e-19
27.142 	0.647413 	0.580689 	1.58897 	1.52041e-19
27.2121 	0.647413 	0.580689 	1.58897 	1.52041e-19
27.2823 	0.647413 	0.580689 	1.58897 	1.52041e-19
27.3524 	0.634894 	0.548717 	1.59936 	0
27.4225 	0.634894 	0.548717 	1.59936 	0
27.4927 	0.634894 	0.548717 	1.59936 	0
27.5628 	0.634894 	0.548717 	1.59936 	0
27.6329 	0.634894 	0.548717 	1.59936 	0
27.7031 	0.634894 	0.548717 	1.59936 	0
27.7732 	0.634894 	0.548717 	1.59936 	0
27.8434 	0.634894 	0.548717 	1.59936 	0
27.9135 	0.634894 	0.548717 	1.59936 	0
27.9836 	0.634894 	0.548717 	1.59936 	0
28.0538 	0.634894 	0.548717 	1.59936 	0
28.1239 	0.634894 	0.548717 	1.59936 	0
28.194 	0.634894 	0.548717 	1.59936 	0
28.2642 	0.634894 	0.548717 	1.59936 	0
28.3343 	0.634894 	0.548717 	1.59936 	0
28.4044 	0.621455 	0.51128 	1.61108 	0
28.4746 	0.621455 	0.51128 	1.61108 	0
28.5447 	0.621455 	0.51128 	1.61108 	0
28.6148 	0.621455 	0.51128 	1.61108 	0
28.685 	0.621455 	0.51128 	1.61108 	0
28.7551 	0.621455 	0.51128 	1.61108 	0
28.8252 	0.621455 	0.51128 	1.61108 	0
28.8954 	0.621455 	0.51128 	1.61108 	0
28.9655 	0.621455 	0.51128 	1.61108 	0
29.0356 	0.621455 	0.51128 	1.61108 	0
29.1058 	0.621455 	0.51128 	1.61108 	0
29.1759 	0.621455 	0.51128 	1.61108 	0
29.246 	0.621455 	0.51128 	1.61108 	0
29.3162 	0.621455 	0.51128 	1.61108 	0
29.3863 	0.621455 	0.51128 	1.61108 	0
29.4564 	0.606086 	0.468744 	1.62409 	2.53043e-19
29.5266 	0.606086 	0.468744 	1.62409 	2.53043e-19
29.5967 	0.606086 	0.468744 	1.62409 	2.53043e-19
29.6668 	0.606086 	0.468744 	1.62409 	2.53043e-19
29.737 	0.606086 	0.468744 	1.62409 	2.53043e-19
29.8071 	0.606086 	0.468744 	1.62409 	2.53043e-19
29.8773 	0.606086 	0.468744 	1.62409 	2.53043e-19
29.9474 	0.606086 	0.468744 	1.62409 	2.53043e-19
30.0175 	0.606086 	0.468744 	1.62409 	2.53043e-19
30.0877 	0.606086 	0.468744 	1.62409 	2.53043e-19
30.1578 	0.606086 	0.468744 	1.62409 	2.53043e-19
30.2279 	0.606086 	0.468744 	1.62409 	2.53043e-19
30.2981 	0.606086 	0.468744 	1.62409 	2.53043e-19
30.3682 	0.606086 	0.468744 	1.62409 	2.53043e-19
30.4383 	0.606086 	0.468744 	1.62409 	2.53043e-19
30.5085 	0.606086 	0.468744 	1.62409 	2.53043e-19
30.5786 	0.588028 	0.421703 	1.63824 	1.68324e-20
30.6487 	0.588028 	0.421703 	1.63824 	1.68324e-20
30.7189 	0.588028 	0.421703 	1.63824 	1.68324e-20
30.789 	0.588028 	0.421703 	1.63824 	1.68324e-20
30.8591 	0.588028 	0.421703 	1.63824 	1.68324e-20
30.9293 	0.588028 	0.421703 	1.63824 	1.68324e-20
30.9994 	0.588028 	0.421703 	1.63824 	1.68324e-20
31.0695 	0.588028 	0.421703 	1.63824 	1.68324e-20
31.1397 	0.588028 	0.421703 	1.63824 	1.68324e-20
31.2098 	0.588028 	0.421703 	1.63824 	1.68324e-20
31.2799 	0.588028 	0.421703 	1.63824 	1.68324e-20
31.3501 	0.588028 	0.421703 	1.63824 	1.68324e-20
31.4202 	0.588028 	0.421703 	1.63824 	1.68324e-20
31.4903 	0.588028 	0.421703 	1.63824 	1.68324e-20
31.5605 	0.457077 	0.442964 	1.70652 	2.99293e-19
31.6306 	0.457077 	0.442964 	1.70652 	2.99293e-19
31.7007 	0.43859 	0.390934 	1.72137 	-1.91214e-19
31.7709 	0.43859 	0.390934 	1.72137 	-1.91214e-19
31.841 	0.43859 	0.390934 	1.72137 	-1.91214e-19
31.9111 	0.43859 	0.390934 	1.72137 	-1.91214e-19
31.9813 	0.43859 	0.390934 	1.72137 	-1.91214e-19
32.0514 	0.43859 	0.390934 	1.72137 	-1.91214e-19
32.1216 	0.43859 	0.390934 	1.72137 	-1.91214e-19
32.1917 	0.43859 	0.390934 	1.72137 	-1.91214e-19
32.2618 	0.43859 	0.390934 	1.72137 	-1.91214e-19
32.332 	0.43859 	0.390934 	1.72137 	-1.91214e-19
32.4021 	0.43859 	0.390934 	1.72137 	-1.91214e-19
32.4722 	0.43859 	0.390934 	1.72137 	-1.91214e-19
32.5424 	0.43859 	0.390934 	1.72137 	-1.91214e-19
32.6125 	0.43859 	0.390934 	1.72137 	-1.91214e-19
32.6826 	0.43859 	0.390934 	1.72137 	-1.91214e-19
32.7528 	0.43859 	0.390934 	1.72137 	-1.91214e-19
32.8229 	0.43859 	0.390934 	1.72137 	-1.91214e-19
32.893 	0.43859 	0.390934 	1.72137 	-1.91214e-19
32.9632 	0.418627 	0.336255 	1.73532 	-3.49526e-20
33.0333 	0.418627 	0.336255 	1.73532 	-3.49526e-20
33.1034 	0.418627 	0.336255 	1.73532 	-3.49526e-20
33.1736 	0.418627 	0.336255 	1.73532 	-3.49526e-20
33.2437 	0.418627 	0.336255 	1.73532 	-3.49526e-20
33.3138 	0.418627 	0.336255 	1.73532 	-3.49526e-20
33.384 	0.418627 	0.336255 	1.73532 	-3.49526e-20
33.4541 	0.418627 	0.336255 	1.73532 	-3.49526e-20
33.5242 	0.418627 	0.336255 	1.73532 	-3.49526e-20
33.5944 	0.418627 	0.336255 	1.73532 	-3.49526e-20
33.6645 	0.418627 	0.336255 	1.73532 	-3.49526e-20
33.7346 	0.418627 	0.336255 	1.73532 	-3.49526e-20
33.8048 	0.418627 	0.336255 	1.73532 	-3.49526e-20
33.8749 	0.418627 	0.336255 	1.73532 	-3.49526e-20
33.945 	0.418627 	0.336255 	1.73532 	-3.49526e-20
34.0152 	0.418627 	0.336255 	1.73532 	-3.49526e-20
34.0853 	0.418627 	0.336255 	1.73532 	-3.49526e-20
34.1554 	0.418627 	0.336255 	1.73532 	-3.49526e-20
34.2256 	0.39673 	0.280682 	1.7475 	3.89902e-20
34.2957 	0.39673 	0.280682 	1.7475 	3.89902e-20
34.3659 	0.39673 	0.280682 	1.7475 	3.89902e-20
34.436 	0.39673 	0.280682 	1.7475 	3.89902e-20
34.5061 	0.39673 	0.280682 	1.7475 	3.89902e-20
34.5763 	0.39673 	0.280682 	1.7475 	3.89902e-20
34.6464 	0.39673 	0.280682 	1.7475 	3.89902e-20
34.7165 	0.39673 	0.280682 	1.7475 	3.89902e-20
34.7867 	0.39673 	0.280682 	1.7475 	3.89902e-20
34.8568 	0.39673 	0.280682 	1.7475 	3.89902e-20
34.9269 	0.39673 	0.280682 	1.7475 	3.89902e-20
34.9971 	0.39673 	0.280682 	1.7475 	3.89902e-20
35.0672 	0.39673 	0.280682 	1.7475 	3.89902e-20
35.1373 	0.39673 	0.280682 	1.7475 	3.89902e-20
35.2075 	0.39673 	0.280682 	1.7475 	3.89902e-20
35.2776 	0.39673 	0.280682 	1.7475 	3.89902e-20
35.3477 	0.39673 	0.280682 	1.7475 	3.89902e-20
35.4179 	0.39673 	0.280682 	1.7475 	3.89902e-20
35.488 	0.39673 	0.280682 	1.7475 	3.89902e-20
35.5581 	0.39673 	0.280682 	1.7475 	3.89902e-20
35.6283 	0.372488 	0.22634 	1.75867 	6.36399e-21
35.6984 	0.372488 	0.22634 	1.75867 	6.36399e-21
35.7685 	0.372488 	0.22634 	1.75867 	6.36399e-21
35.8387 	0.372488 	0.22634 	1.75867 	6.36399e-21
35.9088 	0.372488 	0.22634 	1.75867 	6.36399e-21
35.9789 	0.372488 	0.22634 	1.75867 	6.36399e-21
36.0491 	0.372488 	0.22634 	1.75867 	6.36399e-21
36.1192 	0.372488 	0.22634 	1.75867 	6.36399e-21
36.1893 	0.372488 	0.22634 	1.75867 	6.36399e-21
36.2595 	0.372488 	0.22634 	1.75867 	6.36399e-21
36.3296 	0.372488 	0.22634 	1.75867 	6.36399e-21
36.3997 	0.372488 	0.22634 	1.75867 	6.36399e-21
36.4699 	0.372488 	0.22634 	1.75867 	6.36399e-21
36.54 	0.372488 	0.22634 	1.75867 	6.36399e-21
36.6102 	0.372488 	0.22634 	1.75867 	6.36399e-21
36.6803 	0.372488 	0.22634 	1.75867 	6.36399e-21
36.7504 	0.372488 	0.22634 	1.75867 	6.36399e-21
36.8206 	0.372488 	0.22634 	1.75867 	6.36399e-21
36.8907 	0.372488 	0.22634 	1.75867 	6.36399e-21
36.9608 	0.372488 	0.22634 	1.75867 	6.36399e-21
37.031 	0.372488 	0.22634 	1.75867 	6.36399e-21
37.1011 	0.350259 	0.180918 	1.76706 	0
37.1712 	0.350259 	0.180918 	1.76706 	0
37.2414 	0.350259 	0.180918 	1.76706 	0
37.3115 	0.350259 	0.180918 	1.76706 	0
37.3816 	0.350259 	0.180918 	1.76706 	0
37.4518 	0.350259 	0.180918 	1.76706 	0
37.5219 	0.350259 	0.180918 	1.76706 	0
37.592 	0.350259 	0.180918 	1.76706 	0
37.6622 	0.350259 	0.180918 	1.76706 	0
37.7323 	0.350259 	0.180918 	1.76706 	0
37.8024 	0.350259 	0.180918 	1.76706 	0
37.8726 	0.350259 	0.180918 	1.76706 	0
37.9427 	0.350259 	0.180918 	1.76706 	0
38.0128 	0.350259 	0.180918 	1.76706 	0
38.083 	0.350259 	0.180918 	1.76706 	0
38.1531 	0.350259 	0.180918 	1.76706 	0
38.2232 	0.350259 	0.180918 	1.76706 	0
38.2934 	0.333399 	0.145118 	1.77014 	0
38.3635 	0.333399 	0.145118 	1.77014 	0
38.4336 	0.333399 	0.145118 	1.77014 	0
38.5038 	0.333399 	0.145118 	1.77014 	0
38.5739 	0.333399 	0.145118 	1.77014 	0
38.644 	0.333399 	0.145118 	1.77014 	0
38.7142 	0.333399 	0.145118 	1.77014 	0
38.7843 	0.333399 	0.145118 	1.77014 	0
38.8545 	0.333399 	0.145118 	1.77014 	0
38.9246 	0.333399 	0.145118 	1.77014 	0
38.9947 	0.333399 	0.145118 	1.77014 	0
39.0649 	0.333399 	0.145118 	1.77014 	0
39.135 	0.333399 	0.145118 	1.77014 	0
39.2051 	0.333399 	0.145118 	1.77014 	0
39.2753 	0.333399 	0.145118 	1.77014 	0
39.3454 	0.333399 	0.145118 	1.77014 	0
39.4155 	0.333399 	0.145118 	1.77014 	0
39.4857 	0.333399 	0.145118 	1.77014 	0
39.5558 	0.319376 	0.115508 	1.77116 	0
39.6259 	0.319376 	0.115508 	1.77116 	0
39.6961 	0.319376 	0.115508 	1.77116 	0
39.7662 	0.319376 	0.115508 	1.77116 	0
39.8363 	0.319376 	0.115508 	1.77116 	0
39.9065 	0.319376 	0.115508 	1.77116 	0
39.9766 	0.319376 	0.115508 	1.77116 	0
40.0467 	0.319376 	0.115508 	1.77116 	0
40.1169 	0.319376 	0.115508 	1.77116 	0
40.187 	0.319376 	0.115508 	1.77116 	0
40.2571 	0.319376 	0.115508 	1.77116 	0
40.3273 	0.319376 	0.115508 	1.77116 	0
40.3974 	0.319376 	0.115508 	1.77116 	0
40.4675 	0.319376 	0.115508 	1.77116 	0
40.5377 	0.319376 	0.115508 	1.77116 	0
40.6078 	0.319376 	0.115508 	1.77116 	0
40.6779 	0.319376 	0.115508 	1.77116 	0
40.7481 	0.306579 	0.0914635 	1.77114 	0
40.8182 	0.306579 	0.0914635 	1.77114 	0
40.8883 	0.306579 	0.0914635 	1.77114 	0
40.9585 	0.306579 	0.0914635 	1.77114 	0
41.0286 	0.306579 	0.0914635 	1.77114 	0
41.0988 	0.306579 	0.0914635 	1.77114 	0
41.1689 	0.306579 	0.0914635 	1.77114 	0
41.239 	0.306579 	0.0914635 	1.77114 	0
41.3092 	0.306579 	0.0914635 	1.77114 	0
41.3793 	0.306579 	0.0914635 	1.77114 	0
41.4494 	0.306579 	0.0914635 	1.77114 	0
41.5196 	0.306579 	0.0914635 	1.77114 	0
41.5897 	0.306579 	0.0914635 	1.77114 	0
41.6598 	0.306579 	0.0914635 	1.77114 	0
41.73 	0.306579 	0.0914635 	1.77114 	0
41.8001 	0.306579 	0.0914635 	1.77114 	0
41.8702 	0.306579 	0.0914635 	1.77114 	0
41.9404 	0.306579 	0.0914635 	1.77114 	0
42.0105 	0.294354 	0.0721748 	1.77047 	0
42.0806 	0.294354 	0.0721748 	1.77047 	0
42.1508 	0.294354 	0.0721748 	1.77047 	0
42.2209 	0.294354 	0.0721748 	1.77047 	0
42.291 	0.294354 	0.0721748 	1.77047 	0
42.3612 	0.294354 	0.0721748 	1.77047 	0
42.4313 	0.294354 	0.0721748 	1.77047 	0
42.5014 	0.294354 	0.0721748 	1.77047 	0
42.5716 	0.294354 	0.0721748 	1.77047 	0
42.6417 	0.294354 	0.0721748 	1.77047 	0
42.7118 	0.294354 	0.0721748 	1.77047 	0
42.782 	0.294354 	0.0721748 	1.77047 	0
42.8521 	0.294354 	0.0721748 	1.77047 	0
42.9222 	0.294354 	0.0721748 	1.77047 	0
42.9924 	0.294354 	0.0721748 	1.77047 	0
43.0625 	0.294354 	0.0721748 	1.77047 	0
43.1327 	0.294354 	0.0721748 	1.77047 	0
43.2028 	0.282294 	0.0568293 	1.76951 	0
43.2729 	0.282294 	0.0568293 	1.76951 	0
43.3431 	0.282294 	0.0568293 	1.76951 	0
43.4132 	0.282294 	0.0568293 	1.76951 	0
43.4833 	0.282294 	0.0568293 	1.76951 	0
43.5535 	0.282294 	0.0568293 	1.76951 	0
43.6236 	0.282294 	0.0568293 	1.76951 	0
43.6937 	0.282294 	0.0568293 	1.76951 	0
43.7639 	0.282294 	0.0568293 	1.76951 	0
43.834 	0.282294 	0.0568293 	1.76951 	0
43.9041 	0.282294 	0.0568293 	1.76951 	0
43.9743 	0.282294 	0.0568293 	1.76951 	0
44.0444 	0.282294 	0.0568293 	1.76951 	0
44.1145 	0.282294 	0.0568293 	1.76951 	0
44.1847 	0.282294 	0.0568293 	1.76951 	0
44.2548 	0.282294 	0.0568293 	1.76951 	0
44.3249 	0.282294 	0.0568293 	1.76951 	0
44.3951 	0.282294 	0.0568293 	1.76951 	0
44.4652 	0.270119 	0.0446831 	1.7685 	0
44.5353 	0.270119 	0.0446831 	1.7685 	0
44.6055 	0.270119 	0.0446831 	1.7685 	0
44.6756 	0.270119 	0.0446831 	1.7685 	0