0.490941 	0.857245 	0.00613368 	3.00284 	0
0.561075 	0.857245 	0.00613368 	3.00284 	0
0.63121 	0.857245 	0.00613368 	3.00284 	0
0.701344 	0.857245 	0.00613368 	3.00284 	0
0.771478 	0.857245 	0.00613368 	3.00284 	0
0.841613 	0.857245 	0.00613368 	3.00284 	0
0.911747 	0.857245 	0.00613368 	3.00284 	0
0.981881 	0.857245 	0.00613368 	3.00284 	0
1.05202 	0.857245 	0.00613368 	3.00284 	0
1.12215 	0.857245 	0.00613368 	3.00284 	0
1.19228 	0.857245 	0.00613368 	3.00284 	0
1.26242 	0.8311 	0.0115191 	3.00789 	0
1.33255 	0.8311 	0.0115191 	3.00789 	0
1.40269 	0.8311 	0.0115191 	3.00789 	0
1.47282 	0.8311 	0.0115191 	3.00789 	0
1.54296 	0.8311 	0.0115191 	3.00789 	0
1.61309 	0.8311 	0.0115191 	3.00789 	0
1.68323 	0.8311 	0.0115191 	3.00789 	0
1.75336 	0.8311 	0.0115191 	3.00789 	0
1.82349 	0.781444 	0.0147626 	3.0241 	2.97972e-19
1.89363 	0.781444 	0.0147626 	3.0241 	2.97972e-19
1.96376 	0.781444 	0.0147626 	3.0241 	2.97972e-19
2.0339 	0.781444 	0.0147626 	3.0241 	2.97972e-19
2.10403 	0.781444 	0.0147626 	3.0241 	2.97972e-19
2.17417 	0.781444 	0.0147626 	3.0241 	2.97972e-19
2.2443 	0.781444 	0.0147626 	3.0241 	2.97972e-19
2.31443 	0.781444 	0.0147626 	3.0241 	2.97972e-19
2.38457 	0.781444 	0.0147626 	3.0241 	2.97972e-19
2.4547 	0.781444 	0.0147626 	3.0241 	2.97972e-19
2.52484 	0.781444 	0.0147626 	3.0241 	2.97972e-19
2.59497 	0.746729 	0.00726276 	3.03667 	-4.65704e-19
2.66511 	0.746729 	0.00726276 	3.03667 	-4.65704e-19
2.73524 	0.746729 	0.00726276 	3.03667 	-4.65704e-19
2.80538 	0.746729 	0.00726276 	3.03667 	-4.65704e-19
2.87551 	0.746729 	0.00726276 	3.03667 	-4.65704e-19
2.94564 	0.746729 	0.00726276 	3.03667 	-4.65704e-19
3.01578 	0.746729 	0.00726276 	3.03667 	-4.65704e-19
3.08591 	0.746729 	0.00726276 	3.03667 	-4.65704e-19
3.15605 	0.746729 	0.00726276 	3.03667 	-4.65704e-19
3.22618 	0.746729 	0.00726276 	3.03667 	-4.65704e-19
3.29632 	0.714102 	0.0199888 	3.04356 	4.71905e-19
3.36645 	0.714102 	0.0199888 	3.04356 	4.71905e-19
3.43659 	0.714102 	0.0199888 	3.04356 	4.71905e-19
3.50672 	0.714102 	0.0199888 	3.04356 	4.71905e-19
3.57685 	0.714102 	0.0199888 	3.04356 	4.71905e-19
3.64699 	0.714102 	0.0199888 	3.04356 	4.71905e-19
3.71712 	0.714102 	0.0199888 	3.04356 	4.71905e-19
3.78726 	0.714102 	0.0199888 	3.04356 	4.71905e-19
3.85739 	0.714102 	0.0199888 	3.04356 	4.71905e-19
3.92753 	0.714102 	0.0199888 	3.04356 	4.71905e-19
3.99766 	0.714102 	0.0199888 	3.04356 	4.71905e-19
4.06779 	0.695682 	0.00381396 	3.05016 	-1.31103e-20
4.13793 	0.695682 	0.00381396 	3.05016 	-1.31103e-20
4.20806 	0.695682 	0.00381396 	3.05016 	-1.31103e-20
4.2782 	0.695682 	0.00381396 	3.05016 	-1.31103e-20
4.34833 	0.695682 	0.00381396 	3.05016 	-1.31103e-20
4.41847 	0.695682 	0.00381396 	3.05016 	-1.31103e-20
4.4886 	0.670574 	0.0164685 	3.05808 	0
4.55874 	0.670574 	0.0164685 	3.05808 	0
4.62887 	0.670574 	0.0164685 	3.05808 	0
4.699 	0.670574 	0.0164685 	3.05808 	0
4.76914 	0.670574 	0.0164685 	3.05808 	0
4.83927 	0.670574 	0.0164685 	3.05808 	0
4.90941 	0.670574 	0.0164685 	3.05808 	0
4.97954 	0.670574 	0.0164685 	3.05808 	0
5.04968 	0.670574 	0.0164685 	3.05808 	0
5.11981 	0.670574 	0.0164685 	3.05808 	0
5.18994 	0.648305 	0.00585885 	3.06481 	-6.07126e-21
5.26008 	0.648305 	0.00585885 	3.06481 	-6.07126e-21
5.33021 	0.648305 	0.00585885 	3.06481 	-6.07126e-21
5.40035 	0.648305 	0.00585885 	3.06481 	-6.07126e-21
5.47048 	0.648305 	0.00585885 	3.06481 	-6.07126e-21
5.54062 	0.648305 	0.00585885 	3.06481 	-6.07126e-21
5.61075 	0.648305 	0.00585885 	3.06481 	-6.07126e-21
5.68089 	0.619383 	0.0109153 	3.07453 	0
5.75102 	0.619383 	0.0109153 	3.07453 	0
5.82115 	0.619383 	0.0109153 	3.07453 	0
5.89129 	0.619383 	0.0109153 	3.07453 	0
5.96142 	0.619383 	0.0109153 	3.07453 	0
6.03156 	0.619383 	0.0109153 	3.07453 	0
6.10169 	0.619383 	0.0109153 	3.07453 	0
6.17183 	0.619383 	0.0109153 	3.07453 	0
6.24196 	0.619383 	0.0109153 	3.07453 	0
6.3121 	0.590202 	0.00747825 	3.08274 	0
6.38223 	0.590202 	0.00747825 	3.08274 	0
6.45236 	0.590202 	0.00747825 	3.08274 	0
6.5225 	0.590202 	0.00747825 	3.08274 	0
6.59263 	0.590202 	0.00747825 	3.08274 	0
6.66277 	0.590202 	0.00747825 	3.08274 	0
6.7329 	0.590202 	0.00747825 	3.08274 	0
6.80304 	0.590202 	0.00747825 	3.08274 	0
6.87317 	0.564996 	0.0060794 	3.09127 	1.92108e-19
6.9433 	0.564996 	0.0060794 	3.09127 	1.92108e-19
7.01344 	0.564996 	0.0060794 	3.09127 	1.92108e-19
7.08357 	0.564996 	0.0060794 	3.09127 	1.92108e-19
7.15371 	0.564996 	0.0060794 	3.09127 	1.92108e-19
7.22384 	0.564996 	0.0060794 	3.09127 	1.92108e-19
7.29398 	0.564996 	0.0060794 	3.09127 	1.92108e-19
7.36411 	0.564996 	0.0060794 	3.09127 	1.92108e-19
7.43425 	0.564996 	0.0060794 	3.09127 	1.92108e-19
7.50438 	0.533052 	0.00885771 	3.09928 	-1.40819e-18
7.57451 	0.533052 	0.00885771 	3.09928 	-1.40819e-18
7.64465 	0.533052 	0.00885771 	3.09928 	-1.40819e-18
7.71478 	0.533052 	0.00885771 	3.09928 	-1.40819e-18
7.78492 	0.533052 	0.00885771 	3.09928 	-1.40819e-18
7.85505 	0.533052 	0.00885771 	3.09928 	-1.40819e-18
7.92519 	0.533052 	0.00885771 	3.09928 	-1.40819e-18
7.99532 	0.533052 	0.00885771 	3.09928 	-1.40819e-18
8.06545 	0.515068 	0.00247345 	3.10643 	1.36759e-18
8.13559 	0.515068 	0.00247345 	3.10643 	1.36759e-18
8.20572 	0.515068 	0.00247345 	3.10643 	1.36759e-18
8.27586 	0.515068 	0.00247345 	3.10643 	1.36759e-18
8.34599 	0.515068 	0.00247345 	3.10643 	1.36759e-18
8.41613 	0.515068 	0.00247345 	3.10643 	1.36759e-18
8.48626 	0.515068 	0.00247345 	3.10643 	1.36759e-18
8.5564 	0.515068 	0.00247345 	3.10643 	1.36759e-18
8.62653 	0.515068 	0.00247345 	3.10643 	1.36759e-18
8.69666 	0.484659 	0.0176727 	3.11773 	1.2137e-18
8.7668 	0.484659 	0.0176727 	3.11773 	1.2137e-18
8.83693 	0.484659 	0.0176727 	3.11773 	1.2137e-18
8.90707 	0.484659 	0.0176727 	3.11773 	1.2137e-18
8.9772 	0.484659 	0.0176727 	3.11773 	1.2137e-18
9.04734 	0.484659 	0.0176727 	3.11773 	1.2137e-18
9.11747 	0.484659 	0.0176727 	3.11773 	1.2137e-18
9.18761 	0.484659 	0.0176727 	3.11773 	1.2137e-18
9.25774 	0.453234 	0.00265526 	3.11836 	-1.13581e-18
9.32787 	0.453234 	0.00265526 	3.11836 	-1.13581e-18
9.39801 	0.453234 	0.00265526 	3.11836 	-1.13581e-18
9.46814 	0.453234 	0.00265526 	3.11836 	-1.13581e-18
9.53828 	0.453234 	0.00265526 	3.11836 	-1.13581e-18
9.60841 	0.453234 	0.00265526 	3.11836 	-1.13581e-18
9.67855 	0.453234 	0.00265526 	3.11836 	-1.13581e-18
9.74868 	0.453234 	0.00265526 	3.11836 	-1.13581e-18
9.81881 	0.436578 	0.0173534 	3.12977 	-3.43613e-19
9.88895 	0.436578 	0.0173534 	3.12977 	-3.43613e-19
9.95908 	0.436578 	0.0173534 	3.12977 	-3.43613e-19
10.0292 	0.436578 	0.0173534 	3.12977 	-3.43613e-19
10.0994 	0.436578 	0.0173534 	3.12977 	-3.43613e-19
10.1695 	0.436578 	0.0173534 	3.12977 	-3.43613e-19
10.2396 	0.436578 	0.0173534 	3.12977 	-3.43613e-19
10.3098 	0.436578 	0.0173534 	3.12977 	-3.43613e-19
10.3799 	0.436578 	0.0173534 	3.12977 	-3.43613e-19
10.45 	0.436578 	0.0173534 	3.12977 	-3.43613e-19
10.5202 	0.436578 	0.0173534 	3.12977 	-3.43613e-19
10.5903 	0.436578 	0.0173534 	3.12977 	-3.43613e-19
10.6604 	0.461616 	0.0153903 	3.12556 	5.05748e-19
10.7306 	0.405909 	0.0384758 	3.14041 	0
10.8007 	0.405909 	0.0384758 	3.14041 	0
10.8708 	0.405909 	0.0384758 	3.14041 	0
10.941 	0.405909 	0.0384758 	3.14041 	0
11.0111 	0.405909 	0.0384758 	3.14041 	0
11.0812 	0.405909 	0.0384758 	3.14041 	0
11.1514 	0.405909 	0.0384758 	3.14041 	0
11.2215 	0.405909 	0.0384758 	3.14041 	0
11.2916 	0.405909 	0.0384758 	3.14041 	0
11.3618 	0.405909 	0.0384758 	3.14041 	0
11.4319 	0.405909 	0.0384758 	3.14041 	0
11.502 	0.405909 	0.0384758 	3.14041 	0
11.5722 	0.405909 	0.0384758 	3.14041 	0
11.6423 	0.405909 	0.0384758 	3.14041 	0
11.7124 	0.414641 	0.0265675 	3.12859 	0
11.7826 	0.349227 	0.0820248 	3.16332 	5.14464e-19
11.8527 	0.349227 	0.0820248 	3.16332 	5.14464e-19
11.9228 	0.349227 	0.0820248 	3.16332 	5.14464e-19
11.993 	0.349227 	0.0820248 	3.16332 	5.14464e-19
12.0631 	0.349227 	0.0820248 	3.16332 	5.14464e-19
12.1332 	0.349227 	0.0820248 	3.16332 	5.14464e-19
12.2034 	0.244539 	0.0749281 	3.19078 	-2.21259e-19
12.2735 	0.244539 	0.0749281 	3.19078 	-2.21259e-19
12.3437 	0.244539 	0.0749281 	3.19078 	-2.21259e-19
12.4138 	0.244539 	0.0749281 	3.19078 	-2.21259e-19
12.4839 	0.244539 	0.0749281 	3.19078 	-2.21259e-19
12.5541 	0.244539 	0.0749281 	3.19078 	-2.21259e-19
12.6242 	0.244539 	0.0749281 	3.19078 	-2.21259e-19
12.6943 	0.244539 	0.0749281 	3.19078 	-2.21259e-19
12.7645 	0.244539 	0.0749281 	3.19078 	-2.21259e-19
12.8346 	0.124715 	0.040598 	3.18518 	1.1525e-19
12.9047 	0.105017 	0.142818 	3.22808 	-3.7961e-21
12.9749 	0.105017 	0.142818 	3.22808 	-3.7961e-21
13.045 	0.105017 	0.142818 	3.22808 	-3.7961e-21
13.1151 	0.105017 	0.142818 	3.22808 	-3.7961e-21
13.1853 	0.105017 	0.142818 	3.22808 	-3.7961e-21
13.2554 	0.105017 	0.142818 	3.22808 	-3.7961e-21
13.3255 	0.105017 	0.142818 	3.22808 	-3.7961e-21
13.3957 	0.333216 	0.148783 	3.19938 	8.09801e-19
13.4658 	0.333216 	0.148783 	3.19938 	8.09801e-19
13.5359 	0.333216 	0.148783 	3.19938 	8.09801e-19
13.6061 	0.333216 	0.148783 	3.19938 	8.09801e-19
13.6762 	0.333216 	0.148783 	3.19938 	8.09801e-19
13.7463 	0.333216 	0.148783 	3.19938 	8.09801e-19
13.8165 	0.403635 	0.128859 	2.87601 	-6.6902e-19
13.8866 	0.59033 	0.152858 	2.97013 	1.22306e-19
13.9567 	0.59033 	0.152858 	2.97013 	1.22306e-19
14.0269 	0.0123751 	0.256457 	3.04406 	-7.26524e-19
14.097 	0.0123751 	0.256457 	3.04406 	-7.26524e-19
14.1671 	0.0123751 	0.256457 	3.04406 	-7.26524e-19
14.2373 	0.0123751 	0.256457 	3.04406 	-7.26524e-19
14.3074 	0.0123751 	0.256457 	3.04406 	-7.26524e-19
14.3776 	0.0123751 	0.256457 	3.04406 	-7.26524e-19
14.4477 	0.0123751 	0.256457 	3.04406 	-7.26524e-19
14.5178 	0.0123751 	0.256457 	3.04406 	-7.26524e-19
14.588 	0.0123751 	0.256457 	3.04406 	-7.26524e-19
14.6581 	0.0123751 	0.256457 	3.04406 	-7.26524e-19
14.7282 	0.0123751 	0.256457 	3.04406 	-7.26524e-19
14.7984 	0.0123751 	0.256457 	3.04406 	-7.26524e-19
14.8685 	0.0123751 	0.256457 	3.04406 	-7.26524e-19
14.9386 	-0.168562 	0.351695 	3.20258 	0
15.0088 	-0.168562 	0.351695 	3.20258 	0
15.0789 	-0.168562 	0.351695 	3.20258 	0
15.149 	-0.168562 	0.351695 	3.20258 	0
15.2192 	-0.168562 	0.351695 	3.20258 	0
15.2893 	-0.671261 	0.343247 	3.43223 	-4.42566e-19
15.3594 	-0.671261 	0.343247 	3.43223 	-4.42566e-19
15.4296 	-0.671261 	0.343247 	3.43223 	-4.42566e-19
15.4997 	-0.671261 	0.343247 	3.43223 	-4.42566e-19
15.5698 	-0.671261 	0.343247 	3.43223 	-4.42566e-19
15.64 	-0.671261 	0.343247 	3.43223 	-4.42566e-19
15.7101 	-1.17061 	0.399263 	3.50459 	0
15.7802 	-1.17061 	0.399263 	3.50459 	0
15.8504 	-1.07606 	0.649105 	3.5638 	1.66031e-18
15.9205 	-1.07606 	0.649105 	3.5638 	1.66031e-18
15.9906 	-1.07606 	0.649105 	3.5638 	1.66031e-18
16.0608 	-1.07606 	0.649105 	3.5638 	1.66031e-18
16.1309 	-1.07606 	0.649105 	3.5638 	1.66031e-18
16.201 	-1.07606 	0.649105 	3.5638 	1.66031e-18
16.2712 	-1.07606 	0.649105 	3.5638 	1.66031e-18
16.3413 	-1.07606 	0.649105 	3.5638 	1.66031e-18
16.4114 	-1.07606 	0.649105 	3.5638 	1.66031e-18
16.4816 	-1.07606 	0.649105 	3.5638 	1.66031e-18
16.5517 	-1.07606 	0.649105 	3.5638 	1.66031e-18
16.6219 	-1.07606 	0.649105 	3.5638 	1.66031e-18
16.692 	-1.07606 	0.649105 	3.5638 	1.66031e-18
16.7621 	-1.07606 	0.649105 	3.5638 	1.66031e-18
16.8323 	-0.630931 	0.872606 	3.13099 	3.85469e-19
16.9024 	-0.630931 	0.872606 	3.13099 	3.85469e-19
16.9725 	-0.630931 	0.872606 	3.13099 	3.85469e-19
17.0427 	-0.630931 	0.872606 	3.13099 	3.85469e-19
17.1128 	-0.630931 	0.872606 	3.13099 	3.85469e-19
17.1829 	-0.630931 	0.872606 	3.13099 	3.85469e-19
17.2531 	-0.630931 	0.872606 	3.13099 	3.85469e-19
17.3232 	-0.630931 	0.872606 	3.13099 	3.85469e-19
17.3933 	-0.630931 	0.872606 	3.13099 	3.85469e-19
17.4635 	-0.630931 	0.872606 	3.13099 	3.85469e-19
17.5336 	-0.542748 	0.912083 	3.05168 	-4.28849e-19
17.6037 	-0.542748 	0.912083 	3.05168 	-4.28849e-19
17.6739 	-0.542748 	0.912083 	3.05168 	-4.28849e-19
17.744 	-0.630438 	1.04036 	3.17939 	4.77427e-19
17.8141 	-0.630438 	1.04036 	3.17939 	4.77427e-19
17.8843 	-0.630438 	1.04036 	3.17939 	4.77427e-19
17.9544 	-0.630438 	1.04036 	3.17939 	4.77427e-19
18.0245 	-0.630438 	1.04036 	3.17939 	4.77427e-19
18.0947 	-0.630438 	1.04036 	3.17939 	4.77427e-19
18.1648 	-0.630438 	1.04036 	3.17939 	4.77427e-19
18.2349 	-0.630438 	1.04036 	3.17939 	4.77427e-19
18.3051 	-0.630438 	1.04036 	3.17939 	4.77427e-19
18.3752 	-0.337477 	0.999045 	2.78996 	-3.62937e-19
18.4453 	-0.337477 	0.999045 	2.78996 	-3.62937e-19
18.5155 	-0.337477 	0.999045 	2.78996 	-3.62937e-19
18.5856 	-0.337477 	0.999045 	2.78996 	-3.62937e-19
18.6557 	-0.337477 	0.999045 	2.78996 	-3.62937e-19
18.7259 	-0.337477 	0.999045 	2.78996 	-3.62937e-19
18.796 	-0.337477 	0.999045 	2.78996 	-3.62937e-19
18.8662 	-0.26 	1.03661 	2.84259 	2.73415e-19
18.9363 	-0.26 	1.03661 	2.84259 	2.73415e-19
19.0064 	-0.26 	1.03661 	2.84259 	2.73415e-19
19.0766 	-0.26 	1.03661 	2.84259 	2.73415e-19
19.1467 	-0.26 	1.03661 	2.84259 	2.73415e-19
19.2168 	-0.26 	1.03661 	2.84259 	2.73415e-19
19.287 	-0.26 	1.03661 	2.84259 	2.73415e-19
19.3571 	-0.26 	1.03661 	2.84259 	2.73415e-19
19.4272 	-0.26 	1.03661 	2.84259 	2.73415e-19
19.4974 	-0.26 	1.03661 	2.84259 	2.73415e-19
19.5675 	-0.26 	1.03661 	2.84259 	2.73415e-19
19.6376 	-0.26 	1.03661 	2.84259 	2.73415e-19
19.7078 	-0.26 	1.03661 	2.84259 	2.73415e-19
19.7779 	-0.107453 	0.983518 	2.47522 	-7.62111e-20
19.848 	-0.107453 	0.983518 	2.47522 	-7.62111e-20
19.9182 	-0.107453 	0.983518 	2.47522 	-7.62111e-20
19.9883 	-0.107453 	0.983518 	2.47522 	-7.62111e-20
20.0584 	-0.107453 	0.983518 	2.47522 	-7.62111e-20
20.1286 	-0.107453 	0.983518 	2.47522 	-7.62111e-20
20.1987 	-0.107453 	0.983518 	2.47522 	-7.62111e-20
20.2688 	-0.103859 	0.988097 	2.46416 	-1.4004e-19
20.339 	-0.103859 	0.988097 	2.46416 	-1.4004e-19
20.4091 	-0.103859 	0.988097 	2.46416 	-1.4004e-19
20.4792 	-0.103859 	0.988097 	2.46416 	-1.4004e-19
20.5494 	-0.103859 	0.988097 	2.46416 	-1.4004e-19
20.6195 	-0.103859 	0.988097 	2.46416 	-1.4004e-19
20.6896 	-0.103859 	0.988097 	2.46416 	-1.4004e-19
20.7598 	-0.103859 	0.988097 	2.46416 	-1.4004e-19
20.8299 	-0.103859 	0.988097 	2.46416 	-1.4004e-19
20.9 	-0.103859 	0.988097 	2.46416 	-1.4004e-19
20.9702 	-0.103859 	0.988097 	2.46416 	-1.4004e-19
21.0403 	-0.103859 	0.988097 	2.46416 	-1.4004e-19
21.1105 	-0.103859 	0.988097 	2.46416 	-1.4004e-19
21.1806 	-0.103859 	0.988097 	2.46416 	-1.4004e-19
21.2507 	-0.103859 	0.988097 	2.46416 	-1.4004e-19
21.3209 	-0.103859 	0.988097 	2.46416 	-1.4004e-19
21.391 	-0.103859 	0.988097 	2.46416 	-1.4004e-19
21.4611 	-0.084887 	0.700539 	1.92391 	7.46784e-20
21.5313 	-0.084887 	0.700539 	1.92391 	7.46784e-20
21.6014 	-0.084887 	0.700539 	1.92391 	7.46784e-20
21.6715 	-0.193395 	0.632561 	1.42188 	1.87172e-19
21.7417 	-0.193395 	0.632561 	1.42188 	1.87172e-19
21.8118 	-0.193395 	0.632561 	1.42188 	1.87172e-19
21.8819 	-0.193395 	0.632561 	1.42188 	1.87172e-19
21.9521 	-0.193395 	0.632561 	1.42188 	1.87172e-19
22.0222 	-0.346143 	0.946765 	2.37277 	-2.69319e-19
22.0923 	-0.346143 	0.946765 	2.37277 	-2.69319e-19
22.1625 	-0.346143 	0.946765 	2.37277 	-2.69319e-19
22.2326 	-0.346143 	0.946765 	2.37277 	-2.69319e-19
22.3027 	-0.346143 	0.946765 	2.37277 	-2.69319e-19
22.3729 	-0.346143 	0.946765 	2.37277 	-2.69319e-19
22.443 	-0.346143 	0.946765 	2.37277 	-2.69319e-19
22.5131 	-0.346143 	0.946765 	2.37277 	-2.69319e-19
22.5833 	-0.346143 	0.946765 	2.37277 	-2.69319e-19
22.6534 	-0.346143 	0.946765 	2.37277 	-2.69319e-19
22.7235 	-0.346143 	0.946765 	2.37277 	-2.69319e-19
22.7937 	-0.346143 	0.946765 	2.37277 	-2.69319e-19
22.8638 	-0.346143 	0.946765 	2.37277 	-2.69319e-19
22.9339 	-0.346143 	0.946765 	2.37277 	-2.69319e-19
23.0041 	-0.346143 	0.946765 	2.37277 	-2.69319e-19
23.0742 	-0.346143 	0.946765 	2.37277 	-2.69319e-19
23.1443 	-0.346143 	0.946765 	2.37277 	-2.69319e-19
23.2145 	-0.346143 	0.946765 	2.37277 	-2.69319e-19
23.2846 	-0.346143 	0.946765 	2.37277 	-2.69319e-19
23.3548 	-0.346143 	0.946765 	2.37277 	-2.69319e-19
23.4249 	-0.346143 	0.946765 	2.37277 	-2.69319e-19
23.495 	-0.179324 	0.916855 	2.34427 	3.48845e-20
23.5652 	-0.179324 	0.916855 	2.34427 	3.48845e-20
23.6353 	-0.179324 	0.916855 	2.34427 	3.48845e-20
23.7054 	-0.179324 	0.916855 	2.34427 	3.48845e-20
23.7756 	-0.179324 	0.916855 	2.34427 	3.48845e-20
23.8457 	-0.179324 	0.916855 	2.34427 	3.48845e-20
23.9158 	-0.179324 	0.916855 	2.34427 	3.48845e-20
23.986 	-0.0558962 	0.855265 	2.26498 	-2.00106e-21
24.0561 	-0.0558962 	0.855265 	2.26498 	-2.00106e-21
24.1262 	-0.0558962 	0.855265 	2.26498 	-2.00106e-21
24.1964 	-0.0558962 	0.855265 	2.26498 	-2.00106e-21
24.2665 	-0.0558962 	0.855265 	2.26498 	-2.00106e-21
24.3366 	-0.0558962 	0.855265 	2.26498 	-2.00106e-21
24.4068 	-0.0558962 	0.855265 	2.26498 	-2.00106e-21
24.4769 	-0.0558962 	0.855265 	2.26498 	-2.00106e-21
24.547 	-0.0558962 	0.855265 	2.26498 	-2.00106e-21
24.6172 	-0.0558962 	0.855265 	2.26498 	-2.00106e-21
24.6873 	-0.0558962 	0.855265 	2.26498 	-2.00106e-21
24.7574 	-0.0558962 	0.855265 	2.26498 	-2.00106e-21
24.8276 	-0.0558962 	0.855265 	2.26498 	-2.00106e-21
24.8977 	-0.0558962 	0.855265 	2.26498 	-2.00106e-21
24.9678 	-0.0558962 	0.855265 	2.26498 	-2.00106e-21
25.038 	-0.0558962 	0.855265 	2.26498 	-2.00106e-21
25.1081 	-0.0558962 	0.855265 	2.26498 	-2.00106e-21
25.1782 	-0.0998305 	0.493605 	1.37996 	0
25.2484 	-0.0998305 	0.493605 	1.37996 	0
25.3185 	-0.0998305 	0.493605 	1.37996 	0
25.3886 	-0.0998305 	0.493605 	1.37996 	0
25.4588 	-0.0998305 	0.493605 	1.37996 	0
25.5289 	-0.0998305 	0.493605 	1.37996 	0
25.5991 	-0.0998305 	0.493605 	1.37996 	0
25.6692 	-0.0998305 	0.493605 	1.37996 	0
25.7393 	-0.0998305 	0.493605 	1.37996 	0
25.8095 	-0.0998305 	0.493605 	1.37996 	0
25.8796 	-0.0998305 	0.493605 	1.37996 	0
25.9497 	-0.0998305 	0.493605 	1.37996 	0
26.0199 	-0.0998305 	0.493605 	1.37996 	0
26.09 	-0.0998305 	0.493605 	1.37996 	0
26.1601 	-0.0998305 	0.493605 	1.37996 	0
26.2303 	-0.168596 	0.477113 	1.40793 	3.68613e-19
26.3004 	-0.168596 	0.477113 	1.40793 	3.68613e-19
26.3705 	-0.168596 	0.477113 	1.40793 	3.68613e-19
26.4407 	-0.168596 	0.477113 	1.40793 	3.68613e-19
26.5108 	-0.168596 	0.477113 	1.40793 	3.68613e-19
26.5809 	-0.168596 	0.477113 	1.40793 	3.68613e-19
26.6511 	-0.168596 	0.477113 	1.40793 	3.68613e-19
26.7212 	-0.168596 	0.477113 	1.40793 	3.68613e-19
26.7913 	-0.168596 	0.477113 	1.40793 	3.68613e-19
26.8615 	-0.168596 	0.477113 	1.40793 	3.68613e-19
26.9316 	-0.168596 	0.477113 	1.40793 	3.68613e-19
27.0017 	-0.168596 	0.477113 	1.40793 	3.68613e-19
27.0719 	-0.168596 	0.477113 	1.40793 	3.68613e-19
27.142 	-0.168596 	0.477113 	1.40793 	3.68613e-19
27.2121 	-0.168596 	0.477113 	1.40793 	3.68613e-19
27.2823 	-0.168596 	0.477113 	1.40793 	3.68613e-19
27.3524 	-0.200573 	0.440101 	1.41332 	-3.96041e-19
27.4225 	-0.200573 	0.440101 	1.41332 	-3.96041e-19
27.4927 	-0.200573 	0.440101 	1.41332 	-3.96041e-19
27.5628 	-0.200573 	0.440101 	1.41332 	-3.96041e-19
27.6329 	-0.200573 	0.440101 	1.41332 	-3.96041e-19
27.7031 	-0.200573 	0.440101 	1.41332 	-3.96041e-19
27.7732 	-0.200573 	0.440101 	1.41332 	-3.96041e-19
27.8434 	-0.200573 	0.440101 	1.41332 	-3.96041e-19
27.9135 	-0.200573 	0.440101 	1.41332 	-3.96041e-19
27.9836 	-0.200573 	0.440101 	1.41332 	-3.96041e-19
28.0538 	-0.200573 	0.440101 	1.41332 	-3.96041e-19
28.1239 	-0.200573 	0.440101 	1.41332 	-3.96041e-19
28.194 	-0.200573 	0.440101 	1.41332 	-3.96041e-19
28.2642 	-0.200573 	0.440101 	1.41332 	-3.96041e-19
28.3343 	-0.200573 	0.440101 	1.41332 	-3.96041e-19
28.4044 	-0.200573 	0.440101 	1.41332 	-3.96041e-19
28.4746 	-0.200573 	0.440101 	1.41332 	-3.96041e-19
28.5447 	-0.200573 	0.440101 	1.41332 	-3.96041e-19
28.6148 	-0.200573 	0.440101 	1.41332 	-3.96041e-19
28.685 	-0.200573 	0.440101 	1.41332 	-3.96041e-19
28.7551 	-0.200573 	0.440101 	1.41332 	-3.96041e-19
28.8252 	-0.200573 	0.440101 	1.41332 	-3.96041e-19
28.8954 	-0.200573 	0.440101 	1.41332 	-3.96041e-19
28.9655 	-0.231283 	0.408057 	1.34878 	-2.16382e-20
29.0356 	-0.231283 	0.408057 	1.34878 	-2.16382e-20
29.1058 	-0.231283 	0.408057 	1.34878 	-2.16382e-20
29.1759 	-0.231283 	0.408057 	1.34878 	-2.16382e-20
29.246 	-0.231283 	0.408057 	1.34878 	-2.16382e-20
29.3162 	-0.231283 	0.408057 	1.34878 	-2.16382e-20
29.3863 	-0.231283 	0.408057 	1.34878 	-2.16382e-20
29.4564 	-0.231283 	0.408057 	1.34878 	-2.16382e-20
29.5266 	-0.231283 	0.408057 	1.34878 	-2.16382e-20
29.5967 	-0.231283 	0.408057 	1.34878 	-2.16382e-20
29.6668 	-0.231283 	0.408057 	1.34878 	-2.16382e-20
29.737 	-0.231283 	0.408057 	1.34878 	-2.16382e-20
29.8071 	-0.231283 	0.408057 	1.34878 	-2.16382e-20
29.8773 	-0.231283 	0.408057 	1.34878 	-2.16382e-20
29.9474 	-0.231283 	0.408057 	1.34878 	-2.16382e-20
30.0175 	-0.231283 	0.408057 	1.34878 	-2.16382e-20
30.0877 	-0.231283 	0.408057 	1.34878 	-2.16382e-20
30.1578 	-0.231283 	0.408057 	1.34878 	-2.16382e-20
30.2279 	-0.231283 	0.408057 	1.34878 	-2.16382e-20
30.2981 	-0.231283 	0.408057 	1.34878 	-2.16382e-20
30.3682 	-0.231283 	0.408057 	1.34878 	-2.16382e-20
30.4383 	-0.231283 	0.408057 	1.34878 	-2.16382e-20
30.5085 	-0.231283 	0.408057 	1.34878 	-2.16382e-20
30.5786 	-0.231283 	0.408057 	1.34878 	-2.16382e-20
30.6487 	-0.231283 	0.408057 	1.34878 	-2.16382e-20
30.7189 	-0.231283 	0.408057 	1.34878 	-2.16382e-20
30.789 	-0.235575 	0.440234 	1.35978 	6.17671e-19
30.8591 	-0.235575 	0.440234 	1.35978 	6.17671e-19
30.9293 	-0.235575 	0.440234 	1.35978 	6.17671e-19
30.9994 	-0.235575 	0.440234 	1.35978 	6.17671e-19
31.0695 	-0.235575 	0.440234 	1.35978 	6.17671e-19
31.1397 	-0.235575 	0.440234 	1.35978 	6.17671e-19
31.2098 	-0.235575 	0.440234 	1.35978 	6.17671e-19
31.2799 	-0.235575 	0.440234 	1.35978 	6.17671e-19
31.3501 	-0.235575 	0.440234 	1.35978 	6.17671e-19
31.4202 	-0.235575 	0.440234 	1.35978 	6.17671e-19
31.4903 	-0.235575 	0.440234 	1.35978 	6.17671e-19
31.5605 	-0.235575 	0.440234 	1.35978 	6.17671e-19
31.6306 	-0.235575 	0.440234 	1.35978 	6.17671e-19
31.7007 	-0.235575 	0.440234 	1.35978 	6.17671e-19
31.7709 	-0.235575 	0.440234 	1.35978 	6.17671e-19
31.841 	-0.235575 	0.440234 	1.35978 	6.17671e-19
31.9111 	-0.235575 	0.440234 	1.35978 	6.17671e-19
31.9813 	-0.235575 	0.440234 	1.35978 	6.17671e-19
32.0514 	-0.235575 	0.440234 	1.35978 	6.17671e-19
32.1216 	-0.235575 	0.440234 	1.35978 	6.17671e-19
32.1917 	-0.235575 	0.440234 	1.35978 	6.17671e-19
32.2618 	-0.235575 	0.440234 	1.35978 	6.17671e-19
32.332 	-0.235575 	0.440234 	1.35978 	6.17671e-19
32.4021 	-0.235575 	0.440234 	1.35978 	6.17671e-19
32.4722 	-0.235575 	0.440234 	1.35978 	6.17671e-19
32.5424 	-0.235575 	0.440234 	1.35978 	6.17671e-19
32.6125 	-0.235575 	0.440234 	1.35978 	6.17671e-19
32.6826 	-0.235575 	0.440234 	1.35978 	6.17671e-19
32.7528 	-0.235575 	0.440234 	1.35978 	6.17671e-19
32.8229 	-0.235575 	0.440234 	1.35978 	6.17671e-19
32.893 	-0.235575 	0.440234 	1.35978 	6.17671e-19
32.9632 	-0.235575 	0.440234 	1.35978 	6.17671e-19
33.0333 	-0.235575 	0.440234 	1.35978 	6.17671e-19
33.1034 	-0.235575 	0.440234 	1.35978 	6.17671e-19
33.1736 	-0.235575 	0.440234 	1.35978 	6.17671e-19
33.2437 	-0.235575 	0.440234 	1.35978 	6.17671e-19
33.3138 	-0.235575 	0.440234 	1.35978 	6.17671e-19
33.384 	-0.235575 	0.440234 	1.35978 	6.17671e-19
33.4541 	-0.235575 	0.440234 	1.35978 	6.17671e-19
33.5242 	-0.235575 	0.440234 	1.35978 	6.17671e-19
33.5944 	-0.235575 	0.440234 	1.35978 	6.17671e-19
33.6645 	-0.235575 	0.440234 	1.35978 	6.17671e-19
33.7346 	-0.34331 	0.47447 	1.40115 	-4.0006e-19
33.8048 	-0.34331 	0.47447 	1.40115 	-4.0006e-19
33.8749 	-0.34331 	0.47447 	1.40115 	-4.0006e-19
33.945 	-0.34331 	0.47447 	1.40115 	-4.0006e-19
34.0152 	-0.34331 	0.47447 	1.40115 	-4.0006e-19
34.0853 	-0.34331 	0.47447 	1.40115 	-4.0006e-19
34.1554 	-0.432072 	0.488644 	1.30665 	4.68398e-19
34.2256 	-0.432072 	0.488644 	1.30665 	4.68398e-19
34.2957 	-0.432072 	0.488644 	1.30665 	4.68398e-19
34.3659 	-0.432072 	0.488644 	1.30665 	4.68398e-19
34.436 	-0.432072 	0.488644 	1.30665 	4.68398e-19
34.5061 	-0.432072 	0.488644 	1.30665 	4.68398e-19
34.5763 	-0.432072 	0.488644 	1.30665 	4.68398e-19
34.6464 	-0.432072 	0.488644 	1.30665 	4.68398e-19
34.7165 	-0.296619 	0.486438 	1.71747 	-3.52129e-19
34.7867 	-0.296619 	0.486438 	1.71747 	-3.52129e-19
34.8568 	-0.296619 	0.486438 	1.71747 	-3.52129e-19
34.9269 	-0.296619 	0.486438 	1.71747 	-3.52129e-19
34.9971 	-0.296619 	0.486438 	1.71747 	-3.52129e-19
35.0672 	-0.296619 	0.486438 	1.71747 	-3.52129e-19
35.1373 	-0.296619 	0.486438 	1.71747 	-3.52129e-19
35.2075 	-0.296619 	0.486438 	1.71747 	-3.52129e-19
35.2776 	-0.296619 	0.486438 	1.71747 	-3.52129e-19
35.3477 	-0.296619 	0.486438 	1.71747 	-3.52129e-19
35.4179 	-0.296619 	0.486438 	1.71747 	-3.52129e-19
35.488 	-0.296619 	0.486438 	1.71747 	-3.52129e-19
35.5581 	-0.296619 	0.486438 	1.71747 	-3.52129e-19
35.6283 	-0.296619 	0.486438 	1.71747 	-3.52129e-19
35.6984 	-0.296619 	0.486438 	1.71747 	-3.52129e-19
35.7685 	-0.296619 	0.486438 	1.71747 	-3.52129e-19
35.8387 	-0.296619 	0.486438 	1.71747 	-3.52129e-19
35.9088 	-0.296619 	0.486438 	1.71747 	-3.52129e-19
35.9789 	-0.296619 	0.486438 	1.71747 	-3.52129e-19
36.0491 	-0.343302 	0.463083 	1.72881 	0
36.1192 	-0.343302 	0.463083 	1.72881 	0
36.1893 	-0.343302 	0.463083 	1.72881 	0
36.2595 	-0.343302 	0.463083 	1.72881 	0
36.3296 	-0.343302 	0.463083 	1.72881 	0
36.3997 	-0.343302 	0.463083 	1.72881 	0
36.4699 	-0.343302 	0.463083 	1.72881 	0
36.54 	-0.343302 	0.463083 	1.72881 	0
36.6102 	-0.343302 	0.463083 	1.72881 	0
36.6803 	-0.343302 	0.463083 	1.72881 	0
36.7504 	-0.343302 	0.463083 	1.72881 	0
36.8206 	-0.343302 	0.463083 	1.72881 	0
36.8907 	-0.593692 	0.408242 	1.50156 	-5.97484e-19
36.9608 	-0.593692 	0.408242 	1.50156 	-5.97484e-19
37.031 	-0.593692 	0.408242 	1.50156 	-5.97484e-19
37.1011 	-0.593692 	0.408242 	1.50156 	-5.97484e-19
37.1712 	-0.593692 	0.408242 	1.50156 	-5.97484e-19
37.2414 	-0.593692 	0.408242 	1.50156 	-5.97484e-19
37.3115 	-0.593692 	0.408242 	1.50156 	-5.97484e-19
37.3816 	-0.593692 	0.408242 	1.50156 	-5.97484e-19
37.4518 	-0.593692 	0.408242 	1.50156 	-5.97484e-19
37.5219 	-0.593692 	0.408242 	1.50156 	-5.97484e-19
37.592 	-0.593692 	0.408242 	1.50156 	-5.97484e-19
37.6622 	-0.593692 	0.408242 	1.50156 	-5.97484e-19
37.7323 	-0.593692 	0.408242 	1.50156 	-5.97484e-19
37.8024 	-0.593692 	0.408242 	1.50156 	-5.97484e-19
37.8726 	-0.593692 	0.408242 	1.50156 	-5.97484e-19
37.9427 	-0.593692 	0.408242 	1.50156 	-5.97484e-19
38.0128 	-0.593692 	0.408242 	1.50156 	-5.97484e-19
38.083 	-0.593692 	0.408242 	1.50156 	-5.97484e-19
38.1531 	-0.593692 	0.408242 	1.50156 	-5.97484e-19
38.2232 	-0.647182 	0.1485 	1.89088 	6.86126e-19
38.2934 	-0.647182 	0.1485 	1.89088 	6.86126e-19
38.3635 	-0.647182 	0.1485 	1.89088 	6.86126e-19
38.4336 	-0.647182 	0.1485 	1.89088 	6.86126e-19
38.5038 	-0.647182 	0.1485 	1.89088 	6.86126e-19
38.5739 	-0.647182 	0.1485 	1.89088 	6.86126e-19
38.644 	-0.647182 	0.1485 	1.89088 	6.86126e-19
38.7142 	-0.647182 	0.1485 	1.89088 	6.86126e-19
38.7843 	-0.647182 	0.1485 	1.89088 	6.86126e-19
38.8545 	-0.647182 	0.1485 	1.89088 	6.86126e-19
38.9246 	-0.647182 	0.1485 	1.89088 	6.86126e-19
38.9947 	-0.647182 	0.1485 	1.89088 	6.86126e-19
39.0649 	-0.647182 	0.1485 	1.89088 	6.86126e-19
39.135 	-0.647182 	0.1485 	1.89088 	6.86126e-19
39.2051 	-0.612087 	-0.00651341 	1.77715 	0
39.2753 	-0.612087 	-0.00651341 	1.77715 	0
39.3454 	-0.612087 	-0.00651341 	1.77715 	0
39.4155 	-0.612087 	-0.00651341 	1.77715 	0
39.4857 	-0.612087 	-0.00651341 	1.77715 	0
39.5558 	-0.612087 	-0.00651341 	1.77715 	0
39.6259 	-0.612087 	-0.00651341 	1.77715 	0
39.6961 	-0.612087 	-0.00651341 	1.77715 	0
39.7662 	-0.612087 	-0.00651341 	1.77715 	0
39.8363 	-0.612087 	-0.00651341 	1.77715 	0
39.9065 	-0.612087 	-0.00651341 	1.77715 	0
39.9766 	-0.612087 	-0.00651341 	1.77715 	0
40.0467 	-0.612087 	-0.00651341 	1.77715 	0
40.1169 	-0.612087 	-0.00651341 	1.77715 	0
40.187 	-0.612087 	-0.00651341 	1.77715 	0
40.2571 	-0.612087 	-0.00651341 	1.77715 	0
40.3273 	-0.612087 	-0.00651341 	1.77715 	0
40.3974 	-0.612087 	-0.00651341 	1.77715 	0
40.4675 	-0.612087 	-0.00651341 	1.77715 	0
40.5377 	-0.612087 	-0.00651341 	1.77715 	0
40.6078 	-0.612087 	-0.00651341 	1.77715 	0
40.6779 	-0.511619 	-0.158494 	1.7841 	2.48172e-19
40.7481 	-0.511619 	-0.158494 	1.7841 	2.48172e-19
40.8182 	-0.511619 	-0.158494 	1.7841 	2.48172e-19
40.8883 	-0.511619 	-0.158494 	1.7841 	2.48172e-19
40.9585 	-0.511619 	-0.158494 	1.7841 	2.48172e-19
41.0286 	-0.511619 	-0.158494 	1.7841 	2.48172e-19
41.0988 	-0.511619 	-0.158494 	1.7841 	2.48172e-19
41.1689 	-0.511619 	-0.158494 	1.7841 	2.48172e-19
41.239 	-0.381932 	-0.291968 	1.77312 	-4.65673e-19
41.3092 	-0.381932 	-0.291968 	1.77312 	-4.65673e-19
41.3793 	-0.381932 	-0.291968 	1.77312 	-4.65673e-19
41.4494 	-0.381932 	-0.291968 	1.77312 	-4.65673e-19
41.5196 	-0.381932 	-0.291968 	1.77312 	-4.65673e-19
41.5897 	-0.381932 	-0.291968 	1.77312 	-4.65673e-19
41.6598 	-0.381932 	-0.291968 	1.77312 	-4.65673e-19
41.73 	-0.381932 	-0.291968 	1.77312 	-4.65673e-19
41.8001 	-0.381932 	-0.291968 	1.77312 	-4.65673e-19
41.8702 	-0.381932 	-0.291968 	1.77312 	-4.65673e-19
41.9404 	-0.381932 	-0.291968 	1.77312 	-4.65673e-19
42.0105 	-0.381932 	-0.291968 	1.77312 	-4.65673e-19
42.0806 	-0.381932 	-0.291968 	1.77312 	-4.65673e-19
42.1508 	-0.381932 	-0.291968 	1.77312 	-4.65673e-19
42.2209 	-0.381932 	-0.291968 	1.77312 	-4.65673e-19
42.291 	-0.381932 	-0.291968 	1.77312 	-4.65673e-19
42.3612 	-0.381932 	-0.291968 	1.77312 	-4.65673e-19
42.4313 	-0.381932 	-0.291968 	1.77312 	-4.65673e-19
42.5014 	-0.381932 	-0.291968 	1.77312 	-4.65673e-19
42.5716 	-0.381932 	-0.291968 	1.77312 	-4.65673e-19
42.6417 	-0.381932 	-0.291968 	1.77312 	-4.65673e-19
42.7118 	-0.317434 	-0.37703 	1.80818 	0
42.782 	-0.317434 	-0.37703 	1.80818 	0
42.8521 	-0.317434 	-0.37703 	1.80818 	0
42.9222 	-0.317434 	-0.37703 	1.80818 	0
42.9924 	-0.158417 	-0.381153 	1.8565 	0
43.0625 	-0.158417 	-0.381153 	1.8565 	0
43.1327 	-0.158417 	-0.381153 	1.8565 	0