/*--------------------------------*- C++ -*----------------------------------*\
| =========                 |                                                 |
| \\      /  F ield         | OpenFOAM: The Open Source CFD Toolbox           |
|  \\    /   O peration     | Version:  2306                                  |
|   \\  /    A nd           | Website:  www.openfoam.com                      |
|    \\/     M anipulation  |                                                 |
\*---------------------------------------------------------------------------*/
FoamFile
{
    version     2.0;
    format      ascii;
    arch        "LSB;label=32;scalar=64";
    class       volScalarField;
    location    "25";
    object      p;
}
// * * * * * * * * * * * * * * * * * * * * * * * * * * * * * * * * * * * * * //

dimensions      [0 2 -2 0 0 0 0];

internalField   nonuniform List<scalar> 
8800
(
0.433841
0.38579
0.347411
0.318764
0.29813
0.283357
0.272724
0.265177
0.260275
0.25811
0.259252
0.263333
0.269899
0.279156
0.291852
0.3094
0.333815
0.367406
0.409834
0.466955
0.266377
0.273582
0.282018
0.28543
0.283508
0.277975
0.271245
0.265054
0.260242
0.257293
0.256888
0.259266
0.263661
0.269561
0.276395
0.282959
0.287053
0.286518
0.280428
0.271434
0.243098
0.249276
0.253475
0.256834
0.259328
0.260111
0.258977
0.256787
0.254674
0.253645
0.254464
0.25672
0.259434
0.261554
0.26201
0.26042
0.257525
0.253851
0.249301
0.245511
0.237986
0.240688
0.243416
0.245733
0.24738
0.248696
0.249579
0.249737
0.249392
0.249217
0.249809
0.250807
0.251452
0.25127
0.250377
0.249102
0.247288
0.244735
0.242279
0.240748
0.232828
0.234253
0.236067
0.238137
0.239899
0.241202
0.242202
0.243018
0.243599
0.244049
0.2445
0.244763
0.244627
0.244133
0.243311
0.242
0.240212
0.238259
0.236897
0.236076
0.227876
0.228791
0.230056
0.231674
0.233358
0.234897
0.236155
0.237181
0.238079
0.238835
0.239287
0.239348
0.239072
0.238447
0.237405
0.236034
0.234549
0.233176
0.232306
0.231768
0.223096
0.223761
0.224761
0.226121
0.227594
0.229115
0.230586
0.231881
0.232976
0.233889
0.23444
0.234521
0.234156
0.233371
0.232301
0.231121
0.229918
0.228851
0.228208
0.22782
0.21849
0.218995
0.219832
0.221052
0.222417
0.223866
0.225371
0.226857
0.228204
0.229319
0.229999
0.230091
0.229673
0.228915
0.22798
0.226964
0.225936
0.225061
0.224562
0.22427
0.214029
0.214419
0.215143
0.216277
0.217601
0.219003
0.220479
0.222008
0.223515
0.224856
0.225704
0.225906
0.225625
0.225042
0.224278
0.223394
0.222489
0.221755
0.221362
0.221138
0.209693
0.209993
0.210628
0.211696
0.21298
0.214368
0.215849
0.217422
0.219055
0.220627
0.2217
0.222115
0.222055
0.221674
0.221071
0.220336
0.219559
0.218946
0.218641
0.218471
0.205456
0.205683
0.206262
0.207318
0.208618
0.210064
0.211667
0.213378
0.215155
0.216924
0.218336
0.219091
0.21927
0.219023
0.218529
0.217903
0.21721
0.216683
0.216447
0.216322
0.20134
0.201495
0.202018
0.203049
0.204345
0.205779
0.20738
0.209208
0.211259
0.21341
0.215177
0.216213
0.216666
0.216734
0.216508
0.216056
0.215494
0.215069
0.214905
0.214822
0.19741
0.197507
0.197955
0.198898
0.200135
0.201573
0.203244
0.205181
0.207407
0.209909
0.21218
0.213752
0.214655
0.215051
0.215109
0.214909
0.214574
0.21431
0.21422
0.214167
0.193492
0.193551
0.193926
0.194777
0.195965
0.197427
0.199214
0.201411
0.204055
0.207101
0.209955
0.212004
0.213297
0.214057
0.214429
0.214541
0.214475
0.214399
0.214378
0.214338
0.189197
0.189246
0.189554
0.190309
0.191445
0.192923
0.194819
0.197234
0.200271
0.203938
0.207541
0.210308
0.21224
0.2135
0.214317
0.214791
0.215033
0.215155
0.21519
0.215149
0.184167
0.184219
0.184528
0.185273
0.186456
0.18808
0.190248
0.193104
0.196767
0.201266
0.205776
0.209321
0.211844
0.213618
0.21485
0.215659
0.216174
0.216445
0.216514
0.216467
0.178137
0.178188
0.178552
0.179356
0.180677
0.18254
0.185084
0.188492
0.192942
0.198497
0.204133
0.208631
0.21192
0.214275
0.215946
0.21712
0.217894
0.218282
0.218376
0.218322
0.170854
0.170906
0.171344
0.172317
0.173889
0.176142
0.179244
0.183444
0.188942
0.195819
0.202836
0.208463
0.212612
0.215622
0.217771
0.219298
0.220299
0.220785
0.220909
0.22085
0.162085
0.162134
0.162671
0.16389
0.165871
0.168685
0.172566
0.177809
0.184663
0.193208
0.201911
0.208897
0.214042
0.217753
0.220489
0.222428
0.223636
0.224219
0.22438
0.224316
0.151552
0.151595
0.15225
0.153802
0.156338
0.159922
0.164844
0.17144
0.180007
0.190626
0.201383
0.210007
0.216373
0.220996
0.224361
0.22668
0.228147
0.228858
0.229064
0.228992
0.138862
0.138904
0.139728
0.141696
0.144948
0.149556
0.155831
0.164193
0.174945
0.188132
0.201374
0.211944
0.219745
0.225424
0.229519
0.232346
0.23412
0.235
0.235255
0.235168
0.123318
0.123374
0.124428
0.126948
0.131168
0.137133
0.145214
0.155883
0.169417
0.185765
0.201976
0.214837
0.224328
0.231241
0.236204
0.239642
0.241811
0.2429
0.243203
0.243095
0.103753
0.103835
0.105262
0.10864
0.114193
0.12206
0.132632
0.146362
0.163435
0.183642
0.203357
0.218864
0.230287
0.238613
0.244602
0.24877
0.251418
0.252739
0.253092
0.252957
0.0783993
0.0785447
0.0806127
0.0853975
0.0930654
0.103705
0.117775
0.135583
0.157114
0.181945
0.205695
0.224188
0.237779
0.247708
0.254892
0.259938
0.263165
0.264751
0.265151
0.264979
0.0442238
0.0445432
0.0479314
0.0553204
0.0665599
0.0815202
0.100562
0.123724
0.150728
0.180931
0.209193
0.230952
0.246912
0.258626
0.267186
0.273273
0.277183
0.279066
0.2795
0.27928
-0.00463892
-0.00336439
0.00351778
0.0163383
0.0338261
0.0554567
0.0813508
0.111261
0.144712
0.180916
0.214022
0.239224
0.257685
0.271328
0.281438
0.288766
0.293511
0.295746
0.2962
0.295913
-0.0771339
-0.0690752
-0.0532627
-0.0306259
-0.00372825
0.0268412
0.0611047
0.0988055
0.139444
0.182239
0.220667
0.249728
0.271092
0.287075
0.299195
0.308232
0.314256
0.317202
0.317876
0.31769
-0.154594
-0.136696
-0.111188
-0.0781907
-0.0415671
-0.00191058
0.0408527
0.0865743
0.134862
0.185053
0.229904
0.263953
0.289243
0.308453
0.323341
0.334854
0.342683
0.346709
0.347939
0.347945
-0.218536
-0.197676
-0.164186
-0.122664
-0.0774439
-0.0292823
0.0216685
0.0751876
0.130878
0.188121
0.238955
0.277496
0.306216
0.32818
0.345259
0.358419
0.367776
0.372644
0.37363
0.373761
-0.270522
-0.247574
-0.209095
-0.161514
-0.109588
-0.0543665
0.00373284
0.0643302
0.126891
0.190685
0.246948
0.289393
0.320907
0.344912
0.363547
0.377877
0.388287
0.39356
0.394734
0.394973
-0.313424
-0.289445
-0.247401
-0.19511
-0.137856
-0.0768754
-0.0127283
0.0540589
0.122776
0.192511
0.253622
0.29938
0.333115
0.358662
0.378398
0.393598
0.404302
0.410055
0.411625
0.411894
-0.350056
-0.325462
-0.280757
-0.224775
-0.163074
-0.0972369
-0.0278836
0.0443317
0.118544
0.193634
0.259078
0.307703
0.343235
0.369909
0.390336
0.405956
0.416925
0.422942
0.424714
0.424963
-0.382361
-0.357388
-0.310617
-0.25152
-0.18611
-0.116074
-0.0421411
0.034921
0.114116
0.194117
0.263557
0.314764
0.351833
0.379369
0.400203
0.415978
0.427
0.433059
0.43494
0.435151
-0.411773
-0.386459
-0.338011
-0.276258
-0.207649
-0.133936
-0.0559198
0.0255411
0.109338
0.193968
0.267205
0.320893
0.359407
0.387688
0.408859
0.424684
0.435733
0.441835
0.443795
0.443979
-0.439157
-0.413537
-0.363638
-0.299612
-0.228197
-0.151221
-0.06954
0.0159387
0.104039
0.193095
0.270082
0.326232
0.366196
0.395275
0.416831
0.43281
0.443832
0.449835
0.45187
0.452088
-0.465212
-0.439237
-0.387923
-0.322025
-0.248072
-0.1682
-0.0832256
0.00593777
0.098066
0.191398
0.272131
0.330872
0.372453
0.402477
0.424509
0.440681
0.451743
0.457654
0.459642
0.459865
-0.490239
-0.463879
-0.411476
-0.343726
-0.267532
-0.18507
-0.0971195
-0.00458049
0.0913233
0.188809
0.27339
0.334959
0.378367
0.40949
0.432148
0.448628
0.45978
0.465632
0.467492
0.46765
-0.514578
-0.487725
-0.434362
-0.364918
-0.286729
-0.201947
-0.111305
-0.0156784
0.0837638
0.18531
0.273857
0.338456
0.383942
0.416395
0.439848
0.456754
0.468044
0.473842
0.475546
0.475616
-0.538293
-0.510996
-0.456677
-0.38571
-0.305742
-0.218882
-0.12582
-0.0273734
0.0753699
0.180837
0.273394
0.341292
0.38917
0.423209
0.447637
0.465076
0.476528
0.482245
0.483812
0.483762
-0.561474
-0.533688
-0.478485
-0.406151
-0.324593
-0.235883
-0.140656
-0.0396688
0.0661091
0.175295
0.271904
0.343378
0.393991
0.429912
0.455508
0.47357
0.485182
0.490761
0.492153
0.491999
-0.584195
-0.555866
-0.49978
-0.426238
-0.343275
-0.252918
-0.155781
-0.0525343
0.0559831
0.168664
0.269306
0.344564
0.398285
0.436454
0.463451
0.482215
0.493951
0.499289
0.500457
0.50022
-0.606457
-0.577528
-0.520594
-0.445946
-0.361732
-0.269943
-0.171134
-0.0659111
0.0450481
0.160941
0.265492
0.344682
0.401881
0.442757
0.471482
0.491008
0.502735
0.507708
0.508607
0.508295
-0.628102
-0.598613
-0.540876
-0.465239
-0.379919
-0.286881
-0.186638
-0.0797029
0.0333853
0.15215
0.260383
0.343558
0.404555
0.448687
0.479653
0.500075
0.511525
0.515848
0.516401
0.516029
-0.649077
-0.619065
-0.560584
-0.484056
-0.397772
-0.303662
-0.202192
-0.0938196
0.0210797
0.142333
0.253941
0.341022
0.406031
0.453993
0.487999
0.509769
0.520593
0.523647
0.52364
0.523248
-0.669453
-0.638839
-0.579684
-0.502354
-0.415222
-0.320199
-0.217705
-0.108153
0.00823561
0.131581
0.246147
0.33694
0.405996
0.458243
0.496349
0.520633
0.530923
0.531608
0.530216
0.529886
-0.689055
-0.657927
-0.598116
-0.520066
-0.432208
-0.33641
-0.23308
-0.122588
-0.00501502
0.120016
0.237034
0.331209
0.40415
0.460794
0.504041
0.532854
0.54442
0.542413
0.537538
0.536069
-0.707965
-0.676321
-0.615899
-0.53722
-0.448763
-0.35234
-0.248373
-0.137182
-0.0187424
0.107566
0.226477
0.323577
0.400189
0.46083
0.50971
0.545366
0.562134
0.561934
0.55107
0.537334
-0.726121
-0.694018
-0.633164
-0.554001
-0.465175
-0.368322
-0.263997
-0.152425
-0.033503
0.0935627
0.213772
0.31315
0.393389
0.457097
0.510443
0.553628
0.576362
0.571949
0.556799
0.541698
-0.74336
-0.711048
-0.649745
-0.570183
-0.481183
-0.384029
-0.279729
-0.167983
-0.0489642
0.0783201
0.199126
0.29965
0.383332
0.448871
0.501148
0.545479
0.569629
0.553915
0.484206
0.449841
-0.759247
-0.728581
-0.665248
-0.585186
-0.496081
-0.398968
-0.295287
-0.183609
-0.0648759
0.0620118
0.182604
0.282927
0.369187
0.436653
0.478634
0.512113
0.519646
0.471803
0.398439
0.353359
-0.808504
-0.744655
-0.679402
-0.600053
-0.511026
-0.414339
-0.310649
-0.199509
-0.0815191
0.0442832
0.163769
0.262764
0.348037
0.422189
0.430418
0.44205
0.411483
0.348446
0.269708
0.22571
-0.774998
-0.758457
-0.700063
-0.621645
-0.533008
-0.436752
-0.334059
-0.223968
-0.10756
0.0158215
0.131978
0.227507
0.303664
0.377009
0.378405
0.270797
0.166098
0.0938843
0.0192545
0.0586435
-0.805526
-0.775958
-0.716506
-0.638332
-0.549938
-0.454084
-0.351379
-0.242142
-0.127108
-0.0060194
0.106649
0.197869
0.265968
0.304808
0.259736
0.111822
-0.0196127
-0.112603
-0.214114
-0.154833
-0.828556
-0.796494
-0.735509
-0.657043
-0.568739
-0.47306
-0.370619
-0.262414
-0.149067
-0.0308086
0.0776023
0.162955
0.22098
0.227993
0.120753
-0.0612475
-0.22184
-0.346452
-0.482258
-0.43578
-0.850891
-0.817481
-0.755344
-0.676158
-0.587739
-0.492236
-0.390415
-0.283364
-0.171888
-0.0567917
0.046611
0.125314
0.168812
0.14048
-0.024536
-0.235068
-0.437752
-0.622994
-0.823947
-0.814024
-0.872471
-0.838817
-0.775874
-0.696056
-0.607477
-0.512208
-0.411115
-0.30532
-0.195941
-0.0843219
0.0135192
0.0849151
0.110816
0.0462977
-0.164112
-0.3955
-0.630258
-0.836644
-1.11771
-1.41044
-0.894218
-0.860701
-0.797343
-0.717097
-0.628355
-0.533273
-0.432836
-0.328305
-0.221094
-0.113113
-0.021048
0.0421822
0.0497197
-0.066483
-0.286949
-0.523422
-0.757059
-0.945707
-1.03558
-1.18929
-0.916927
-0.883536
-0.820023
-0.739592
-0.650811
-0.556001
-0.456301
-0.353188
-0.24844
-0.14455
-0.058735
-0.00507024
-0.0230609
-0.182902
-0.396963
-0.61803
-0.812091
-0.920872
-0.945821
-0.966958
-0.940895
-0.907633
-0.844041
-0.763587
-0.674927
-0.580534
-0.481785
-0.380365
-0.278477
-0.179289
-0.100143
-0.0583468
-0.101333
-0.290937
-0.497071
-0.692547
-0.842575
-0.8919
-0.90674
-0.908895
-0.966316
-0.933057
-0.869428
-0.789023
-0.7006
-0.606814
-0.509232
-0.4098
-0.311179
-0.217296
-0.145298
-0.118436
-0.181615
-0.392856
-0.589789
-0.764352
-0.869449
-0.883825
-0.886303
-0.886342
-0.993135
-0.959786
-0.896166
-0.815838
-0.727778
-0.634755
-0.538552
-0.441405
-0.346429
-0.258397
-0.194354
-0.180344
-0.277367
-0.48758
-0.674966
-0.822416
-0.869472
-0.875919
-0.876354
-0.875599
-1.02104
-0.987539
-0.924097
-0.843884
-0.7563
-0.664208
-0.569598
-0.475019
-0.384059
-0.30231
-0.246803
-0.247101
-0.382793
-0.579194
-0.746576
-0.857292
-0.866414
-0.868657
-0.870133
-0.869781
-1.04943
-1.01601
-0.952824
-0.872883
-0.7859
-0.694907
-0.602079
-0.510341
-0.423704
-0.348655
-0.301407
-0.322897
-0.4842
-0.670223
-0.809962
-0.852018
-0.871272
-0.869544
-0.866979
-0.86654
-1.07797
-1.04476
-0.981811
-0.902392
-0.816148
-0.726414
-0.63556
-0.546863
-0.464826
-0.396696
-0.3575
-0.394804
-0.58508
-0.770472
-0.868649
-0.889243
-0.885852
-0.878841
-0.874332
-0.871648
-1.10559
-1.07311
-1.01054
-0.931751
-0.846426
-0.75812
-0.669418
-0.583847
-0.506628
-0.44525
-0.415357
-0.468176
-0.677457
-0.893684
-0.971013
-0.933838
-0.929143
-0.91445
-0.906931
-0.903871
-1.13122
-1.09925
-1.03822
-0.960132
-0.875924
-0.78919
-0.702785
-0.620331
-0.547882
-0.493159
-0.472524
-0.538228
-0.749682
-1.02205
-1.21208
-1.11607
-1.05869
-1.02419
-1.00715
-0.998157
-1.15346
-1.12272
-1.06319
-0.986512
-0.90361
-0.818591
-0.734507
-0.655163
-0.586873
-0.539167
-0.523807
-0.603631
-0.799758
-1.02755
-1.47055
-1.3165
-1.23803
-1.22767
-1.20382
-1.19324
-1.17071
-1.14181
-1.08436
-1.00943
-0.928261
-0.845122
-0.763212
-0.686817
-0.621818
-0.58053
-0.568217
-0.65475
-0.812281
-0.741817
-0.573883
-0.910831
-1.2268
-1.27723
-1.2794
-1.2815
-1.18142
-1.15501
-1.10036
-1.0276
-0.948438
-0.867325
-0.78744
-0.713296
-0.651223
-0.613019
-0.610337
-0.709345
-0.856447
-0.640761
-0.421535
-0.799746
-1.19285
-1.27427
-1.29181
-1.30475
-1.18369
-1.16074
-1.1097
-1.0397
-0.962772
-0.883718
-0.805603
-0.732624
-0.672268
-0.634858
-0.646067
-0.812268
-1.24537
-1.84697
-2.34912
-2.74053
-2.6257
-2.16001
-1.79492
-1.7408
-1.17661
-1.15756
-1.11105
-1.04463
-0.970202
-0.893085
-0.816134
-0.743239
-0.680908
-0.643336
-0.656745
-0.89769
-1.63821
-2.80212
-3.53521
-3.83943
-3.71762
-3.34717
-2.92827
-2.69571
-1.15864
-1.1435
-1.10345
-1.04176
-0.970169
-0.894716
-0.818009
-0.743555
-0.676346
-0.627681
-0.629027
-0.803947
-1.36317
-2.03618
-2.69755
-2.86738
-2.67795
-2.32898
-2.01859
-1.83179
-1.13118
-1.12041
-1.08729
-1.03145
-0.962915
-0.888762
-0.811458
-0.732965
-0.658314
-0.588092
-0.54726
-0.501995
-0.56198
-0.476808
-0.256529
0.0343606
0.361359
0.60423
0.757047
0.819887
-1.09723
-1.09056
-1.0651
-1.01562
-0.950081
-0.876783
-0.797762
-0.714907
-0.626958
-0.536193
-0.42862
-0.304519
-0.0051965
0.547767
1.19181
1.78933
2.2155
2.45181
2.54993
2.57641
-1.06099
-1.05721
-1.0403
-0.997357
-0.93459
-0.861422
-0.780826
-0.693101
-0.597142
-0.490713
-0.372135
-0.244272
0.0130441
0.608577
1.26737
1.83929
2.2459
2.47747
2.58073
2.61145
-1.02747
-1.02516
-1.01567
-0.980586
-0.920239
-0.846136
-0.764049
-0.674574
-0.578265
-0.467762
-0.359823
-0.251891
-0.112019
0.301191
0.803638
1.21701
1.51581
1.69156
1.7736
1.79904
-0.998109
-0.997636
-0.994188
-0.966165
-0.906553
-0.830764
-0.748639
-0.66168
-0.568265
-0.465544
-0.367596
-0.278508
-0.20073
0.0559494
0.417107
0.707852
0.924311
1.05668
1.12353
1.14413
-0.971014
-0.973
-0.972119
-0.945636
-0.884629
-0.808768
-0.729875
-0.648732
-0.562913
-0.470053
-0.38305
-0.313793
-0.255879
-0.10596
0.132569
0.335834
0.486223
0.576295
0.617719
0.627138
-0.908556
-0.912287
-0.911814
-0.889022
-0.835841
-0.770146
-0.7017
-0.631467
-0.556676
-0.475161
-0.3977
-0.336505
-0.281996
-0.188995
-0.0340241
0.0944852
0.18672
0.241462
0.266295
0.272505
-0.802082
-0.803989
-0.802954
-0.788484
-0.755747
-0.711644
-0.662225
-0.608084
-0.547342
-0.478757
-0.41183
-0.357543
-0.305483
-0.246774
-0.148941
-0.0678622
-0.00938401
0.0249198
0.0389799
0.0398225
-0.691462
-0.692099
-0.691557
-0.685953
-0.672265
-0.650332
-0.620615
-0.583362
-0.537076
-0.48131
-0.4242
-0.37659
-0.331683
-0.293917
-0.239736
-0.185364
-0.145447
-0.120785
-0.109861
-0.10996
-0.61629
-0.616119
-0.616292
-0.6162
-0.612418
-0.603262
-0.587224
-0.562545
-0.528002
-0.483135
-0.43807
-0.40206
-0.372067
-0.346889
-0.309792
-0.270722
-0.239605
-0.220053
-0.211481
-0.212421
-0.57813
-0.577924
-0.578242
-0.579338
-0.578931
-0.575041
-0.565542
-0.548346
-0.521573
-0.48502
-0.448789
-0.427568
-0.424022
-0.416645
-0.37797
-0.337735
-0.308541
-0.292672
-0.286635
-0.287965
-0.567005
-0.566596
-0.566424
-0.567
-0.566816
-0.564169
-0.557309
-0.543763
-0.520724
-0.487012
-0.453939
-0.43879
-0.452541
-0.450856
-0.414927
-0.380969
-0.357295
-0.344689
-0.340038
-0.340768
-0.57679
-0.576088
-0.575338
-0.574996
-0.573963
-0.57081
-0.564212
-0.551859
-0.529223
-0.493194
-0.454749
-0.431041
-0.43538
-0.432918
-0.408938
-0.384308
-0.368396
-0.360461
-0.357322
-0.358454
-0.605174
-0.604169
-0.60314
-0.602206
-0.600479
-0.596992
-0.590854
-0.57991
-0.557982
-0.518055
-0.466761
-0.419186
-0.402366
-0.400548
-0.388896
-0.373331
-0.361551
-0.353297
-0.351399
-0.352351
-0.649391
-0.648554
-0.647631
-0.646843
-0.6458
-0.644307
-0.642218
-0.637667
-0.624314
-0.58903
-0.523798
-0.44566
-0.407781
-0.403032
-0.388409
-0.365495
-0.341221
-0.325174
-0.319906
-0.322035
-0.705884
-0.705324
-0.705155
-0.705702
-0.707655
-0.712318
-0.721317
-0.735362
-0.75071
-0.745321
-0.669841
-0.552217
-0.484351
-0.46419
-0.429457
-0.37886
-0.33181
-0.303099
-0.299859
-0.30238
-0.767156
-0.767321
-0.768688
-0.772159
-0.780078
-0.796166
-0.826013
-0.877903
-0.955216
-1.0174
-0.932234
-0.756257
-0.641195
-0.589656
-0.517113
-0.427791
-0.35423
-0.317887
-0.31827
-0.320083
-0.820997
-0.822279
-0.825866
-0.833638
-0.850041
-0.882051
-0.942099
-1.05159
-1.22721
-1.39703
-1.30726
-1.04717
-0.870151
-0.772725
-0.650852
-0.520627
-0.419898
-0.381335
-0.386345
-0.392379
-0.851031
-0.853564
-0.859454
-0.871782
-0.897068
-0.945732
-1.03756
-1.20948
-1.49024
-1.77306
-1.69751
-1.36248
-1.11384
-0.981762
-0.832563
-0.701142
-0.616013
-0.591198
-0.590458
-0.595597
-0.841347
-0.844524
-0.8519
-0.86744
-0.899051
-0.959596
-1.06957
-1.28309
-1.62655
-1.99338
-1.93209
-1.57608
-1.31953
-1.17638
-1.04588
-0.968418
-0.918104
-0.897888
-0.888397
-0.888229
-0.782819
-0.786234
-0.793651
-0.809227
-0.840952
-0.901686
-1.01696
-1.2329
-1.58215
-1.91828
-1.88554
-1.59129
-1.38512
-1.27561
-1.2245
-1.20591
-1.17891
-1.15207
-1.1356
-1.13062
-0.679644
-0.682443
-0.688457
-0.70134
-0.728108
-0.779816
-0.878396
-1.06397
-1.36456
-1.63577
-1.6084
-1.42312
-1.30672
-1.24223
-1.26011
-1.28997
-1.26752
-1.23885
-1.2207
-1.21362
-0.547724
-0.54941
-0.553084
-0.561574
-0.580062
-0.616533
-0.686806
-0.820909
-1.04646
-1.25975
-1.26137
-1.16914
-1.09623
-1.05906
-1.11926
-1.17105
-1.15335
-1.13257
-1.11964
-1.11372
-0.408291
-0.408806
-0.410119
-0.414035
-0.423762
-0.443961
-0.483853
-0.561911
-0.702789
-0.859417
-0.886283
-0.836933
-0.763306
-0.775583
-0.866528
-0.916653
-0.911108
-0.901672
-0.89571
-0.892472
-0.280598
-0.280224
-0.279834
-0.280272
-0.283099
-0.290196
-0.305298
-0.336216
-0.396883
-0.480865
-0.495311
-0.455921
-0.433474
-0.497188
-0.589775
-0.627791
-0.633047
-0.633501
-0.633805
-0.6331
-0.176834
-0.176013
-0.17478
-0.173403
-0.172263
-0.17146
-0.171355
-0.172704
-0.176224
-0.173977
-0.176326
-0.171251
-0.218904
-0.300032
-0.361739
-0.387404
-0.39629
-0.401047
-0.404213
-0.404929
-0.100926
-0.100037
-0.098702
-0.0969568
-0.0945282
-0.090728
-0.0846477
-0.0747745
-0.0585849
-0.0332563
-0.0143513
-0.0402233
-0.106293
-0.166087
-0.20404
-0.218865
-0.227221
-0.232185
-0.23564
-0.236719
-0.0505081
-0.0497849
-0.0487684
-0.0475018
-0.0454813
-0.0418278
-0.035566
-0.0252995
-0.00939816
0.0113271
0.0205708
-0.00210394
-0.0460227
-0.0823259
-0.104144
-0.114418
-0.119434
-0.122612
-0.12503
-0.125878
-0.0199208
-0.0194484
-0.0188904
-0.0184417
-0.0174778
-0.0153025
-0.0113441
-0.00489541
0.00458925
0.0153806
0.0180965
0.00515893
-0.0165736
-0.0345781
-0.045592
-0.0506133
-0.0526818
-0.0540723
-0.0553363
-0.0558274
-0.00270692
-0.00261386
-0.00233176
-0.00201655
-0.0017089
-0.00141404
-0.000902046
3.86435e-06
0.00139947
0.0032255
0.00451352
0.00306269
-0.000658832
-0.00475721
-0.0069944
-0.00827892
-0.00863024
-0.00870604
-0.00896106
-0.00930521
-0.606644
-0.39226
-0.162251
0.0263291
0.178331
0.300158
0.402753
0.488594
0.523922
0.508233
-0.233336
-0.0932486
0.0517443
0.177066
0.283156
0.371744
0.44328
0.493651
0.520237
0.53264
0.0155387
0.109508
0.206949
0.294073
0.369108
0.431917
0.481669
0.518265
0.544617
0.562048
0.192574
0.257631
0.326296
0.389233
0.443838
0.490019
0.52782
0.558096
0.582123
0.600105
0.328403
0.375086
0.426121
0.473238
0.515128
0.55153
0.582549
0.608439
0.629209
0.646969
0.438916
0.474362
0.515657
0.553473
0.588049
0.618999
0.64597
0.668676
0.686355
0.703864
0.535614
0.565936
0.601814
0.635517
0.666727
0.69501
0.719723
0.740216
0.755266
0.772691
0.626803
0.657108
0.692183
0.725269
0.755691
0.782995
0.806481
0.825344
0.838298
0.85577
0.723741
0.757773
0.794873
0.829193
0.859747
0.886338
0.908602
0.925959
0.93761
0.955435
0.839684
0.878394
0.917026
0.951652
0.981227
1.00616
1.02666
1.04253
1.054
1.07237
0.98511
1.02483
1.06042
1.09099
1.11674
1.13895
1.15808
1.17371
1.18644
1.20459
1.15988
1.19222
1.21817
1.24057
1.26071
1.27954
1.29724
1.31385
1.32965
1.34786
1.34767
1.36534
1.38102
1.39769
1.4139
1.4285
1.44157
1.45558
1.4727
1.4924
1.52962
1.54048
1.55265
1.56348
1.57276
1.58237
1.5933
1.60493
1.6149
1.63008
1.74054
1.74259
1.72746
1.71224
1.7059
1.7116
1.73022
1.76066
1.79281
1.82356
2.04647
1.90942
1.83316
1.79114
1.77372
1.77776
1.80514
1.86129
1.96475
2.18004
0.33013
0.326754
0.320825
0.311015
0.298068
0.285638
0.275314
0.267343
0.261641
0.258284
0.257799
0.260401
0.265403
0.27256
0.281926
0.293561
0.306652
0.318616
0.326061
0.330771
0.248146
0.254031
0.26094
0.266179
0.269023
0.268688
0.265773
0.261827
0.258215
0.255842
0.255554
0.257612
0.26117
0.26542
0.269284
0.271222
0.27006
0.26593
0.260003
0.252948
0.24051
0.242857
0.246209
0.249119
0.251337
0.253134
0.254081
0.2538
0.252716
0.251719
0.251741
0.253011
0.254684
0.255837
0.25578
0.254527
0.252654
0.250259
0.247069
0.244091
0.235387
0.236473
0.238346
0.24074
0.24271
0.244104
0.245188
0.246013
0.24642
0.246564
0.246892
0.247487
0.247855
0.247675
0.247029
0.246052
0.24456
0.242429
0.240263
0.238832
0.230327
0.230979
0.232101
0.233849
0.235681
0.237316
0.238581
0.239574
0.240423
0.241123
0.241667
0.24196
0.241897
0.241513
0.240793
0.239619
0.238054
0.236373
0.234976
0.234175
0.225467
0.225917
0.226719
0.228057
0.229596
0.231168
0.232655
0.233924
0.234989
0.235917
0.236608
0.236879
0.236747
0.236232
0.235315
0.234111
0.232794
0.231511
0.230506
0.229969
0.22077
0.221099
0.221733
0.222871
0.224242
0.225692
0.227197
0.228673
0.229996
0.231112
0.231944
0.232304
0.232135
0.231509
0.230581
0.229517
0.228418
0.227347
0.226554
0.226158
0.216246
0.216495
0.217013
0.218013
0.21929
0.220677
0.222135
0.223644
0.225134
0.226485
0.227508
0.227955
0.227816
0.227274
0.226494
0.225588
0.224627
0.223722
0.223087
0.222786
0.211846
0.212031
0.212464
0.213377
0.214605
0.215957
0.217379
0.218886
0.220467
0.222018
0.22327
0.223879
0.223901
0.223549
0.222963
0.222217
0.221378
0.220595
0.220076
0.219848
0.207567
0.207701
0.208067
0.208914
0.210109
0.211459
0.212938
0.214518
0.216165
0.21785
0.219346
0.220269
0.220593
0.220459
0.220006
0.219379
0.218672
0.218004
0.217587
0.217416
0.203378
0.203465
0.203779
0.204602
0.205819
0.207203
0.208733
0.210443
0.212323
0.214284
0.216105
0.217352
0.217898
0.217952
0.217681
0.2172
0.216591
0.215999
0.215661
0.215543
0.199357
0.1994
0.199657
0.200407
0.201562
0.202912
0.204418
0.206136
0.20812
0.210357
0.212587
0.214265
0.215236
0.215696
0.21577
0.215554
0.215157
0.214734
0.214504
0.214436
0.195469
0.195482
0.195691
0.196353
0.197438
0.198782
0.200371
0.202279
0.204535
0.207136
0.209872
0.21209
0.213503
0.214285
0.214635
0.214698
0.214556
0.214343
0.214236
0.214202
0.191418
0.191421
0.19159
0.192156
0.193144
0.194447
0.196066
0.198114
0.200669
0.20377
0.207147
0.210001
0.211978
0.213267
0.214018
0.214447
0.214656
0.214711
0.214735
0.214722
0.186789
0.186785
0.186947
0.18746
0.188409
0.189746
0.191499
0.193802
0.196759
0.200453
0.204626
0.208311
0.210958
0.212797
0.214041
0.214874
0.215382
0.215677
0.215803
0.2158
0.181298
0.181287
0.181472
0.182012
0.183018
0.184487
0.186492
0.189197
0.192763
0.197289
0.202466
0.207093
0.210503
0.212938
0.214663
0.215865
0.216688
0.217187
0.217382
0.217386
0.17467
0.174653
0.174871
0.175508
0.176655
0.178358
0.180743
0.184
0.188339
0.193901
0.200325
0.206139
0.21047
0.213617
0.215868
0.217488
0.218628
0.219301
0.219553
0.219564
0.166664
0.166633
0.166896
0.167687
0.169105
0.171202
0.174148
0.178202
0.183595
0.190506
0.198484
0.205702
0.211105
0.215059
0.217878
0.219908
0.221367
0.222199
0.222512
0.222536
0.157048
0.157
0.157323
0.158319
0.160114
0.162762
0.166483
0.171571
0.178316
0.186923
0.196818
0.20576
0.212444
0.217324
0.22088
0.223452
0.225178
0.226168
0.226555
0.226592
0.145477
0.145407
0.145812
0.147065
0.149365
0.152758
0.157519
0.163963
0.172455
0.183191
0.195436
0.20644
0.21467
0.220689
0.225041
0.228168
0.230259
0.231462
0.231951
0.232002
0.131441
0.131352
0.131887
0.133493
0.136424
0.140806
0.146921
0.155155
0.165882
0.179288
0.194393
0.207856
0.217903
0.22526
0.230582
0.234366
0.236908
0.238383
0.238985
0.239046
0.113997
0.113893
0.114643
0.116761
0.12053
0.126286
0.134234
0.144856
0.158497
0.175245
0.193801
0.210159
0.222321
0.231227
0.237668
0.242245
0.245339
0.247146
0.247869
0.247935
0.091718
0.0916136
0.0927364
0.0956632
0.100741
0.108415
0.118985
0.132867
0.150293
0.171178
0.193826
0.213518
0.22808
0.238743
0.246476
0.251993
0.255758
0.25796
0.258819
0.258884
0.062262
0.0622015
0.0640089
0.0683332
0.0756203
0.0863736
0.100787
0.119126
0.141405
0.1673
0.194681
0.218112
0.235334
0.247957
0.25716
0.263787
0.268348
0.270997
0.272
0.272056
0.021472
0.0216123
0.0249299
0.0322127
0.0435998
0.0594236
0.079523
0.103861
0.132184
0.163946
0.19661
0.22409
0.244164
0.258909
0.269756
0.277676
0.283192
0.286351
0.287482
0.287517
-0.0383769
-0.0370038
-0.0289921
-0.015257
0.00379641
0.0277101
0.0557904
0.0877531
0.123213
0.161519
0.199824
0.231512
0.254528
0.271486
0.284098
0.293448
0.300066
0.303829
0.305094
0.305104
-0.110303
-0.107808
-0.0924587
-0.0685715
-0.0390606
-0.00566424
0.0311708
0.0713299
0.114506
0.160129
0.205128
0.24222
0.269332
0.28957
0.304879
0.316461
0.324839
0.329599
0.331003
0.331139
-0.18404
-0.176668
-0.153976
-0.120147
-0.0808574
-0.0382389
0.00730699
0.0556818
0.106632
0.159644
0.211448
0.254071
0.285349
0.30894
0.327109
0.341172
0.351425
0.356729
0.358853
0.359361
-0.242682
-0.233647
-0.206273
-0.165673
-0.118835
-0.0684326
-0.0151002
0.0408794
0.0991544
0.15917
0.21733
0.264937
0.299814
0.326126
0.346394
0.362041
0.373469
0.379938
0.382969
0.383647
-0.290423
-0.280833
-0.25001
-0.204538
-0.151995
-0.0954072
-0.0355907
0.0270197
0.0918866
0.158303
0.222252
0.274253
0.312111
0.340512
0.362307
0.379168
0.391602
0.398962
0.402319
0.403063
-0.330314
-0.320556
-0.287491
-0.238267
-0.181092
-0.119416
-0.0541674
0.0141512
0.0848397
0.157007
0.226154
0.28199
0.322322
0.352345
0.375228
0.392834
0.405827
0.413778
0.417353
0.418138
-0.364968
-0.355154
-0.320434
-0.268161
-0.207198
-0.141237
-0.0712782
0.00205125
0.0779292
0.155297
0.229168
0.288442
0.330891
0.362191
0.385809
0.403809
0.417043
0.425268
0.428921
0.429732
-0.395959
-0.386137
-0.350164
-0.295328
-0.231177
-0.161528
-0.0874355
-0.00963213
0.0709625
0.153126
0.231423
0.293905
0.338288
0.370688
0.394855
0.413056
0.426351
0.434648
0.438267
0.439132
-0.424479
-0.414621
-0.377607
-0.320587
-0.253721
-0.180837
-0.103071
-0.0212214
0.0637105
0.150388
0.232926
0.298563
0.344837
0.378282
0.402975
0.421415
0.434764
0.443108
0.44676
0.447466
-0.451296
-0.441383
-0.403416
-0.344566
-0.275272
-0.199515
-0.118478
-0.032963
0.0559874
0.146943
0.233636
0.302427
0.350672
0.385276
0.410591
0.429314
0.442758
0.451085
0.454726
0.455332
-0.47689
-0.466906
-0.428085
-0.367652
-0.296138
-0.217827
-0.13386
-0.0450136
0.0476529
0.142678
0.233474
0.305563
0.35599
0.391936
0.418005
0.437113
0.45072
0.459041
0.462631
0.463216
-0.501668
-0.49153
-0.451899
-0.390021
-0.316541
-0.235958
-0.149349
-0.0574761
0.0386312
0.137535
0.232447
0.308047
0.360869
0.398359
0.425364
0.445001
0.458859
0.467215
0.470684
0.471248
-0.525804
-0.51544
-0.475114
-0.411838
-0.336608
-0.253997
-0.165014
-0.0703948
0.0288876
0.131495
0.230509
0.309767
0.365272
0.404575
0.432726
0.453033
0.467217
0.475616
0.478954
0.479458
-0.549346
-0.538778
-0.497788
-0.4332
-0.356406
-0.271979
-0.180877
-0.0837798
0.0184124
0.124494
0.227523
0.31063
0.369139
0.410572
0.440094
0.461212
0.475773
0.484187
0.487368
0.487769
-0.572424
-0.561576
-0.519874
-0.454129
-0.375947
-0.289907
-0.196918
-0.0976138
0.00720475
0.116496
0.223427
0.310535
0.372362
0.416279
0.447448
0.469521
0.48449
0.492887
0.495849
0.496114
-0.594953
-0.583839
-0.541442
-0.474629
-0.395204
-0.307737
-0.213088
-0.111848
-0.00469995
0.107518
0.218179
0.309333
0.374778
0.421597
0.454768
0.477961
0.493308
0.501556
0.504234
0.50436
-0.616959
-0.605557
-0.562465
-0.494676
-0.414136
-0.32542
-0.229331
-0.126402
-0.0172195
0.097609
0.211729
0.306893
0.376185
0.426363
0.462024
0.486592
0.502237
0.510107
0.512362
0.51234
-0.638287
-0.62666
-0.582888
-0.514218
-0.432687
-0.342876
-0.245562
-0.141188
-0.0302611
0.0868335
0.204066
0.3031
0.376367
0.430332
0.469146
0.495591
0.511462
0.518509
0.520057
0.519863
-0.659023
-0.647091
-0.602677
-0.533214
-0.450811
-0.360055
-0.261684
-0.156115
-0.0437293
0.0752877
0.195224
0.297859
0.375091
0.433159
0.475902
0.505185
0.521583
0.52712
0.527235
0.526742
-0.679037
-0.666809
-0.621805
-0.55161
-0.468426
-0.376869
-0.277611
-0.171059
-0.0575056
0.0630637
0.185273
0.291114
0.372161
0.4344
0.481765
0.515347
0.533664
0.537511
0.534577
0.532783
-0.698355
-0.68587
-0.640219
-0.569355
-0.485491
-0.393249
-0.29326
-0.185935
-0.0714672
0.0503158
0.174325
0.282834
0.367435
0.433581
0.48579
0.525205
0.54822
0.553094
0.54649
0.535443
-0.716903
-0.704232
-0.65801