/*--------------------------------*- C++ -*----------------------------------*\
| =========                 |                                                 |
| \\      /  F ield         | OpenFOAM: The Open Source CFD Toolbox           |
|  \\    /   O peration     | Version:  2306                                  |
|   \\  /    A nd           | Website:  www.openfoam.com                      |
|    \\/     M anipulation  |                                                 |
\*---------------------------------------------------------------------------*/
FoamFile
{
    version     2.0;
    format      ascii;
    arch        "LSB;label=32;scalar=64";
    class       volVectorField;
    location    "25";
    object      U;
}
// * * * * * * * * * * * * * * * * * * * * * * * * * * * * * * * * * * * * * //

dimensions      [0 1 -1 0 0 0 0];

internalField   nonuniform List<vector> 
8800
(
(0.984962 -0.0884515 0)
(1.00213 -0.056822 0)
(0.999684 -0.0305549 0)
(1.00002 -0.0158569 0)
(1.00005 -0.00870693 0)
(1.00002 -0.00506326 0)
(1.00001 -0.00297931 0)
(0.999999 -0.00169379 0)
(0.999998 -0.000816346 0)
(1.00005 -0.000127519 0)
(0.999999 0.000566908 0)
(0.999999 0.00132552 0)
(1 0.00235993 0)
(1.00002 0.00396964 0)
(1.00004 0.00668604 0)
(1.00006 0.0117191 0)
(0.999924 0.0220435 0)
(0.999204 0.0411664 0)
(1.00745 0.0768954 0)
(0.773648 0.0450699 0)
(0.361006 -0.0151712 0)
(1.04556 -0.0742009 0)
(1.08712 -0.0678917 0)
(1.04778 -0.0522989 0)
(1.02458 -0.0383887 0)
(1.01234 -0.0260962 0)
(1.00642 -0.0167476 0)
(1.00356 -0.0102769 0)
(1.00216 -0.00568527 0)
(1.00153 -0.0021177 0)
(1.00141 0.00106305 0)
(1.00176 0.00437531 0)
(1.00271 0.00828927 0)
(1.0047 0.01363 0)
(1.00881 0.0213714 0)
(1.0174 0.0322168 0)
(1.03455 0.0455835 0)
(1.06559 0.0597229 0)
(1.09412 0.0729413 0)
(0.842321 0.0556973 0)
(0.217077 -0.00164514 0)
(1.07587 -0.0503434 0)
(1.09985 -0.0487108 0)
(1.06464 -0.0401702 0)
(1.03991 -0.0330151 0)
(1.02367 -0.0257287 0)
(1.01391 -0.0183711 0)
(1.00846 -0.0116819 0)
(1.00563 -0.00594163 0)
(1.00448 -0.00071082 0)
(1.00481 0.00435415 0)
(1.00667 0.00966607 0)
(1.01059 0.0157482 0)
(1.01788 0.0227018 0)
(1.03055 0.0299812 0)
(1.05077 0.0370054 0)
(1.08055 0.0443689 0)
(1.1064 0.0516177 0)
(0.943119 0.0412593 0)
(0.216659 0.00165808 0)
(0.175923 -0.000644247 0)
(1.01871 -0.0353848 0)
(1.10559 -0.0413885 0)
(1.07807 -0.0362199 0)
(1.05272 -0.0301838 0)
(1.03538 -0.0244628 0)
(1.02339 -0.0187957 0)
(1.0155 -0.0128951 0)
(1.01088 -0.0068874 0)
(1.00888 -0.000713432 0)
(1.00944 0.00541326 0)
(1.01257 0.0113294 0)
(1.01862 0.0171169 0)
(1.02836 0.0226965 0)
(1.04275 0.0281557 0)
(1.06356 0.0338736 0)
(1.09407 0.039905 0)
(1.09453 0.0416165 0)
(0.829526 0.022669 0)
(0.175221 0.000659165 0)
(0.154419 -0.000484986 0)
(0.957433 -0.0254838 0)
(1.1041 -0.0350024 0)
(1.08788 -0.0325748 0)
(1.06124 -0.0280455 0)
(1.04325 -0.0230807 0)
(1.03084 -0.0178962 0)
(1.0222 -0.0125148 0)
(1.01663 -0.00676345 0)
(1.014 -0.000477007 0)
(1.01471 0.00585289 0)
(1.01861 0.0116603 0)
(1.0255 0.0169578 0)
(1.03574 0.0219616 0)
(1.05052 0.0268236 0)
(1.07233 0.0313572 0)
(1.10118 0.0352982 0)
(1.06993 0.03356 0)
(0.742636 0.0141861 0)
(0.153368 0.000501737 0)
(0.13998 -0.000354755 0)
(0.900723 -0.0190539 0)
(1.09644 -0.0299107 0)
(1.09584 -0.0290356 0)
(1.0687 -0.025337 0)
(1.04991 -0.0213202 0)
(1.03697 -0.016744 0)
(1.02798 -0.0116956 0)
(1.02202 -0.00621274 0)
(1.01908 -9.23759e-05 0)
(1.0198 0.00608475 0)
(1.02397 0.0116066 0)
(1.03112 0.0165358 0)
(1.04171 0.0210269 0)
(1.05711 0.0250122 0)
(1.07983 0.0285374 0)
(1.10365 0.0312923 0)
(1.0387 0.0274765 0)
(0.677053 0.00998624 0)
(0.138505 0.000374499 0)
(0.129482 -0.00026946 0)
(0.851503 -0.0145708 0)
(1.08421 -0.0256283 0)
(1.10146 -0.0259216 0)
(1.07536 -0.0226408 0)
(1.05597 -0.0191139 0)
(1.04252 -0.0151673 0)
(1.03314 -0.0105946 0)
(1.02697 -0.00540565 0)
(1.02388 0.000414792 0)
(1.02453 0.00623981 0)
(1.02871 0.0114134 0)
(1.03603 0.0158915 0)
(1.04698 0.0197168 0)
(1.06288 0.0230343 0)
(1.08613 0.0260979 0)
(1.10325 0.0280476 0)
(1.00511 0.0226734 0)
(0.626675 0.00750307 0)
(0.127492 0.00029346 0)
(0.1216 -0.000203316 0)
(0.810134 -0.0112048 0)
(1.06914 -0.0216868 0)
(1.1048 -0.0229801 0)
(1.08132 -0.0202571 0)
(1.06146 -0.0170369 0)
(1.0477 -0.0134203 0)
(1.03799 -0.00924022 0)
(1.03148 -0.00444386 0)
(1.02815 0.00100973 0)
(1.02871 0.00645078 0)
(1.03298 0.0111553 0)
(1.0405 0.0151126 0)
(1.05165 0.0184608 0)
(1.06785 0.0213753 0)
(1.09149 0.0240582 0)
(1.10008 0.0250806 0)
(0.971756 0.0186723 0)
(0.587222 0.00580199 0)
(0.118987 0.000232741 0)
(0.115664 -0.000153948 0)
(0.776098 -0.00859656 0)
(1.05288 -0.018056 0)
(1.10685 -0.0199824 0)
(1.08667 -0.0176617 0)
(1.06648 -0.0146889 0)
(1.0525 -0.0114045 0)
(1.04261 -0.0076345 0)
(1.03589 -0.00327579 0)
(1.03235 0.0017469 0)
(1.03276 0.00674223 0)
(1.03697 0.0108821 0)
(1.04448 0.0142709 0)
(1.05568 0.0171145 0)
(1.07211 0.0196223 0)
(1.0955 0.0219485 0)
(1.09443 0.0222691 0)
(0.940337 0.0153767 0)
(0.555891 0.00456374 0)
(0.112291 0.000190446 0)
(0.111264 -0.000111489 0)
(0.748718 -0.00643482 0)
(1.03673 -0.0146297 0)
(1.10806 -0.0169931 0)
(1.09168 -0.0150416 0)
(1.07115 -0.0123622 0)
(1.05688 -0.00939826 0)
(1.04687 -0.00591016 0)
(1.04 -0.00188837 0)
(1.03622 0.00266349 0)
(1.03645 0.00708354 0)
(1.04051 0.0106977 0)
(1.0479 0.0136109 0)
(1.05911 0.0159624 0)
(1.07585 0.0180114 0)
(1.09846 0.0199052 0)
(1.08696 0.0195567 0)
(0.91174 0.012553 0)
(0.530947 0.00359412 0)
(0.106963 0.000156415 0)
(0.108128 -7.79852e-05 0)
(0.727384 -0.00459513 0)
(1.02153 -0.0113669 0)
(1.1082 -0.0139924 0)
(1.09607 -0.0125325 0)
(1.07522 -0.010136 0)
(1.06064 -0.0074076 0)
(1.05044 -0.00415527 0)
(1.04344 -0.000399794 0)
(1.03951 0.00375134 0)
(1.03942 0.00767415 0)
(1.04317 0.010793 0)
(1.05038 0.013185 0)
(1.06166 0.0150969 0)
(1.07869 0.016725 0)
(1.0999 0.0180502 0)
(1.07802 0.0169628 0)
(0.886406 0.010141 0)
(0.511132 0.00282896 0)
(0.102685 0.000134699 0)
(0.10612 -4.26162e-05 0)
(0.711824 -0.00286032 0)
(1.00823 -0.00804231 0)
(1.10741 -0.0106123 0)
(1.09979 -0.0095644 0)
(1.07913 -0.00742113 0)
(1.06446 -0.00490629 0)
(1.05406 -0.00195162 0)
(1.04674 0.00137502 0)
(1.04243 0.00506739 0)
(1.04203 0.00846613 0)
(1.04561 0.0109189 0)
(1.05272 0.012689 0)
(1.06384 0.0140264 0)
(1.08075 0.0151827 0)
(1.09988 0.015926 0)
(1.06814 0.0142171 0)
(0.864756 0.00790587 0)
(0.495791 0.00214444 0)
(0.0992661 0.000113233 0)
(0.105251 -3.72566e-08 0)
(0.701738 -0.00130143 0)
(0.997502 -0.00493022 0)
(1.10622 -0.00720025 0)
(1.10296 -0.0063776 0)
(1.0826 -0.00458121 0)
(1.06777 -0.00242445 0)
(1.05728 0.000257853 0)
(1.04992 0.00332678 0)
(1.04539 0.00665661 0)
(1.04449 0.00956769 0)
(1.04746 0.0115014 0)
(1.05412 0.0126607 0)
(1.06509 0.0133064 0)
(1.08204 0.0137873 0)
(1.09893 0.0139573 0)
(1.05806 0.0117803 0)
(0.846783 0.00604405 0)
(0.48434 0.00159847 0)
(0.0966506 8.90987e-05 0)
(0.105387 3.79338e-05 0)
(0.696357 -8.64652e-05 0)
(0.989401 -0.00227817 0)
(1.1048 -0.00420704 0)
(1.10543 -0.0036625 0)
(1.08546 -0.00212941 0)
(1.07056 -0.000104043 0)
(1.05995 0.00250101 0)
(1.05229 0.00547911 0)
(1.04729 0.00859068 0)
(1.04588 0.0111147 0)
(1.04843 0.0126171 0)
(1.05471 0.0133088 0)
(1.06531 0.0134768 0)
(1.08193 0.0133264 0)
(1.09666 0.0128129 0)
(1.04769 0.010009 0)
(0.831921 0.00482075 0)
(0.47566 0.00129954 0)
(0.0946377 7.20074e-05 0)
(0.106297 6.14458e-05 0)
(0.694674 0.000739835 0)
(0.984026 -0.000251732 0)
(1.10334 -0.00165324 0)
(1.10757 -0.00125705 0)
(1.08836 0.000149536 0)
(1.07365 0.00229846 0)
(1.06313 0.00501821 0)
(1.05526 0.00802316 0)
(1.04974 0.0109813 0)
(1.04767 0.0131789 0)
(1.04947 0.0142292 0)
(1.05499 0.0144098 0)
(1.06499 0.014052 0)
(1.08107 0.0135469 0)
(1.09305 0.0123824 0)
(1.0372 0.00911215 0)
(0.819366 0.00443081 0)
(0.468223 0.00129094 0)
(0.0928555 7.12631e-05 0)
(0.107705 7.9955e-05 0)
(0.695414 0.00125933 0)
(0.981496 0.00126105 0)
(1.10252 0.000735592 0)
(1.1096 0.00138826 0)
(1.09131 0.00296027 0)
(1.07672 0.00537005 0)
(1.06598 0.00817449 0)
(1.05765 0.0111242 0)
(1.05147 0.0139359 0)
(1.04854 0.0157685 0)
(1.04956 0.0162406 0)
(1.05443 0.0158723 0)
(1.06386 0.0150619 0)
(1.07931 0.0140674 0)
(1.08854 0.0124899 0)
(1.02698 0.00909683 0)
(0.807859 0.00469823 0)
(0.460623 0.00146127 0)
(0.0909326 8.31819e-05 0)
(0.109591 9.95011e-05 0)
(0.698059 0.0017936 0)
(0.981601 0.00250375 0)
(1.10342 0.0028215 0)
(1.11245 0.0041678 0)
(1.0948 0.00622233 0)
(1.08012 0.00896562 0)
(1.06907 0.011948 0)
(1.06026 0.0149481 0)
(1.05326 0.0175898 0)
(1.04928 0.0189789 0)
(1.04929 0.0189011 0)
(1.05339 0.017984 0)
(1.06215 0.0167168 0)
(1.07688 0.0152954 0)
(1.08368 0.0134482 0)
(1.01706 0.00997039 0)
(0.796015 0.00535238 0)
(0.452076 0.0017118 0)
(0.0886675 0.000102217 0)
(0.11204 0.00012429 0)
(0.702529 0.00245981 0)
(0.983301 0.00368376 0)
(1.1059 0.00450195 0)
(1.11659 0.00634697 0)
(1.09899 0.00898671 0)
(1.08392 0.0122769 0)
(1.07237 0.0158038 0)
(1.06285 0.0192627 0)
(1.0548 0.0220797 0)
(1.04951 0.0233207 0)
(1.04838 0.0228726 0)
(1.05164 0.0213798 0)
(1.05992 0.0196011 0)
(1.07394 0.0178576 0)
(1.07838 0.015745 0)
(1.00616 0.0115739 0)
(0.782631 0.00614995 0)
(0.442249 0.00200481 0)
(0.0859418 0.000126714 0)
(0.115223 0.000160208 0)
(0.709278 0.00341563 0)
(0.986173 0.00537752 0)
(1.10899 0.00627792 0)
(1.1214 0.00815046 0)
(1.10403 0.0111408 0)
(1.08856 0.0151735 0)
(1.07644 0.0196146 0)
(1.06596 0.0240269 0)
(1.05652 0.0276029 0)
(1.0497 0.0292315 0)
(1.04721 0.0288489 0)
(1.04923 0.0272193 0)
(1.05678 0.0249044 0)
(1.07034 0.0223556 0)
(1.07136 0.0191441 0)
(0.992532 0.0134051 0)
(0.767349 0.00694954 0)
(0.43108 0.00232701 0)
(0.0827048 0.000152114 0)
(0.119426 0.000211503 0)
(0.719214 0.00472473 0)
(0.990613 0.00782248 0)
(1.11184 0.00888885 0)
(1.12625 0.0105088 0)
(1.10988 0.0137517 0)
(1.09436 0.0185793 0)
(1.08169 0.0241736 0)
(1.07003 0.0297864 0)
(1.05887 0.0344441 0)
(1.05021 0.036695 0)
(1.04606 0.0364526 0)
(1.0466 0.0346614 0)
(1.05261 0.0318748 0)
(1.06437 0.0281068 0)
(1.06049 0.0227577 0)
(0.975531 0.0151675 0)
(0.750395 0.00787606 0)
(0.418384 0.00272294 0)
(0.078886 0.000181428 0)
(0.125053 0.000291512 0)
(0.733476 0.00651793 0)
(0.99797 0.0112153 0)
(1.11492 0.0131716 0)
(1.13103 0.0147987 0)
(1.11642 0.0183961 0)
(1.10153 0.0241584 0)
(1.08819 0.0309053 0)
(1.07506 0.0375551 0)
(1.06176 0.0429734 0)
(1.05084 0.0453486 0)
(1.04465 0.0447635 0)
(1.0433 0.0422883 0)
(1.04714 0.0385294 0)
(1.05501 0.0332044 0)
(1.04531 0.0257949 0)
(0.956143 0.0169205 0)
(0.731947 0.00908575 0)
(0.403774 0.00321378 0)
(0.0744028 0.000212207 0)
(0.132663 0.000408262 0)
(0.753268 0.0088871 0)
(1.00999 0.0156378 0)
(1.12009 0.019257 0)
(1.13642 0.0216913 0)
(1.12428 0.0265018 0)
(1.11 0.0333107 0)
(1.09567 0.04096 0)
(1.08064 0.0482017 0)
(1.06468 0.0536118 0)
(1.051 0.055251 0)
(1.04239 0.0535138 0)
(1.03863 0.049607 0)
(1.03952 0.0442707 0)
(1.0426 0.037315 0)
(1.02759 0.028616 0)
(0.935711 0.0192254 0)
(0.711635 0.010759 0)
(0.386696 0.00383667 0)
(0.069149 0.000246047 0)
(0.142978 0.000582619 0)
(0.779778 0.0121957 0)
(1.02823 0.0214671 0)
(1.12977 0.0273346 0)
(1.14454 0.0318894 0)
(1.13397 0.0385113 0)
(1.11962 0.0465322 0)
(1.1037 0.0548852 0)
(1.08613 0.0621957 0)
(1.06689 0.066746 0)
(1.04993 0.0667286 0)
(1.03849 0.0630046 0)
(1.03189 0.0570992 0)
(1.02942 0.0498566 0)
(1.02811 0.0415651 0)
(1.00889 0.0322486 0)
(0.914359 0.0224726 0)
(0.688561 0.0129234 0)
(0.366402 0.00460172 0)
(0.0629462 0.000286478 0)
(0.157264 0.000864847 0)
(0.814861 0.0170967 0)
(1.05431 0.0294144 0)
(1.14558 0.0380238 0)
(1.15719 0.0455614 0)
(1.1461 0.0544487 0)
(1.13042 0.0639582 0)
(1.11194 0.0728914 0)
(1.09096 0.0797731 0)
(1.06775 0.0827479 0)
(1.047 0.0803432 0)
(1.03239 0.0740455 0)
(1.02272 0.0658427 0)
(1.01704 0.0567242 0)
(1.01219 0.0472899 0)
(0.989502 0.0374849 0)
(0.891018 0.0269331 0)
(0.66128 0.015675 0)
(0.342145 0.00549984 0)
(0.0557127 0.000327496 0)
(0.177715 0.00136605 0)
(0.861662 0.024856 0)
(1.09014 0.0410831 0)
(1.16839 0.0527341 0)
(1.17507 0.0638417 0)
(1.16115 0.0753074 0)
(1.14233 0.0862645 0)
(1.11996 0.0954041 0)
(1.09458 0.101258 0)
(1.06678 0.102004 0)
(1.04182 0.0966726 0)
(1.0238 0.0874979 0)
(1.0111 0.076859 0)
(1.00256 0.0659239 0)
(0.994837 0.0553188 0)
(0.968627 0.0447221 0)
(0.864198 0.0327099 0)
(0.62857 0.019076 0)
(0.313359 0.00655611 0)
(0.0473849 0.00036727 0)
(0.207632 0.00249075 0)
(0.925698 0.0383366 0)
(1.13772 0.0603826 0)
(1.19873 0.0748083 0)
(1.19801 0.0898401 0)
(1.1787 0.103286 0)
(1.15473 0.114832 0)
(1.1271 0.123218 0)
(1.09643 0.127109 0)
(1.06354 0.124837 0)
(1.03416 0.116057 0)
(1.01262 0.103799 0)
(0.997055 0.0906893 0)
(0.985935 0.0779141 0)
(0.975616 0.0660025 0)
(0.94509 0.0541894 0)
(0.83221 0.039925 0)
(0.589355 0.0231445 0)
(0.280251 0.00777915 0)
(0.0382379 0.000393296 0)
(0.248801 0.00889775 -2.18554e-20)
(1.01052 0.065688 -1.71797e-20)
(1.19408 0.0932493 4.69296e-21)
(1.23496 0.110329 0)
(1.22332 0.127342 -9.60086e-36)
(1.19669 0.140823 4.66141e-22)
(1.1662 0.151236 -2.81616e-21)
(1.13239 0.157597 0)
(1.09581 0.158638 1.01226e-34)
(1.05731 0.152796 -7.59051e-21)
(1.02309 0.140329 0)
(0.997607 0.124991 -1.07908e-20)
(0.97891 0.109511 -3.2947e-20)
(0.964989 0.0950083 -1.59169e-20)
(0.951774 0.0819396 -4.99455e-21)
(0.916279 0.0691392 -3.0109e-21)
(0.791214 0.0517467 0)
(0.539986 0.0301352 2.13953e-21)
(0.24263 0.0110248 2.52447e-21)
(0.0298908 0.00104246 4.41633e-20)
(0.27604 0.0246925 -4.30199e-20)
(1.08018 0.109291 9.95036e-22)
(1.24121 0.141087 -2.46078e-21)
(1.26785 0.159516 0)
(1.24617 0.175105 3.32254e-21)
(1.21236 0.187021 1.30587e-21)
(1.17515 0.19557 -1.93391e-21)
(1.13489 0.199695 -1.34271e-20)
(1.09195 0.198063 0)
(1.04698 0.189027 3.23385e-20)
(1.00674 0.173302 3.55948e-20)
(0.976125 0.15532 1.14129e-20)
(0.953165 0.137788 4.48766e-20)
(0.93539 0.121573 6.58521e-20)
(0.917609 0.106942 0)
(0.875314 0.0922182 9.72063e-20)
(0.741447 0.0711541 1.40623e-19)
(0.49007 0.0436733 1.55837e-19)
(0.212421 0.0180114 -1.78766e-19)
(0.0240398 0.00207033 -3.27307e-21)
(0.274936 0.0404292 0)
(1.12287 0.165999 -1.37305e-20)
(1.27479 0.200828 0)
(1.29332 0.218555 2.18437e-20)
(1.26412 0.23066 0)
(1.22403 0.239267 9.64529e-21)
(1.18064 0.244606 2.43394e-21)
(1.1343 0.24552 -2.05733e-20)
(1.08537 0.240554 -3.1341e-21)
(1.03436 0.228067 1.57759e-20)
(0.98852 0.209209 8.30359e-20)
(0.953326 0.188962 -6.09985e-22)
(0.926586 0.169901 -3.37305e-20)
(0.905479 0.152673 -6.52573e-20)
(0.884629 0.137167 7.88856e-20)
(0.840491 0.121149 -1.41491e-19)
(0.712095 0.0962779 -1.9108e-20)
(0.475864 0.0628511 0)
(0.217325 0.0285934 9.95174e-23)
(0.0275014 0.00386087 0)
(0.267301 0.054038 -3.38987e-19)
(1.14435 0.225595 1.42057e-19)
(1.2961 0.265553 7.70116e-20)
(1.31005 0.282242 -1.45446e-20)
(1.27568 0.290532 2.21573e-20)
(1.23079 0.295222 -2.37769e-20)
(1.18238 0.296713 3.45153e-21)
(1.13082 0.293867 0)
(1.07654 0.285189 -6.30465e-20)
(1.02011 0.269007 0)
(0.969351 0.247046 -4.25638e-20)
(0.930224 0.22468 -5.95028e-20)
(0.900381 0.204355 -3.79081e-20)
(0.87678 0.186371 -4.8728e-20)
(0.854118 0.170231 0)
(0.811014 0.153259 0)
(0.694361 0.125626 -1.29044e-19)
(0.478536 0.0868005 2.55507e-20)
(0.23195 0.0424164 -1.48781e-20)
(0.0335059 0.00651615 -1.71176e-20)
(0.2593 0.0661932 2.52733e-19)
(1.15245 0.284895 0)
(1.308 0.331345 -2.17715e-19)
(1.31908 0.347161 -5.52712e-20)
(1.28107 0.351826 -4.10246e-20)
(1.23261 0.352619 0)
(1.18027 0.350205 -3.52937e-21)
(1.12445 0.343479 1.90553e-20)
(1.06565 0.330955 2.80406e-20)
(1.00452 0.310988 8.01395e-20)
(0.949562 0.285862 0)
(0.907251 0.261366 -1.30115e-19)
(0.875045 0.239778 -8.30832e-20)
(0.849617 0.221129 -5.00712e-20)
(0.82591 0.204652 3.27e-19)
(0.784899 0.186798 4.00713e-20)
(0.680257 0.157508 1.89645e-19)
(0.483386 0.112479 -9.06882e-19)
(0.245348 0.0579457 5.38657e-19)
(0.038886 0.00958977 -6.39375e-19)
(0.252107 0.0771998 2.68175e-19)
(1.15219 0.342041 -5.05145e-20)
(1.31301 0.39659 3.85732e-20)
(1.32203 0.411539 1.04365e-19)
(1.28135 0.412833 6.31657e-20)
(1.23017 0.409905 3.37635e-21)
(1.1747 0.403759 2.63989e-21)
(1.1154 0.393263 1.51366e-20)
(1.05282 0.376942 -6.17851e-20)
(0.987711 0.353185 0)
(0.929231 0.324823 -5.60339e-20)
(0.884366 0.298107 -3.09451e-21)
(0.850433 0.275136 -9.31475e-20)
(0.823828 0.255773 0)
(0.79969 0.238943 -7.15378e-20)
(0.761003 0.220557 -1.73848e-19)
(0.666174 0.189601 4.76659e-19)
(0.483778 0.138359 -4.71237e-19)
(0.252492 0.0732178 6.67383e-19)
(0.0423419 0.0125806 -6.84665e-19)
(0.246314 0.0874417 -8.15313e-22)
(1.14688 0.396401 6.22065e-20)
(1.31272 0.459745 1.85074e-19)
(1.32025 0.474209 -6.43208e-20)
(1.2776 0.472492 3.61946e-20)
(1.22429 0.46616 0)
(1.1663 0.456524 1.47868e-20)
(1.10411 0.44245 -1.25655e-20)
(1.03831 0.422471 -2.86452e-20)
(0.969786 0.394965 0)
(0.908304 0.363291 -5.51047e-20)
(0.861372 0.33417 -7.69895e-20)
(0.826187 0.309585 1.02109e-19)
(0.798933 0.289266 -6.52199e-20)
(0.774897 0.271867 -3.15991e-19)
(0.738475 0.252834 1.93809e-19)
(0.650828 0.220053 6.05005e-20)
(0.478743 0.162229 0)
(0.252901 0.0864159 -6.46793e-19)
(0.0434027 0.0149877 -2.3511e-20)
(0.241864 0.0972358 4.42317e-20)
(1.13862 0.447816 -7.17524e-20)
(1.30857 0.520296 -1.01358e-19)
(1.31495 0.534546 -1.97602e-19)
(1.27077 0.530186 1.76913e-19)
(1.21577 0.520797 -9.17665e-20)
(1.1557 0.507952 -3.08423e-20)
(1.09105 0.490543 -1.87267e-20)
(1.02246 0.46709 2.74507e-20)
(0.950882 0.435921 -1.9719e-19)
(0.886799 0.400861 -6.75661e-20)
(0.838133 0.369109 0)
(0.80197 0.342619 1.1179e-19)
(0.77442 0.320951 1.38087e-19)
(0.750735 0.302531 1.69787e-19)
(0.716277 0.282469 -2.11612e-19)
(0.633925 0.247195 -6.34378e-20)
(0.468869 0.182545 7.45371e-20)
(0.248552 0.0969221 0)
(0.0428596 0.0167447 -5.126e-20)
(0.238565 0.106709 -5.15059e-19)
(1.12885 0.496413 3.29167e-19)
(1.30169 0.57798 1.11682e-19)
(1.30706 0.5922 -1.51248e-19)
(1.26164 0.58556 1.06407e-19)
(1.20526 0.573444 -7.85144e-21)
(1.14347 0.5577 2.94546e-20)
(1.07671 0.537232 -7.90602e-21)
(1.00561 0.510526 -5.1656e-20)
(0.931266 0.475823 4.00092e-22)
(0.864745 0.437321 -2.02436e-19)
(0.814603 0.402731 1.96047e-19)
(0.777735 0.374057 -1.25285e-19)
(0.750028 0.350692 1.55625e-19)
(0.72673 0.330944 0)
(0.693792 0.30934 -1.1493e-19)
(0.615084 0.2711 -2.13137e-21)
(0.454879 0.199709 -3.26256e-19)
(0.240098 0.104793 -4.78212e-20)
(0.0410272 0.0178265 0)
(0.236254 0.115971 0)
(1.1184 0.542431 3.57869e-19)
(1.29284 0.632654 2.60965e-19)
(1.29731 0.647056 1.71005e-19)
(1.25081 0.638412 1.01813e-19)
(1.19332 0.62388 0)
(1.13008 0.605543 3.11188e-20)
(1.06148 0.582311 -2.37606e-21)
(0.988126 0.552615 1.10091e-19)
(0.911183 0.514557 -2.44268e-20)
(0.842354 0.47261 -1.48344e-19)
(0.790763 0.434986 9.83535e-20)
(0.753222 0.403813 -3.95067e-21)
(0.725389 0.378455 1.63924e-19)
(0.702501 0.35705 1.06858e-19)
(0.670733 0.333532 -2.50054e-19)
(0.594338 0.291538 3.01067e-19)
(0.437528 0.213289 8.91966e-20)
(0.228391 0.110131 3.65632e-19)
(0.0381852 0.0181872 -9.66747e-19)
(0.234835 0.125157 -1.32722e-19)
(1.10786 0.586038 2.06835e-19)
(1.28285 0.684412 -1.63188e-19)
(1.28621 0.699091 -1.99008e-19)
(1.23883 0.688651 0)
(1.18041 0.671982 8.18186e-20)
(1.11594 0.651352 -8.81526e-20)
(1.0457 0.625653 7.65727e-21)
(0.970287 0.593252 0)
(0.890858 0.552066 -3.77068e-19)
(0.81968 0.506714 4.04471e-19)
(0.766483 0.465924 0)
(0.728192 0.431969 1.48148e-19)
(0.700266 0.404281 -3.94129e-21)
(0.677725 0.380896 -3.37974e-19)
(0.646712 0.355047 1.32756e-19)
(0.571616 0.308734 0)
(0.417448 0.223405 4.83723e-19)
(0.214273 0.113036 0)
(0.0346894 0.0180004 -4.60204e-19)
(0.234096 0.134292 1.48157e-19)
(1.09755 0.627412 2.36748e-19)
(1.27201 0.733279 -1.70894e-19)
(1.27421 0.748299 0)
(1.2261 0.736257 1.41188e-19)
(1.16691 0.717711 0)
(1.10137 0.695058 1.18802e-19)
(1.02968 0.667186 1.07466e-20)
(0.952337 0.632382 1.24698e-20)
(0.87044 0.588331 -1.86334e-19)
(0.796764 0.539699 3.94196e-20)
(0.74186 0.495638 0)
(0.702662 0.458684 -3.14993e-19)
(0.674535 0.428404 4.05858e-21)
(0.652231 0.402733 0)
(0.621565 0.37413 4.73346e-21)
(0.546812 0.322837 4.42493e-19)
(0.394701 0.230071 -4.22298e-19)
(0.198159 0.113521 1.2399e-19)
(0.0307031 0.0172181 0)
(0.233715 0.143247 0)
(1.08771 0.6666 2.65301e-19)
(1.26066 0.779413 2.00658e-19)
(1.26168 0.794729 -4.43952e-21)
(1.21295 0.781255 8.89924e-20)
(1.15311 0.761064 1.92628e-19)
(1.08666 0.736644 -3.76132e-20)
(1.01366 0.706879 1.22381e-21)
(0.934487 0.669977 7.03296e-20)
(0.85012 0.623379 -2.91405e-19)
(0.773841 0.571666 -6.41677e-21)
(0.716952 0.524306 -1.2938e-19)
(0.676617 0.484146 5.15637e-19)
(0.648115 0.451001 -4.81077e-21)
(0.625927 0.422724 -2.6561e-19)
(0.595204 0.390867 -4.84175e-19)
(0.520002 0.333899 0)
(0.36957 0.233432 0)
(0.180325 0.111534 1.35589e-19)
(0.0264177 0.0158708 -7.81685e-20)
(0.233885 0.152178 1.84668e-19)
(1.07835 0.703541 -5.82484e-19)
(1.24904 0.822919 -2.14811e-19)
(1.24891 0.838454 0)
(1.19965 0.823701 -3.05139e-21)
(1.13927 0.802069 2.32618e-19)
(1.07203 0.776117 -1.29083e-19)
(0.997846 0.744729 -4.51418e-20)
(0.916952 0.706047 7.59374e-20)
(0.830145 0.657253 -2.25765e-19)
(0.751063 0.602724 -3.42575e-19)
(0.69182 0.552111 3.44909e-19)
(0.650017 0.508564 0)
(0.620946 0.472249 -1.1953e-19)
(0.598729 0.441005 -2.91041e-19)
(0.567566 0.405316 -3.50138e-19)
(0.491143 0.341798 -4.22539e-19)
(0.3422 0.233363 1.25523e-19)
(0.160938 0.106994 -7.33328e-20)
(0.0218124 0.0139641 7.02662e-22)
(0.234058 0.160935 0)
(1.06964 0.73858 0)
(1.23734 0.863854 5.0121e-21)
(1.23608 0.879561 0)
(1.18638 0.863678 -3.34649e-19)
(1.12556 0.840785 -2.06262e-19)
(1.05766 0.813507 0)
(0.982422 0.780752 -1.29346e-20)
(0.899924 0.740598 1.02201e-19)
(0.810678 0.68998 -5.18696e-19)
(0.72857 0.632973 0)
(0.666616 0.579255 -2.20992e-19)
(0.622912 0.532184 -5.8954e-21)
(0.592959 0.492344 -4.84363e-21)
(0.570538 0.457677 3.10251e-19)
(0.538567 0.417441 -8.42978e-22)
(0.460272 0.346461 -9.158e-19)
(0.312591 0.229678 2.72537e-19)
(0.140244 0.0999653 8.04008e-20)
(0.0170711 0.0116195 0)
(0.23427 0.169438 -6.78666e-19)
(1.06129 0.7719 -3.58231e-19)
(1.2257 0.902332 -5.381e-19)
(1.22336 0.918152 7.50625e-19)
(1.17329 0.901252 -6.27697e-19)
(1.11214 0.877267 0)
(1.04368 0.848857 -1.113e-19)
(0.967524 0.81497 2.34606e-20)
(0.883526 0.773642 7.50045e-21)
(0.791866 0.721588 4.07141e-20)
(0.706563 0.662507 4.30429e-19)
(0.641489 0.605931 -7.56925e-20)
(0.59536 0.555278 -3.17632e-19)
(0.564062 0.511526 -1.41492e-19)
(0.541201 0.472798 1.72197e-19)
(0.508128 0.42709 -6.17277e-22)
(0.427584 0.347647 2.50045e-19)
(0.281047 0.222266 -5.89943e-19)
(0.118919 0.0907395 6.97346e-19)
(0.0124143 0.00897472 9.96775e-20)
(0.234334 0.177646 2.4942e-19)
(1.05332 0.803544 -1.96152e-19)
(1.21424 0.938472 1.18193e-20)
(1.21086 0.954354 4.24194e-19)
(1.16051 0.936529 1.46971e-19)
(1.09909 0.911584 4.11341e-19)
(1.03021 0.882213 -5.0019e-20)
(0.953246 0.847402 1.14501e-19)
(0.867868 0.805176 -7.05951e-20)
(0.77386 0.75208 -2.85805e-19)
(0.685229 0.691395 0)
(0.616629 0.632311 -3.39908e-19)
(0.567454 0.578152 4.60603e-19)
(0.534139 0.53011 0)
(0.510422 0.48641 -3.68246e-19)
(0.476037 0.433885 2.26711e-19)
(0.393228 0.344796 -2.69741e-19)
(0.248646 0.21107 -3.21229e-19)
(0.0979344 0.0798086 -5.656e-19)
(0.00809005 0.00621786 -4.34537e-19)
(0.234616 0.185622 -2.73672e-19)
(1.04557 0.833495 2.09397e-19)
(1.20301 0.97235 5.01316e-19)
(1.19866 0.988252 5.82672e-19)
(1.14811 0.969599 -3.0686e-19)
(1.08652 0.94382 2.84111e-19)
(1.0173 0.913627 -1.54939e-19)
(0.939662 0.878091 1.44688e-19)
(0.85303 0.835226 -3.02227e-20)
(0.756781 0.781466 2.76209e-19)
(0.664731 0.719674 9.16909e-19)
(0.592248 0.658536 0)
(0.539367 0.601119 0)
(0.503072 0.548551 -1.63414e-19)
(0.477688 0.498659 0)
(0.441731 0.437158 4.92209e-19)
(0.357359 0.336764 5.86841e-19)
(0.21673 0.195617 0)
(0.0786974 0.0676517 0)
(0.00439095 0.00362194 4.70875e-19)
(0.234576 0.19312 3.01906e-19)
(1.03807 0.861761 2.51165e-19)
(1.19207 1.00409 3.59619e-19)
(1.18682 1.01997 -5.1982e-19)
(1.13615 1.00056 -3.41912e-19)
(1.07446 0.974047 -3.77035e-19)
(1.00502 0.943161 2.29691e-19)
(0.926824 0.907067 5.9413e-22)
(0.839081 0.863796 -9.62622e-21)
(0.740712 0.80973 -1.15937e-20)
(0.645246 0.747356 4.65113e-19)
(0.568577 0.684685 0)
(0.511352 0.624464 4.64972e-19)
(0.470851 0.56744 3.45037e-19)
(0.442259 0.510047 8.74656e-19)
(0.403917 0.436262 2.65539e-19)
(0.319634 0.321326 -3.21425e-19)
(0.187897 0.173846 -1.87744e-19)
(0.0654262 0.054191 0)
(0.00257791 0.00167376 5.09445e-19)
(0.234751 0.200547 -6.6191e-19)
(1.03079 0.888444 0)
(1.18143 1.03375 4.01347e-19)
(1.17537 1.0496 -4.25201e-19)
(1.12468 1.0295 3.86896e-19)
(1.06295 1.00235 5.50864e-19)
(0.99339 0.970871 -5.33557e-19)
(0.914758 0.934368 4.22248e-21)
(0.826046 0.890895 0)
(0.72572 0.836836 -2.63567e-19)
(0.62692 0.774415 -9.6869e-19)
(0.545856 0.710797 4.66324e-20)
(0.483778 0.64838 6.33305e-19)
(0.437683 0.587454 0)
(0.403385 0.521617 5.91049e-19)
(0.360307 0.431489 0)
(0.276945 0.295413 0)
(0.163687 0.136931 -2.07461e-19)
(0.0748498 0.0285373 0)
(0.024905 0.00996115 1.37148e-19)
(0.23457 0.207337 -7.23649e-19)
(1.02371 0.913841 0)
(1.17108 1.06154 6.481e-19)
(1.16429 1.07735 0)
(1.11365 1.05668 -2.09574e-19)
(1.05192 1.02901 0)
(0.982348 0.997064 -4.01053e-20)
(0.903367 0.960326 -2.54962e-20)
(0.813812 0.916883 1.69515e-21)
(0.711661 0.863168 -2.62631e-19)
(0.609625 0.801271 2.56885e-20)
(0.523966 0.73743 3.84271e-19)
(0.456489 0.673423 6.13085e-19)
(0.403261 0.609629 8.71696e-20)
(0.359736 0.535362 4.63504e-19)
(0.307126 0.425458 0)
(0.217953 0.260188 6.9724e-19)
(0.115805 0.0747198 -4.06591e-19)
(0.0474097 0.0506963 4.63678e-19)
(-0.0578636 0.410858 -5.46973e-19)
(0.234366 0.213866 5.89148e-19)
(1.01658 0.93785 9.50417e-19)
(1.16094 1.08778 0)
(1.15344 1.10366 9.7616e-21)
(1.10289 1.08266 5.69186e-19)
(1.04114 1.05469 -1.06422e-18)
(0.971608 1.02252 -2.35474e-19)
(0.89228 0.985864 0)
(0.801897 0.942836 -3.2407e-20)
(0.697927 0.890015 -8.74387e-21)
(0.592534 0.829383 0)
(0.501865 0.766358 0)
(0.428263 0.701414 5.39892e-19)
(0.36645 0.635905 -2.72827e-19)
(0.308917 0.554933 -4.65063e-19)
(0.239801 0.424702 0)
(0.123808 0.24002 3.53086e-19)
(0.0181274 0.43003 -4.0382e-19)
(0.0403923 1.83309 -2.131e-19)
(0.0732851 2.77826 -2.86224e-19)
(0.23396 0.219609 -4.27884e-19)
(1.00956 0.960573 -1.19608e-18)
(1.15103 1.11246 3.72044e-19)
(1.14283 1.12838 3.59276e-19)
(1.09247 1.10723 0)
(1.03067 1.0791 -7.61298e-19)
(0.961348 1.04693 -3.9535e-19)
(0.881662 1.01056 1.73766e-20)
(0.790541 0.968238 -3.94062e-21)
(0.684862 0.916754 2.07648e-19)
(0.576211 0.858025 4.36879e-19)
(0.48051 0.797074 3.99276e-19)
(0.400267 0.731919 5.31829e-19)
(0.329558 0.664576 -6.24775e-19)
(0.257143 0.583116 -6.9116e-19)
(0.161082 0.451565 0)
(0.0639611 0.814982 0)
(0.118015 2.50952 1.82381e-19)
(0.121999 3.17722 0)
(0.123934 3.3785 3.91018e-19)
(0.236496 0.225004 0)
(1.00322 0.982217 0)
(1.14107 1.13544 0)
(1.13224 1.15129 9.99649e-20)
(1.08208 1.13015 5.06136e-19)
(1.02027 1.10212 -5.80883e-19)
(0.951473 1.07018 -2.83139e-19)
(0.871455 1.03429 1.99152e-20)
(0.779694 0.992941 -1.02176e-19)
(0.672476 0.943234 -1.99433e-20)
(0.560771 0.887039 7.96372e-19)
(0.460257 0.829378 -4.68645e-20)
(0.372989 0.765554 6.03379e-20)
(0.294456 0.692511 8.89591e-20)
(0.204679 0.618689 2.59633e-21)
(0.126699 0.93192 3.55532e-21)
(0.164036 2.65076 -9.33809e-19)
(0.178752 3.27758 -3.48779e-19)
(0.163828 3.42462 1.58257e-19)
(0.147152 3.44943 -1.624e-19)
(0.155519 0.176841 2.35227e-19)
(0.991709 1.00581 0)
(1.13088 1.1569 -7.16654e-19)
(1.12224 1.17287 -9.13368e-19)
(1.07234 1.15209 1.05824e-18)
(1.01075 1.1243 6.17888e-19)
(0.941832 1.09236 3.29015e-19)
(0.861727 1.05716 -3.47483e-19)
(0.769525 1.01702 1.15961e-19)
(0.661106 0.969459 0)
(0.546716 0.916365 3.47632e-19)
(0.441793 0.862778 -2.9943e-19)
(0.347259 0.804524 0)
(0.262529 0.723215 7.62095e-20)
(0.181726 0.832031 1.85253e-19)
(0.179219 2.37167 -2.31281e-19)
(0.248501 3.31418 2.52825e-19)
(0.224944 3.44321 1.23857e-19)
(0.186742 3.46702 1.37234e-19)
(0.161763 3.47819 1.78932e-19)
(0.275428 0.261787 -4.23619e-19)
(0.974586 1.01376 0)
(1.11227 1.18083 7.37384e-19)
(1.10833 1.20475 9.52676e-19)
(1.05674 1.18441 -1.07918e-18)
(0.994863 1.15714 -6.53645e-19)
(0.925208 1.12656 -5.1158e-19)
(0.844704 1.09254 -2.57465e-20)
(0.751508 1.05455 -1.7817e-19)
(0.64091 1.01091 4.6957e-20)
(0.522282 0.964171 1.41081e-20)
(0.410561 0.91861 2.33847e-19)
(0.301738 0.873644 4.97042e-20)
(0.234452 0.980012 -7.10191e-20)
(0.254923 2.22963 -1.6435e-19)
(0.32255 3.31773 1.19655e-19)
(0.309478 3.47965 -1.13851e-19)
(0.269773 3.50342 -6.43136e-20)
(0.229892 3.53166 -2.41045e-21)
(0.173726 3.52371 -1.7822e-21)
(0.263905 0.258681 0)
(0.97171 1.03545 1.93984e-19)
(1.10421 1.20331 -1.46929e-19)
(1.0985 1.22719 -1.06894e-19)
(1.04697 1.20682 -7.12065e-19)
(0.985249 1.17978 6.40221e-19)
(0.915398 1.14938 3.45872e-19)
(0.834932 1.11616 -2.72465e-20)
(0.741588 1.07963 2.25157e-19)
(0.630329 1.03879 -2.81879e-20)
(0.509969 0.996813 -4.643e-19)
(0.395462 0.957419 3.32355e-20)
(0.289639 0.937982 -4.31473e-20)
(0.275056 1.42166 -5.91481e-20)
(0.35965 3.04144 3.56901e-20)
(0.391434 3.47358 2.2152e-21)
(0.345556 3.54206 -1.1708e-20)
(0.30573 3.56654 -6.51716e-20)
(0.252985 3.59103 1.25146e-19)
(0.189224 3.5856 3.66187e-20)
(0.247564 0.256024 4.72864e-19)
(0.967157 1.05948 1.31597e-18)
(1.09555 1.22771 -4.2151e-19)
(1.08821 1.25105 -4.0736e-19)
(1.03675 1.23052 0)
(0.975231 1.20348 9.42173e-19)
(0.905463 1.17331 5.30181e-19)
(0.825317 1.14083 -2.89179e-20)
(0.732159 1.10583 2.3197e-20)
(0.620762 1.06796 8.6928e-20)
(0.49946 1.03102 -1.50469e-19)
(0.384086 0.998905 -2.2913e-19)
(0.294853 1.05514 -2.83772e-19)
(0.347615 2.05604 3.11006e-19)
(0.452004 3.3656 1.65367e-19)
(0.44146 3.54225 0)
(0.387961 3.58915 0)
(0.348654 3.63388 1.2373e-19)
(0.286097 3.6993 0)
(0.201786 3.66799 2.27123e-19)
(0.236389 0.256949 -6.9437e-19)
(0.960443 1.08422 -1.10033e-18)
(1.08548 1.25321 0)
(1.0767 1.27571 1.1305e-20)
(1.02537 1.25477 -6.98841e-19)
(0.96417 1.2276 1.4052e-18)
(0.894814 1.19766 3.58178e-19)
(0.81521 1.16582 -3.67192e-20)
(0.7225 1.13225 2.62359e-19)
(0.611382 1.09729 -1.22322e-20)
(0.489952 1.0655 0)
(0.376106 1.043 0)
(0.323204 1.26452 -2.09648e-19)