/*--------------------------------*- C++ -*----------------------------------*\
| =========                 |                                                 |
| \\      /  F ield         | OpenFOAM: The Open Source CFD Toolbox           |
|  \\    /   O peration     | Version:  2306                                  |
|   \\  /    A nd           | Website:  www.openfoam.com                      |
|    \\/     M anipulation  |                                                 |
\*---------------------------------------------------------------------------*/
FoamFile
{
    version     2.0;
    format      ascii;
    arch        "LSB;label=32;scalar=64";
    class       volScalarField;
    location    "30";
    object      p;
}
// * * * * * * * * * * * * * * * * * * * * * * * * * * * * * * * * * * * * * //

dimensions      [0 2 -2 0 0 0 0];

internalField   nonuniform List<scalar> 
8800
(
1.64869
1.60064
1.56226
1.53361
1.51297
1.49819
1.48756
1.48001
1.47511
1.47296
1.47413
1.47825
1.48485
1.49413
1.50685
1.52441
1.54884
1.58243
1.62487
1.68199
1.48123
1.48844
1.49687
1.50028
1.49835
1.49281
1.48608
1.47988
1.47507
1.47213
1.47175
1.47416
1.47859
1.48453
1.49139
1.49797
1.50208
1.50155
1.49547
1.48648
1.45796
1.46414
1.46833
1.47168
1.47417
1.47494
1.4738
1.47161
1.4695
1.46849
1.46934
1.47164
1.47439
1.47654
1.47702
1.47546
1.47258
1.46892
1.46438
1.46059
1.45286
1.45556
1.45828
1.46058
1.46221
1.46352
1.46439
1.46454
1.4642
1.46405
1.46467
1.46571
1.4664
1.46626
1.46541
1.46416
1.46237
1.45984
1.4574
1.45587
1.44771
1.44914
1.45093
1.45298
1.45473
1.45601
1.457
1.45781
1.4584
1.45887
1.45936
1.45968
1.45959
1.45914
1.45837
1.4571
1.45535
1.45342
1.45208
1.45126
1.44277
1.44368
1.44492
1.44651
1.44815
1.44966
1.45089
1.45191
1.4528
1.45358
1.45408
1.45421
1.454
1.45344
1.45247
1.45116
1.44973
1.44841
1.44756
1.44702
1.43799
1.43865
1.43962
1.44093
1.44235
1.44382
1.44524
1.4465
1.4476
1.44854
1.44915
1.44931
1.44903
1.44834
1.44737
1.44628
1.44515
1.44415
1.44353
1.44314
1.43335
1.43386
1.43466
1.43581
1.4371
1.43848
1.43992
1.44135
1.44267
1.44382
1.44457
1.44477
1.44448
1.44385
1.44304
1.44213
1.44121
1.44042
1.43995
1.43965
1.42882
1.42922
1.42989
1.43094
1.43217
1.43351
1.43494
1.43645
1.43796
1.43934
1.44027
1.44058
1.4404
1.43994
1.4393
1.43855
1.43778
1.43715
1.43679
1.43655
1.42432
1.42464
1.42523
1.42621
1.4274
1.42872
1.43017
1.43173
1.43337
1.43498
1.43616
1.4367
1.43676
1.4365
1.43603
1.43545
1.43482
1.43432
1.43403
1.43384
1.4198
1.42006
1.42059
1.42153
1.42272
1.42408
1.4256
1.42728
1.4291
1.43098
1.43247
1.43331
1.43362
1.43356
1.43325
1.43281
1.43231
1.43192
1.4317
1.43155
1.41522
1.41542
1.41591
1.41685
1.41808
1.41951
1.42116
1.42302
1.42509
1.42729
1.42919
1.4304
1.43099
1.43113
1.43101
1.4307
1.43031
1.43
1.42984
1.42972
1.41053
1.41069
1.41115
1.41211
1.41339
1.41491
1.41666
1.41873
1.42115
1.42381
1.42619
1.42778
1.42871
1.42917
1.42928
1.42915
1.42888
1.42866
1.42855
1.42845
1.40569
1.4058
1.40625
1.40722
1.40856
1.41019
1.41213
1.41444
1.41718
1.42035
1.42334
1.42554
1.42695
1.42776
1.42813
1.42822
1.42811
1.42799
1.42793
1.42785
1.40065
1.40072
1.40115
1.40216
1.40361
1.4054
1.40758
1.41029
1.41358
1.41746
1.42119
1.42399
1.42587
1.42706
1.42775
1.42807
1.42814
1.42814
1.42813
1.42807
1.39529
1.39535
1.39575
1.39675
1.39826
1.4002
1.40263
1.40572
1.40959
1.41429
1.41896
1.42261
1.4252
1.42694
1.42808
1.42875
1.4291
1.42927
1.42931
1.42926
1.38925
1.3893
1.38972
1.39074
1.39238
1.39456
1.3974
1.40108
1.40578
1.41154
1.41734
1.42194
1.42526
1.42762
1.42928
1.43035
1.431
1.43133
1.43142
1.43136
1.38221
1.38225
1.38271
1.38381
1.38565
1.38817
1.39153
1.39595
1.40167
1.40876
1.41595
1.42173
1.426
1.42908
1.43129
1.43283
1.43381
1.43431
1.43443
1.43437
1.37375
1.37378
1.37432
1.3756
1.37776
1.38078
1.38484
1.39025
1.39727
1.406
1.41491
1.42211
1.42745
1.43137
1.43424
1.43626
1.43759
1.43824
1.4384
1.43833
1.36344
1.36348
1.36413
1.36571
1.36836
1.37208
1.37712
1.38385
1.39256
1.40337
1.41435
1.42321
1.42981
1.43468
1.43826
1.44081
1.44248
1.44329
1.44349
1.44339
1.35076
1.35081
1.35163
1.35362
1.35696
1.36166
1.36802
1.37647
1.38736
1.40073
1.41422
1.42504
1.43312
1.43908
1.44351
1.44666
1.44871
1.44968
1.44991
1.4498
1.33495
1.33502
1.33609
1.33869
1.34301
1.34906
1.35724
1.36801
1.38169
1.39824
1.4147
1.42782
1.43758
1.4448
1.45018
1.45403
1.4565
1.45764
1.45791
1.45778
1.31488
1.31496
1.31642
1.31992
1.32571
1.33373
1.34444
1.35831
1.37555
1.39596
1.41592
1.43166
1.44335
1.45202
1.45851
1.46314
1.46606
1.46739
1.46769
1.46754
1.28888
1.289
1.29108
1.29604
1.30411
1.31508
1.32938
1.34737
1.36908
1.3941
1.41805
1.43675
1.45061
1.46092
1.46863
1.47415
1.47756
1.4791
1.47943
1.47924
1.25408
1.25434
1.25769
1.26528
1.2771
1.29259
1.31199
1.33539
1.36256
1.3929
1.4213
1.44323
1.45946
1.47159
1.48067
1.48715
1.49112
1.49287
1.49321
1.49298
1.20488
1.20604
1.21273
1.22567
1.24393
1.26626
1.29263
1.32283
1.35643
1.39271
1.42588
1.45122
1.46994
1.48398
1.49452
1.50208
1.5067
1.50865
1.50896
1.50867
1.13261
1.14027
1.15565
1.1784
1.20612
1.23745
1.27227
1.31029
1.35107
1.39389
1.43232
1.46146
1.48304
1.49933
1.51171
1.52071
1.52624
1.52864
1.52907
1.52886
1.05556
1.07273
1.09752
1.13062
1.16811
1.20856
1.25192
1.298
1.34645
1.39665
1.44148
1.47557
1.50096
1.52025
1.53513
1.54624
1.55313
1.55602
1.55676
1.55673
0.991505
1.01173
1.04441
1.08605
1.13207
1.18105
1.23262
1.28656
1.3425
1.39984
1.4507
1.48927
1.51801
1.53994
1.55681
1.56932
1.57732
1.58096
1.58156
1.58162
0.93937
0.96157
0.999384
1.04706
1.09977
1.15581
1.21459
1.27571
1.33863
1.40265
1.45906
1.50161
1.53315
1.55711
1.57553
1.58928
1.59841
1.60225
1.60297
1.60311
0.896201
0.919528
0.9608
1.0133
1.07132
1.13316
1.19807
1.26548
1.3347
1.40483
1.46625
1.51225
1.54613
1.57173
1.59136
1.60596
1.61564
1.61995
1.62094
1.62113
0.859283
0.883261
0.927313
0.983487
1.04595
1.11269
1.18288
1.25584
1.3307
1.40636
1.47229
1.52131
1.55715
1.58405
1.60453
1.61974
1.62982
1.63452
1.63575
1.63594
0.82667
0.851095
0.897238
0.956546
1.02278
1.09377
1.16862
1.24654
1.32651
1.40724
1.47731
1.52905
1.56657
1.59448
1.61557
1.63117
1.64135
1.64632
1.64765
1.64782
0.796953
0.821777
0.869669
0.931644
1.00111
1.07584
1.15485
1.23727
1.32197
1.40744
1.48143
1.53573
1.57477
1.60353
1.62502
1.6408
1.65108
1.65614
1.65755
1.65767
0.76926
0.794442
0.843906
0.908135
0.980468
1.0585
1.14125
1.22779
1.31689
1.40689
1.48469
1.54151
1.58204
1.61162
1.63352
1.64942
1.65976
1.66486
1.66632
1.66642
0.742886
0.76847
0.819366
0.885574
0.96048
1.04147
1.12759
1.2179
1.31114
1.4055
1.4871
1.54651
1.58862
1.6191
1.64146
1.65757
1.66792
1.67293
1.67443
1.67456
0.717537
0.743559
0.795519
0.863694
0.940896
1.02454
1.11372
1.2075
1.3046
1.40321
1.48865
1.55081
1.59469
1.62621
1.64914
1.6655
1.67592
1.68087
1.68227
1.68234
0.692862
0.719457
0.772409
0.84232
0.921566
1.00759
1.09954
1.1965
1.29724
1.39995
1.48934
1.55449
1.60035
1.6331
1.65674
1.67344
1.68393
1.68881
1.69007
1.69007
0.668781
0.695794
0.749874
0.821328
0.902403
0.990572
1.08502
1.18488
1.28901
1.39571
1.48914
1.5575
1.60562
1.63981
1.6643
1.68142
1.69199
1.69675
1.69787
1.69777
0.645202
0.672765
0.727805
0.80066
0.883384
0.973466
1.07015
1.17265
1.2799
1.39043
1.48793
1.55977
1.61046
1.64637
1.67186
1.68944
1.70003
1.7046
1.70556
1.70537
0.622057
0.650224
0.706186
0.780319
0.864511
0.956301
1.05498
1.15983
1.26994
1.38406
1.48562
1.56118
1.61483
1.65277
1.67943
1.69749
1.70803
1.7123
1.71305
1.71281
0.599346
0.628169
0.685038
0.760333
0.845835
0.939121
1.03955
1.14648
1.25915
1.37659
1.48213
1.56161
1.61859
1.659
1.68709
1.7056
1.71589
1.71973
1.72025
1.71995
0.577241
0.606671
0.664404
0.740741
0.827404
0.922004
1.02395
1.13269
1.2476
1.36806
1.4774
1.56088
1.62156
1.66499
1.69495
1.71392
1.72363
1.72677
1.72701
1.72668
0.555779
0.585784
0.644319
0.721603
0.809284
0.905018
1.00827
1.11855
1.2354
1.3585
1.47137
1.55883
1.62351
1.67057
1.70315
1.72287
1.73154
1.73339
1.73319
1.73287
0.534901
0.565553
0.624822
0.702961
0.791544
0.888251
0.992608
1.10417
1.22264
1.348
1.46401
1.55534
1.62414
1.67538
1.71166
1.73312
1.74061
1.74009
1.73874
1.73856
0.51478
0.545995
0.605977
0.684885
0.774246
0.871788
0.977058
1.08966
1.20945
1.33667
1.45535
1.55028
1.62313
1.67884
1.71996
1.74512
1.75289
1.74942
1.74502
1.74384
0.495334
0.527114
0.587767
0.667349
0.757359
0.855584
0.961566
1.07496
1.19575
1.32444
1.44525
1.54339
1.62019
1.68017
1.72682
1.75813
1.76993
1.76723
1.75625
1.74392
0.476636
0.508921
0.570063
0.650164
0.740589
0.8393
0.945711
1.05958
1.18099
1.31064
1.43303
1.5338
1.61461
1.67817
1.72955
1.76805
1.78499
1.77768
1.76051
1.74802
0.458854
0.491399
0.553034
0.633554
0.724208
0.823267
0.929717
1.04386
1.1655
1.29557
1.41885
1.52115
1.60597
1.6719
1.72305
1.76193
1.78189
1.76295
1.69415
1.66162
0.44244
0.473364
0.537069
0.618103
0.708936
0.807991
0.913875
1.02804
1.14952
1.27941
1.40278
1.50525
1.59332
1.66158
1.70336
1.73374
1.73672
1.68746
1.61569
1.57195
0.392356
0.456676
0.522427
0.602858
0.693587
0.792251
0.898204
1.01191
1.13277
1.26177
1.38435
1.48586
1.57342
1.64861
1.65801
1.66822
1.63445
1.57106
1.49403
1.45105
0.425528
0.442288
0.500946
0.580825
0.670917
0.769236
0.874254
0.987017
1.10647
1.23334
1.35303
1.45166
1.53004
1.60621
1.60468
1.4996
1.39817
1.32721
1.25435
1.29151
0.394174
0.424178
0.484023
0.563425
0.653479
0.75143
0.85651
0.96849
1.08668
1.21144
1.32789
1.42248
1.49293
1.53327
1.48952
1.3456
1.21942
1.12935
1.03058
1.08678
0.370402
0.402854
0.464366
0.544028
0.634086
0.731884
0.836752
0.947766
1.06437
1.18646
1.29888
1.38779
1.44829
1.45629
1.35299
1.17915
1.02578
0.90619
0.77564
0.816837
0.347216
0.381019
0.443793
0.524222
0.61443
0.712072
0.816365
0.926285
1.04111
1.16021
1.26782
1.35032
1.39585
1.37091
1.21248
1.0123
0.819546
0.644968
0.451856
0.453501
0.324645
0.358795
0.422443
0.503547
0.593953
0.691387
0.79499
0.903709
1.01653
1.1323
1.23455
1.30986
1.33779
1.27729
1.07822
0.859542
0.637299
0.444712
0.180063
-0.103026
0.301831
0.335944
0.400053
0.481624
0.572237
0.669515
0.772501
0.880005
0.990747
1.103
1.1997
1.26666
1.27657
1.16488
0.960532
0.738267
0.520292
0.343864
0.261946
0.127541
0.2779
0.312012
0.376321
0.458126
0.548813
0.645849
0.748128
0.854255
0.962615
1.07088
1.16158
1.21875
1.20321
1.05336
0.855278
0.648989
0.469145
0.370293
0.346301
0.327647
0.252565
0.286673
0.351104
0.432985
0.523575
0.620213
0.721563
0.826023
0.931587
1.03524
1.11951
1.16438
1.12674
0.948874
0.76001
0.579312
0.440366
0.399434
0.384942
0.383117
0.225625
0.259803
0.324365
0.406237
0.496606
0.592642
0.69283
0.795306
0.897638
0.996093
1.07325
1.10422
1.047
0.850571
0.671337
0.511204
0.420571
0.404709
0.403349
0.403293
0.197079
0.231391
0.296105
0.377925
0.467934
0.563194
0.66198
0.762153
0.860824
0.953562
1.02258
1.04074
0.949533
0.759759
0.588528
0.456361
0.41646
0.412913
0.412618
0.413174
0.167243
0.201727
0.266472
0.348177
0.437697
0.531986
0.629117
0.726672
0.821251
0.907794
0.96805
0.970384
0.849495
0.673039
0.520605
0.431398
0.42091
0.419068
0.418315
0.41858
0.136703
0.171242
0.235752
0.317257
0.40614
0.49925
0.594479
0.689099
0.77922
0.859049
0.910884
0.893465
0.756039
0.592742
0.462266
0.436711
0.421123
0.419714
0.420688
0.421273
0.105891
0.140342
0.204535
0.285609
0.373665
0.465392
0.558457
0.649844
0.735213
0.808008
0.851317
0.816571
0.662627
0.513918
0.416105
0.388019
0.404937
0.416034
0.420089
0.421109
0.0756849
0.109814
0.173581
0.253851
0.34087
0.430985
0.521642
0.609535
0.689937
0.755668
0.789231
0.740243
0.568059
0.433812
0.364662
0.382382
0.390382
0.400547
0.408452
0.411612
0.0475834
0.0807741
0.143723
0.222924
0.308621
0.396835
0.484862
0.569085
0.644315
0.703099
0.728424
0.666817
0.47792
0.327355
0.306062
0.3212
0.331528
0.339375
0.348664
0.354673
0.0228846
0.0550947
0.115927
0.193993
0.277957
0.364002
0.449184
0.529682
0.599739
0.651706
0.672984
0.597688
0.411992
0.202532
0.155814
0.188194
0.24089
0.256925
0.261426
0.265649
0.00349345
0.0338401
0.0924994
0.168309
0.250155
0.333751
0.415938
0.49275
0.558109
0.60292
0.623462
0.537672
0.390608
0.184164
-0.0131053
0.0661034
0.10899
0.117515
0.125002
0.129062
-0.0088475
0.0189386
0.0745706
0.147658
0.226803
0.307581
0.386684
0.45998
0.521351
0.559698
0.579696
0.484337
0.40639
0.445261
0.394343
0.179347
-0.0212045
-0.0292096
-0.0127962
-0.00746451
-0.011883
0.012229
0.0638745
0.133526
0.209493
0.287084
0.363108
0.433332
0.491255
0.525703
0.534137
0.429487
0.385251
0.668841
0.767732
0.361791
0.0400783
0.00209351
-0.0160037
-0.0225789
-0.00435993
0.0155368
0.0621311
0.127267
0.199548
0.27379
0.347072
0.414991
0.470604
0.502532
0.491019
0.325491
-0.00936772
-0.391232
-0.748534
-1.10005
-0.969795
-0.579899
-0.339142
-0.323812
0.0156011
0.0312189
0.0705865
0.1298
0.19782
0.268846
0.339883
0.407071
0.463501
0.495501
0.478325
0.219693
-0.487835
-1.5474
-2.1266
-2.35959
-2.18704
-1.79787
-1.40005
-1.20225
0.0463696
0.0571645
0.0887978
0.140877
0.204376
0.272479
0.342472
0.41086
0.472354
0.513815
0.507766
0.300702
-0.215735
-0.833964
-1.33437
-1.47205
-1.30232
-1.00209
-0.733761
-0.599145
0.0839039
0.0903584
0.113618
0.158495
0.217623
0.283681
0.354227
0.426651
0.496507
0.563419
0.600551
0.618524
0.594401
0.713536
0.923542
1.22487
1.52459
1.7384
1.87124
1.92679
0.122587
0.126147
0.140808
0.178687
0.234527
0.300008
0.372261
0.451148
0.535228
0.625724
0.731611
0.876865
1.19903
1.74625
2.3651
2.92514
3.32519
3.54777
3.63833
3.66332
0.156919
0.158927
0.167275
0.197757
0.250598
0.317081
0.392796
0.477287
0.574029
0.682829
0.80757
0.938956
1.21416
1.77872
2.39062
2.92713
3.31145
3.53284
3.63182
3.65907
0.190991
0.191783
0.19466
0.21546
0.264058
0.331947
0.410195
0.497962
0.594375
0.704772
0.819298
0.939943
1.09992
1.52556
2.02522
2.43173
2.72764
2.90546
2.98854
3.01456
0.217632
0.21884
0.219481
0.232522
0.277155
0.34583
0.425549
0.512517
0.605675
0.711458
0.817181
0.921965
1.0254
1.27501
1.63562
1.93414
2.15939
2.2962
2.35879
2.37508
0.232112
0.231641
0.230115
0.24204
0.290453
0.363441
0.444031
0.527551
0.615506
0.712084
0.805176
0.889369
0.968029
1.11768
1.35208
1.55943
1.71506
1.80689
1.84883
1.85792
0.260176
0.256316
0.253385
0.267105
0.319194
0.393224
0.470732
0.547271
0.625873
0.709571
0.789316
0.858651
0.925764
1.01923
1.1749
1.30818
1.4043
1.46009
1.48334
1.48783
0.344559
0.339664
0.336464
0.349506
0.390984
0.449584
0.511764
0.574232
0.638934
0.708007
0.773986
0.828795
0.880447
0.940242
1.03935
1.12445
1.18529
1.21977
1.23396
1.23485
0.475715
0.473146
0.4712
0.477155
0.497662
0.528221
0.565496
0.607528
0.654824
0.70763
0.758037
0.797469
0.832912
0.86839
0.930562
0.990717
1.03029
1.05343
1.06191
1.0618
0.597058
0.596164
0.594356
0.592769
0.594522
0.602395
0.617775
0.640757
0.671602
0.708821
0.743807
0.769528
0.792228
0.814234
0.852857
0.892313
0.922194
0.939011
0.945907
0.945242
0.673624
0.673276
0.671216
0.665912
0.659113
0.65548
0.658355
0.668886
0.686994
0.710866
0.732364
0.744688
0.751904
0.765065
0.797222
0.82895
0.851009
0.863345
0.868002
0.867021
0.709683
0.7093
0.707256
0.702082
0.694454
0.687945
0.685657
0.689443
0.699792
0.714915
0.726827
0.727548
0.719205
0.729873
0.761641
0.789946
0.80839
0.817348
0.820443
0.819403
0.721912
0.721482
0.719788
0.715898
0.710212
0.704746
0.701768
0.703364
0.71017
0.721124
0.727882
0.722069
0.708676
0.719596
0.748768
0.772923
0.788037
0.795787
0.798607
0.797865
0.722516
0.722164
0.720969
0.718318
0.714761
0.711407
0.709812
0.711859
0.718428
0.729221
0.737711
0.735271
0.726949
0.742358
0.767382
0.784914
0.794643
0.799503
0.801247
0.800625
0.716856
0.716703
0.716107
0.714524
0.712505
0.711069
0.711477
0.715387
0.724535
0.738242
0.753711
0.763085
0.769852
0.786167
0.803697
0.815007
0.822222
0.826319
0.827814
0.826772
0.705561
0.705677
0.70574
0.705268
0.704661
0.70502
0.707624
0.714364
0.727448
0.746181
0.770854
0.793785
0.815572
0.834233
0.842317
0.849874
0.857162
0.863485
0.865754
0.864604
0.687044
0.68742
0.688074
0.6887
0.689674
0.692117
0.697523
0.707681
0.725381
0.751649
0.783979
0.817203
0.852518
0.86808
0.872588
0.880769
0.889754
0.897071
0.899697
0.898198
0.659342
0.659991
0.66123
0.662834
0.665409
0.670173
0.678652
0.692976
0.716205
0.749865
0.788466
0.824316
0.858797
0.873965
0.883552
0.897975
0.91091
0.920412
0.92176
0.9198
0.621016
0.621953
0.623556
0.626016
0.630003
0.636824
0.648203
0.666805
0.695681
0.736612
0.781107
0.815977
0.841533
0.854047
0.874416
0.898237
0.91616
0.924168
0.925349
0.924845
0.569678
0.5708
0.572841
0.575999
0.58101
0.589141
0.602283
0.623617
0.656662
0.704787
0.759166
0.80111
0.815746
0.829466
0.866737
0.903683
0.927392
0.937565
0.937658
0.937302
0.502863
0.504208
0.506476
0.509937
0.515165
0.52304
0.535166
0.554789
0.58685
0.639784
0.711232
0.770454
0.787628
0.811872
0.866434
0.920396
0.952172
0.962217
0.961345
0.962227
0.419361
0.420706
0.422763
0.425735
0.4296
0.434226
0.439964
0.448948
0.46747
0.516537
0.617436
0.711864
0.745972
0.78894
0.880628
0.956162
1.01075
1.02256
1.01876
1.01865
0.321093
0.322062
0.323221
0.324448
0.324461
0.321174
0.312181
0.296024
0.281562
0.315197
0.459744
0.609156
0.675219
0.758714
0.882137
0.990907
1.05258
1.06421
1.06059
1.05833
0.215413
0.215547
0.21506
0.213113
0.20649
0.190111
0.156187
0.0962453
0.0213085
0.0336795
0.237789
0.459523
0.577295
0.705416
0.856175
0.979732
1.03613
1.03535
1.03054
1.0272
0.115773
0.114787
0.112325
0.106423
0.0916797
0.059315
-0.00584607
-0.121015
-0.268362
-0.274722
-0.00407736
0.276586
0.446975
0.626726
0.799671
0.896857
0.925294
0.929542
0.928574
0.926553
0.0391818
0.0370387
0.0327574
0.023981
0.00277041
-0.0425354
-0.133364
-0.293744
-0.487111
-0.519233
-0.20684
0.123167
0.324329
0.545954
0.731382
0.80614
0.8064
0.801957
0.798693
0.796019
-0.002763
-0.00489981
-0.00852673
-0.0177337
-0.0396933
-0.0869419
-0.184026
-0.35359
-0.552213
-0.580092
-0.292355
0.0141758
0.226417
0.448969
0.629813
0.671329
0.658653
0.643314
0.633576
0.62803
-0.00956581
-0.0111337
-0.0134184
-0.0186018
-0.0329438
-0.0669805
-0.141644
-0.277687
-0.424794
-0.446118
-0.233524
-0.0209014
0.124034
0.272728
0.4354
0.442806
0.418943
0.395547
0.382852
0.376338
0.00336015
0.00307489
0.00415482
0.00549604
0.00468833
0.000124865
-0.0139756
-0.0493263
-0.094204
-0.112649
-0.0817549
-0.0234867
0.0172311
0.00191827
-0.0144039
0.0454608
0.0641545
0.0665183
0.0666353
0.0687395
0.657598
0.860645
1.07914
1.25964
1.40488
1.52086
1.61815
1.69949
1.7326
1.71672
1.01146
1.14488
1.2835
1.40337
1.50478
1.58929
1.65742
1.7052
1.73025
1.74282
1.24866
1.33853
1.43221
1.51581
1.58778
1.64796
1.69559
1.73063
1.75606
1.77366
1.41887
1.48168
1.54772
1.60834
1.66094
1.70545
1.74192
1.77124
1.79472
1.81281
1.55076
1.59586
1.64514
1.6908
1.73139
1.76673
1.79692
1.82221
1.84262
1.86046
1.65848
1.69299
1.73321
1.7701
1.80387
1.83415
1.8606
1.88293
1.90038
1.91792
1.75353
1.78331
1.81849
1.85161
1.88232
1.91018
1.93457
1.95482
1.96971
1.98715
1.8437
1.87368
1.90833
1.94105
1.97116
1.99821
2.02148
2.04019
2.05303
2.0705
1.94002
1.97385
2.0107
2.0448
2.07516
2.10159
2.12372
2.14097
2.15254
2.17036
2.05559
2.09418
2.13266
2.16715
2.19661
2.22143
2.24185
2.25765
2.26907
2.28743
2.20079
2.24044
2.27594
2.30643
2.3321
2.35425
2.37332
2.38891
2.4016
2.41975
2.37543
2.40772
2.43362
2.45596
2.47606
2.49485
2.51252
2.5291
2.54488
2.56308
2.56313
2.58078
2.59642
2.61307
2.62925
2.64382
2.65688
2.67087
2.68797
2.70766
2.745
2.75586
2.76803
2.77885
2.78812
2.79771
2.80862
2.82023
2.8302
2.84538
2.95592
2.95796
2.94282
2.9276
2.92124
2.92693
2.94555
2.97598
3.00812
3.03887
3.26184
3.12479
3.04852
3.00647
2.98905
2.99309
3.02046
3.07661
3.18007
3.39535
1.54498
1.54161
1.53568
1.52586
1.51291
1.50048
1.49015
1.48218
1.47648
1.47313
1.47266
1.4753
1.48034
1.48752
1.49691
1.50857
1.52167
1.53365
1.54109
1.54581
1.46301
1.46889
1.4758
1.48103
1.48387
1.48353
1.4806
1.47665
1.47304
1.47067
1.47041
1.4725
1.4761
1.48038
1.48428
1.48624
1.48509
1.48098
1.47506
1.46801
1.45538
1.45773
1.46107
1.46397
1.46618
1.46797
1.46891
1.46862
1.46753
1.46655
1.4666
1.46791
1.46962
1.47081
1.47079
1.46956
1.46772
1.46534
1.46216
1.45919
1.45027
1.45136
1.45322
1.4556
1.45755
1.45893
1.46
1.46081
1.46122
1.46137
1.46173
1.46237
1.46279
1.46266
1.46205
1.46111
1.45966
1.45755
1.45541
1.45399
1.44522
1.44587
1.44698
1.44871
1.45051
1.45211
1.45336
1.45434
1.45518
1.4559
1.45648
1.45682
1.45682
1.45649
1.45582
1.4547
1.45319
1.45155
1.45019
1.4494
1.44036
1.44081
1.4416
1.4429
1.4444
1.44593
1.44738
1.44862
1.44967
1.4506
1.45133
1.45168
1.45162
1.45119
1.45035
1.44922
1.44797
1.44675
1.44579
1.44526
1.43566
1.43599
1.43661
1.43769
1.43899
1.44038
1.44182
1.44324
1.44453
1.44566
1.44654
1.44697
1.4469
1.44639
1.44558
1.44463
1.44363
1.44265
1.44191
1.44152
1.43108
1.43134
1.43184
1.43277
1.43397
1.43528
1.43668
1.43814
1.4396
1.44095
1.44203
1.44258
1.44256
1.44214
1.44148
1.4407
1.43986
1.43907
1.43849
1.43819
1.42657
1.42677
1.42719
1.42802
1.42915
1.43042
1.4318
1.43328
1.43485
1.43642
1.43773
1.43845
1.4386
1.43837
1.43789
1.43728
1.43659
1.43594
1.4355
1.43526
1.42207
1.42222
1.42258
1.42335
1.42445
1.42571
1.42711
1.42865
1.43033
1.43208
1.43366
1.43468
1.43509
1.43508
1.43479
1.43433
1.43379
1.43327
1.43292
1.43274
1.41752
1.41764
1.41795
1.41868
1.41978
1.42107
1.42255
1.42422
1.42608
1.42808
1.42999
1.43137
1.43208
1.4323
1.43219
1.43188
1.43147
1.43106
1.43079
1.43065
1.41289
1.41298
1.41326
1.41398
1.41511
1.41647
1.41804
1.41988
1.42199
1.42434
1.42669
1.42848
1.42952
1.43
1.43012
1.42999
1.4297
1.42939
1.42919
1.42909
1.40813
1.40819
1.40844
1.40915
1.41031
1.41175
1.41342
1.41541
1.41778
1.42053
1.42341
1.42572
1.42722
1.4281
1.42853
1.42863
1.42851
1.42832
1.4282
1.42813
1.40319
1.40322
1.40344
1.40417
1.40539
1.40694
1.40881
1.41108
1.41384
1.41709
1.42062
1.42361
1.42564
1.4269
1.42764
1.42797
1.42805
1.42799
1.42795
1.42791
1.39804
1.39804
1.39824
1.39895
1.40021
1.40188
1.40393
1.40651
1.40974
1.41368
1.41804
1.42179
1.42447
1.42629
1.42741
1.42807
1.42843
1.42857
1.42862
1.42861
1.39238
1.39237
1.39258
1.39327
1.39457
1.39636
1.39866
1.40163
1.40542
1.41014
1.4155
1.42029
1.42379
1.42624
1.42791
1.42904
1.42974
1.43011
1.43026
1.43026
1.38589
1.38586
1.38609
1.38682
1.38823
1.39023
1.39291
1.39645
1.40105
1.40685
1.41347
1.41941
1.42383
1.42703
1.4293
1.43089
1.43196
1.43258
1.43282
1.43283
1.37818
1.37814
1.3784
1.37923
1.38082
1.38313
1.38631
1.39056
1.39613
1.40323
1.41141
1.41882
1.42441
1.4285
1.43146
1.43361
1.43509
1.43596
1.43629
1.43631
1.36884
1.36879
1.3691
1.37011
1.372
1.37481
1.3787
1.38394
1.39084
1.39961
1.40971
1.41887
1.42577
1.43088
1.43462
1.43736
1.43926
1.44037
1.44079
1.44081
1.35741
1.35734
1.35774
1.35901
1.36135
1.36486
1.36971
1.37626
1.38486
1.39576
1.40822
1.41946
1.42795
1.43423
1.43886
1.44227
1.44464
1.446
1.44651
1.44653
1.34323
1.34315
1.3437
1.34533
1.34832
1.3528
1.35899
1.3673
1.37815
1.39172
1.40705
1.42078
1.43108
1.43872
1.44438
1.44856
1.45146
1.4531
1.45369
1.45372
1.32539
1.32529
1.32605
1.32824
1.33216
1.33803
1.34611
1.35683
1.37061
1.38753
1.40633
1.42294
1.43534
1.44453
1.45137
1.45642
1.45993
1.46186
1.46255
1.46258
1.30251
1.3024
1.30352
1.30653
1.31188
1.31983
1.33062
1.34465
1.36224
1.38331
1.40617
1.4261
1.4409
1.45186
1.46005
1.46607
1.47024
1.4725
1.47329
1.47332
1.27239
1.27232
1.27408
1.2785
1.28617
1.29739
1.31216
1.33075
1.35322
1.37928
1.40683
1.43044
1.44788
1.46083
1.47052
1.47767
1.48253
1.48515
1.48605
1.48606
1.23109
1.2312
1.23438
1.24171
1.25358
1.27007
1.29068
1.31536
1.34389
1.37578
1.40853
1.43614
1.45642
1.4715
1.48282
1.49119
1.49684
1.49984
1.50081
1.50079
1.1711
1.17238
1.18012
1.19387
1.21334
1.23806
1.26677
1.29915
1.33483
1.37322
1.41155
1.44331
1.4665
1.48376
1.49676
1.50639
1.51295
1.51634
1.5173
1.51724
1.09945
1.10179
1.11656
1.14025
1.17028
1.20451
1.24203
1.28264
1.32605
1.37175
1.41672
1.45383
1.48104
1.50146
1.51693
1.52846
1.53636
1.54051
1.54166
1.54166
1.02611
1.03302
1.05491
1.08849
1.1283
1.17177
1.21805
1.26691
1.31814
1.37127
1.42308
1.46572
1.49704
1.52066
1.53877
1.55254
1.56194
1.56615
1.56756
1.56786
0.967246
0.975941
1.00249
1.04284
1.09018
1.14143
1.1955
1.25204
1.3107
1.37093
1.42919
1.47687
1.5118
1.53808
1.5582
1.57338
1.58379
1.58902
1.59119
1.59161
0.919315
0.928592
0.958573
1.00378
1.05685
1.11429
1.17489
1.23815
1.30351
1.37029
1.4345
1.48669
1.52468
1.55312
1.57484
1.59132
1.60278
1.60883
1.6113
1.61178
0.879153
0.888638
0.920938
0.969899
1.02759
1.09012
1.15622
1.22528
1.2966
1.3693
1.43888
1.49508
1.53568
1.56588
1.58882
1.60621
1.61838
1.62503
1.62777
1.62829
0.844205
0.85378
0.887764
0.939805
1.00132
1.06819
1.13905
1.21322
1.28986
1.36791
1.44239
1.50218
1.54505
1.5767
1.60055
1.61855
1.63118
1.6383
1.64118
1.64171
0.812909
0.822524
0.857837
0.912442
0.977181
1.04779
1.12285
1.2016
1.28307
1.36604
1.44508
1.50821
1.55313
1.58599
1.61053
1.62887
1.64172
1.64905
1.65196
1.65252
0.784086
0.793759
0.830181
0.887003
0.95451
1.02839
1.10719
1.19007
1.27599
1.36359
1.44697
1.51331
1.56019
1.59416
1.61929
1.63789
1.65082
1.65829
1.66118
1.66175
0.756965
0.766704
0.804117
0.862845
0.932837
1.00964
1.09177
1.1784
1.26843
1.36041
1.44802
1.51757
1.56643
1.60156
1.62729
1.6462
1.65925
1.66672
1.66964
1.67004
0.731051
0.740889
0.779228
0.839557
0.911825
0.991232
1.07638
1.16642
1.26026
1.35641
1.44819
1.52103
1.57201
1.60842
1.63487
1.65412
1.66731
1.67477
1.67765
1.67803
0.705942
0.715963
0.755123
0.816984
0.891265
0.973006
1.06086
1.15402
1.2514
1.35151
1.44743
1.52373
1.57704
1.61492
1.64223
1.66194
1.67533
1.68277
1.68554
1.68592
0.681455
0.691713
0.731608
0.794967
0.87103
0.954857
1.04515
1.14114
1.24179
1.34568
1.44573
1.52567
1.58156
1.62113
1.64947
1.66976
1.68338
1.69081
1.69344
1.69376
0.65753
0.668005
0.708682
0.773373
0.851045
0.936745
1.02923
1.12778
1.23143
1.33888
1.44303
1.52677
1.58553
1.62707
1.65664
1.67759
1.69147
1.69883
1.70129
1.70151
0.63406
0.644837
0.686258
0.752173
0.831294
0.918669
1.01311
1.11395
1.22033
1.3311
1.43922
1.52692
1.58888
1.63273
1.66375
1.68546
1.69956
1.70679
1.70902
1.70913
0.611103
0.622172
0.664337
0.731373
0.811802
0.900663
0.996837
1.0997
1.20852
1.32234
1.43425
1.52602
1.5915
1.63805
1.67082
1.69339
1.70763
1.71457
1.71649
1.71649
0.58863
0.600016
0.642945
0.711012
0.792609
0.882778
0.980468
1.08511
1.19607
1.31261
1.42812
1.52394
1.59321
1.64293
1.6779
1.70148
1.71568
1.72208
1.7236
1.72348
0.566836
0.578458
0.622127
0.691134
0.773776
0.865096
0.964082
1.07026
1.18307
1.30202
1.42079
1.52058
1.59382
1.64719
1.685
1.70998
1.72393
1.72932
1.7302
1.72997
0.545598
0.557558
0.601921
0.671778
0.755345
0.847667
0.94778
1.05524
1.16963
1.29065
1.41229
1.51583
1.59312
1.65053
1.69199
1.71924
1.73303
1.73666
1.73626
1.73582
0.525076
0.537348
0.582358
0.653002
0.737403
0.830579
0.931648
1.04019
1.15586
1.27858
1.40268
1.50963
1.59089
1.65254
1.69845
1.7294
1.74417
1.74565
1.74242
1.7409
0.505228
0.517786
0.563496
0.634863
0.719992
0.813905
0.915773
1.02517
1.14187
1.26596
1.39206
1.50193
1.58697
1.65276
1.70351
1.7398
1.75825
1.75978
1.75269
1.74216
0.486131
0.498906
0.545245
0.617205
0.702898
0.797356
0.89981
1.00978
1.12719
1.25225
1.37986
1.49207
1.58077
1.65052
1.70586
1.74871
1.77406
1.7794
1.77089
1.76308
0.467842
0.480736
0.527598
0.600083
0.686144
0.780945
0.883791
0.994005
1.11181
1.23736
1.36593
1.47973
1.57166
1.64514
1.70297
1.75035
1.77936
1.78951
1.7542
1.7045
0.450627
0.46395
0.510585
0.583587
0.669671
0.76458
0.867696
0.977974
1.09579
1.22136
1.35025
1.46478
1.55871
1.6364
1.69303
1.73366
1.76341
1.75423
1.69683
1.63176
0.432698
0.448564
0.494541
0.568244
0.653712
0.748634
0.851256
0.961743
1.07926
1.20442
1.33282
1.44716
1.54075
1.62546
1.67526
1.72363
1.70348
1.66513
1.59613
1.52643
0.44556
0.465836
0.514983
0.592657
0.682961
0.781615
0.88945
1.00286
1.12329
1.25167
1.37359
1.47453
1.56007
1.64837
1.69304
1.62158
1.57868
1.518
1.44528
1.39662
0.425846
0.439159
0.47578
0.54399
0.629066
0.723463
0.826162
0.936005
1.05258
1.17623
1.30236
1.4145
1.50369
1.58454
1.65298
1.6501
1.53818
1.45628
1.39413
1.31114
0.404699
0.419108
0.460762
0.530321
0.61572
0.709691
0.811176
0.920007
1.03548
1.15751
1.28154
1.39124
1.47718
1.54452
1.57228
1.50154
1.36231
1.26704
1.19189
1.10296
0.383373
0.395853
0.441639
0.512484
0.597987
0.692101
0.793501
0.901935
1.01638
1.13672
1.25766
1.36265
1.44168
1.49207
1.47046
1.34203
1.18933
1.07152
0.973285
0.837827
0.360087
0.372823
0.420631
0.492628
0.578396
0.672509
0.773747
0.881507
0.994708
1.11297
1.23028
1.32981
1.40079
1.43101
1.37156
1.18752
1.00449
0.849484
0.705793
0.514228
0.337594
0.350064
0.399038
0.472138
0.55838
0.652446
0.753278
0.860111
0.971822
1.08764
1.20092
1.29444
1.35656
1.35777
1.24571
1.04023
0.824213
0.617577
0.436512
0.028925
0.315102
0.327215
0.376708
0.450589
0.537232
0.631315
0.73173
0.837622
0.947733
1.06087
1.16979
1.25665
1.30815
1.27474
1.11975
0.908142
0.681094
0.467661
0.284303
-0.0535282
0.291761
0.303715
0.353413
0.427761
0.514685
0.608788
0.708823
0.813796
0.922249
1.03254
1.13687
1.21656
1.25432
1.19994
1.00491
0.799343
0.585438
0.405935
0.332934
0.295337
0.267103
0.278893
0.328785
0.403371
0.490373
0.584336
0.683836
0.787666
0.89413
1.00109
1.10021
1.17189
1.19483
1.10853
0.901245
0.706801
0.52736
0.411163
0.375398
0.363996
0.240968
0.252685
0.302687
0.377418
0.464373
0.558031
0.65679
0.759224
0.863327
0.966441
1.05965
1.12301
1.12394
1.00125
0.806301
0.626842
0.475432
0.412628
0.399667
0.394979
0.213287
0.224748
0.275074
0.349914
0.436725
0.529911
0.627725
0.728478
0.829854
0.92865
1.0152
1.06998
1.04368
0.898619
0.716375
0.549012
0.439041
0.403354
0.407994
0.40809
0.184094
0.195559
0.245985
0.320933
0.407508
0.500067
0.59671
0.695508
0.793794
0.887764
0.967176
1.01149
0.965745
0.800028
0.633383
0.484566
0.432082
0.419701
0.416242
0.415991
0.153788
0.165281
0.215633
0.290683
0.376901
0.468666
0.563912
0.660477
0.755313
0.843986
0.915991
0.947815
0.89138
0.710571
0.557502
0.452482
0.407072
0.417418
0.419537
0.419794
0.122861
0.134319
0.184688
0.259508
0.345246
0.436026
0.529651
0.623697
0.714761
0.797762
0.861915
0.883495
0.80401
0.625308
0.489472
0.419911
0.41606
0.416702
0.419228
0.420586
0.0921533
0.103347
0.153702
0.227918
0.313047
0.402638
0.494399
0.585658
0.672669
0.749797
0.805816
0.81679