/*--------------------------------*- C++ -*----------------------------------*\
| =========                 |                                                 |
| \\      /  F ield         | OpenFOAM: The Open Source CFD Toolbox           |
|  \\    /   O peration     | Version:  2306                                  |
|   \\  /    A nd           | Website:  www.openfoam.com                      |
|    \\/     M anipulation  |                                                 |
\*---------------------------------------------------------------------------*/
FoamFile
{
    version     2.0;
    format      ascii;
    arch        "LSB;label=32;scalar=64";
    class       surfaceScalarField;
    location    "30";
    object      phi;
}
// * * * * * * * * * * * * * * * * * * * * * * * * * * * * * * * * * * * * * //

dimensions      [0 3 -1 0 0 0 0];

oriented        oriented;

internalField   nonuniform List<scalar> 
17370
(
-0.0910991
0.0935436
0.286566
-0.0749517
0.0569505
0.364777
-0.0409326
0.0299479
0.427153
-0.0211907
0.015587
0.504855
-0.0113317
0.0086266
0.602107
-0.00648866
0.00503412
0.720512
-0.00381914
0.00295688
0.863769
-0.00220366
0.00164282
1.03601
-0.00112817
0.000719459
1.24291
-0.000315456
-7.01692e-05
1.49158
0.000451494
-0.000859118
1.4916
0.00126261
-0.00176779
1.2432
0.0023192
-0.00306229
1.03638
0.00391563
-0.0051213
0.864112
0.00656764
-0.0086968
0.721187
0.0113941
-0.0156409
0.603461
0.0212371
-0.0299863
0.508188
0.0409638
-0.0569745
0.432179
0.0749704
-0.0935548
0.36536
0.0911099
0.197901
-0.127344
0.0881396
0.039204
-0.364733
0.353783
-0.0726341
0.0835842
-0.446564
0.454364
-0.0817186
0.0739188
-0.520967
0.529522
-0.0658092
0.0572538
-0.612843
0.621014
-0.0494999
0.0413294
-0.726994
0.733786
-0.0343972
0.0276048
-0.867512
0.872436
-0.0222648
0.0173406
-1.03855
1.04188
-0.0136399
0.0103129
-1.24471
1.2471
-0.00778081
0.00539218
-1.49283
1.49483
-0.0034427
0.00144565
-1.49268
1.49449
0.000364445
-0.00217215
-1.2441
1.24602
0.00414525
-0.00606244
-1.0376
1.04009
0.00841017
-0.0109019
-0.866165
0.869825
0.0141838
-0.0178439
-0.724485
0.729787
0.0227247
-0.0280264
-0.608892
0.615788
0.034778
-0.0416739
-0.514991
0.522711
0.049806
-0.0575258
-0.439772
0.447848
0.066043
-0.0741188
-0.375166
0.377004
0.0818768
-0.0837147
-0.256931
0.223446
0.0727235
-0.0392382
-0.0686427
0.058912
0.00973067
-0.0520844
0.0587873
-0.374533
0.36783
-0.0579038
0.054079
-0.453821
0.457646
-0.0487203
0.0443796
-0.527731
0.532072
-0.0401531
0.0363683
-0.621089
0.624874
-0.0321452
0.0280825
-0.734864
0.738926
-0.0236307
0.0196644
-0.874032
0.877999
-0.0155628
0.0120774
-1.04338
1.04686
-0.00854218
0.00550483
-1.24864
1.25168
-0.00229904
-0.000678182
-1.49692
1.4999
0.00364147
-0.00680452
-1.49742
1.50058
0.00978218
-0.0132412
-1.2501
1.25356
0.0166526
-0.0206705
-1.04574
1.04975
0.0245617
-0.0289335
-0.87734
0.881712
0.0329239
-0.0370698
-0.73934
0.743486
0.0407885
-0.0449489
-0.626368
0.630529
0.0492349
-0.0545405
-0.53496
0.540266
0.0583086
-0.0591222
-0.457946
0.458759
0.0523355
-0.0319956
-0.336438
0.316098
0.00977277
-0.0685302
0.0587575
-0.0531506
0.0491004
0.00405023
-0.0331746
0.043672
-0.35835
0.347852
-0.0473932
0.0468101
-0.459492
0.460075
-0.0438361
0.0405681
-0.536
0.539268
-0.0368588
0.0335261
-0.628413
0.631746
-0.0299695
0.0268349
-0.742225
0.74536
-0.0235116
0.0203776
-0.88154
0.884674
-0.0168235
0.0134832
-1.05035
1.05369
-0.00979058
0.00638919
-1.25496
1.25836
-0.00260088
-0.00101987
-1.50326
1.50688
0.00461616
-0.00833449
-1.5041
1.50782
0.0116463
-0.0152247
-1.25716
1.26074
0.0184542
-0.0218828
-1.05353
1.05696
0.0249057
-0.0281137
-0.885334
0.888542
0.0311462
-0.0345942
-0.746992
0.75044
0.0378321
-0.0414448
-0.634555
0.638167
0.0446317
-0.0475163
-0.544505
0.54739
0.0480076
-0.0441587
-0.456949
0.453101
0.0335108
-0.0162066
-0.29677
0.279465
0.00410117
-0.0529515
0.0488503
-0.045977
0.0434524
0.00252458
-0.0229235
0.0332921
-0.337205
0.326836
-0.0390763
0.0400641
-0.459774
0.458786
-0.0388485
0.0365498
-0.541922
0.544221
-0.0339083
0.0313481
-0.634719
0.637279
-0.0283534
0.0255216
-0.74841
0.751241
-0.0223357
0.0193958
-0.887669
0.890609
-0.0161394
0.0130851
-1.05684
1.05989
-0.00959889
0.00624414
-1.26175
1.2651
-0.00236852
-0.00140687
-1.51062
1.5144
0.00515044
-0.00892861
-1.51162
1.5154
0.0121562
-0.015485
-1.2642
1.26753
0.0183872
-0.0214737
-1.06012
1.06321
0.0242635
-0.0272931
-0.891698
0.894728
0.0299875
-0.0328365
-0.753652
0.756501
0.0352693
-0.0377822
-0.641192
0.643704
0.0399745
-0.0410533
-0.54923
0.550309
0.0399249
-0.0339381
-0.44795
0.441963
0.0233512
-0.0102149
-0.264351
0.251215
0.00258718
-0.045672
0.0430848
-0.041354
0.0395709
0.00178315
-0.0168341
0.0261012
-0.316967
0.307699
-0.032709
0.0348499
-0.457186
0.455046
-0.0344386
0.0327703
-0.546202
0.54787
-0.0305845
0.0284967
-0.639548
0.641636
-0.0261018
0.0237647
-0.753833
0.75617
-0.0209985
0.0183045
-0.893452
0.896146
-0.0151809
0.0122072
-1.06289
1.06586
-0.00881174
0.00556772
-1.26837
1.27161
-0.00181153
-0.00185935
-1.51812
1.52179
0.00548815
-0.00912034
-1.51912
1.52275
0.0122001
-0.0153882
-1.27078
1.27397
0.0181592
-0.0210586
-1.06623
1.06912
0.0235562
-0.02612
-0.897537
0.900101
0.0282817
-0.0304919
-0.758978
0.761188
0.0324172
-0.0344359
-0.645927
0.647946
0.0359499
-0.0361751
-0.550902
0.551127
0.0338205
-0.0269207
-0.435424
0.428525
0.0173636
-0.00732861
-0.239774
0.229739
0.00185939
-0.04092
0.0390606
-0.0380352
0.0366979
0.00133724
-0.0128266
0.020781
-0.299086
0.291131
-0.0275325
0.0304587
-0.452468
0.449542
-0.0306778
0.0295717
-0.549267
0.550373
-0.0275972
0.0257028
-0.64363
0.645525
-0.0235463
0.021477
-0.758367
0.760436
-0.0190691
0.0166976
-0.898671
0.901043
-0.0138805
0.0111141
-1.06871
1.07148
-0.00788037
0.00475606
-1.27478
1.2779
-0.00112693
-0.00240688
-1.52538
1.52892
0.00588785
-0.00935896
-1.52632
1.52979
0.0122734
-0.0152356
-1.27707
1.28003
0.0177352
-0.0202568
-1.07185
1.07437
0.0223733
-0.0245243
-0.902418
0.904569
0.0263745
-0.0283024
-0.763229
0.765157
0.0299943
-0.0317659
-0.649823
0.651595
0.0326482
-0.0321706
-0.550998
0.55052
0.0289426
-0.0217963
-0.42144
0.414294
0.0134735
-0.00560921
-0.220889
0.213025
0.00142974
-0.0374441
0.0360144
-0.0355316
0.0345082
0.00102339
-0.00996153
0.0166568
-0.283825
0.27713
-0.0231251
0.0265012
-0.44636
0.442984
-0.0273014
0.0266333
-0.551237
0.551905
-0.0249052
0.0231624
-0.647362
0.649105
-0.0211655
0.0192471
-0.762452
0.764371
-0.0170101
0.0148137
-0.903302
0.905498
-0.0122213
0.00966994
-1.07408
1.07663
-0.0066645
0.00372609
-1.2809
1.28384
-0.000289056
-0.00305896
-1.53234
1.53569
0.00634249
-0.0095811
-1.53317
1.53641
0.0122549
-0.0149153
-1.28286
1.28552
0.0171284
-0.0193462
-1.07673
1.07894
0.0212237
-0.0231446
-0.906572
0.908493
0.0247944
-0.0265097
-0.766954
0.768669
0.0280016
-0.0294504
-0.653246
0.654695
0.0298339
-0.0286677
-0.549716
0.54855
0.0248811
-0.0179006
-0.407203
0.400222
0.0107485
-0.00443961
-0.206009
0.1997
0.00113567
-0.0347503
0.0336146
-0.0336115
0.0328234
0.000788072
-0.00780029
0.0133712
-0.271018
0.265447
-0.0193067
0.022855
-0.439496
0.435948
-0.0241315
0.023728
-0.552445
0.552848
-0.0223038
0.0207072
-0.650794
0.652391
-0.0188485
0.0170553
-0.766262
0.768055
-0.0149511
0.012876
-0.907621
0.909696
-0.0104278
0.00803288
-1.07904
1.08144
-0.00523053
0.00249401
-1.28663
1.28936
0.000711274
-0.00384946
-1.53891
1.54205
0.00690733
-0.00987548
-1.53952
1.54249
0.0122891
-0.0146674
-1.28807
1.29045
0.0166401
-0.0186126
-1.08106
1.08303
0.020275
-0.0219755
-0.910279
0.91198
0.023436
-0.0249499
-0.770253
0.771767
0.0262349
-0.0273012
-0.655952
0.657018
0.0273333
-0.0255647
-0.547086
0.545317
0.0214758
-0.0148912
-0.393432
0.386847
0.00875852
-0.00359974
-0.194016
0.188858
0.000925014
-0.0325992
0.0316742
-0.0321351
0.0315335
0.000601642
-0.00609234
0.0106789
-0.260389
0.255802
-0.0159564
0.0194601
-0.432408
0.428904
-0.0210329
0.0208473
-0.553148
0.553334
-0.0196564
0.0181417
-0.653963
0.655477
-0.0163794
0.0146891
-0.769842
0.771532
-0.0127145
0.0107695
-0.911679
0.913624
-0.00847017
0.00622117
-1.08369
1.08594
-0.00358904
0.00103184
-1.29196
1.29452
0.00194151
-0.00481457
-1.54503
1.5479
0.0075915
-0.0102749
-1.54532
1.548
0.0124401
-0.0145517
-1.29272
1.29483
0.0162793
-0.0179908
-1.0849
1.08661
0.0194181
-0.0208791
-0.913545
0.915006
0.0221522
-0.0234924
-0.773151
0.774491
0.0246374
-0.0253514
-0.657916
0.65863
0.0250466
-0.0228214
-0.543343
0.541118
0.01862
-0.0125326
-0.380523
0.374436
0.00725908
-0.00297505
-0.184177
0.179893
0.000768892
-0.0308418
0.0300729
-0.0310121
0.030564
0.000448121
-0.00467207
0.00837588
-0.251673
0.247969
-0.0129226
0.0162221
-0.425492
0.422192
-0.0179654
0.017996
-0.553421
0.55339
-0.0170494
0.0156349
-0.656986
0.6584
-0.0139702
0.0123632
-0.77323
0.774837
-0.0104756
0.00861073
-0.915479
0.917344
-0.00641047
0.00426976
-1.08805
1.0902
-0.00178309
-0.000611273
-1.29694
1.29934
0.00336917
-0.00599857
-1.55062
1.55325
0.0085101
-0.010912
-1.55055
1.55295
0.012826
-0.0146709
-1.29685
1.29869
0.0161665
-0.0176312
-1.08822
1.08969
0.018849
-0.0200852
-0.91634
0.917576
0.0211602
-0.0223003
-0.775677
0.776817
0.0232535
-0.023588
-0.659146
0.65948
0.022942
-0.0203593
-0.53875
0.536167
0.0161812
-0.0106365
-0.368644
0.3631
0.00609531
-0.00250025
-0.175989
0.172394
0.000652949
-0.0293761
0.0287232
-0.0301859
0.0298724
0.000313452
-0.00342893
0.00632129
-0.244682
0.24179
-0.0100923
0.0130483
-0.419057
0.416101
-0.014818
0.0150288
-0.553278
0.553067
-0.0142449
0.0129869
-0.659783
0.661042
-0.0114094
0.00985507
-0.776459
0.778013
-0.00801566
0.00620735
-0.919126
0.920934
-0.00409872
0.00206877
-1.09221
1.09424
0.00026573
-0.00250393
-1.3016
1.30384
0.0050593
-0.00747592
-1.55574
1.55815
0.00974251
-0.0118553
-1.5552
1.55732
0.0134986
-0.0150505
-1.30044
1.30199
0.0162894
-0.0174919
-1.09107
1.09227
0.0184901
-0.0194936
-0.918704
0.919708
0.0203601
-0.0212694
-0.777784
0.778693
0.0219267
-0.0219593
-0.659661
0.659693
0.0209515
-0.0181206
-0.53349
0.530659
0.0140745
-0.00908285
-0.35786
0.352868
0.00516988
-0.00213031
-0.16911
0.166071
0.000564897
-0.0281293
0.0275644
-0.0296249
0.0294357
0.000189283
-0.00228706
0.00440941
-0.239291
0.237169
-0.00737129
0.00986472
-0.413383
0.410889
-0.0115005
0.0117778
-0.552841
0.552563
-0.0110707
0.00991882
-0.662305
0.663457
-0.00841117
0.00691705
-0.779578
0.781072
-0.00515468
0.0034315
-0.922611
0.924335
-0.00143396
-0.000480872
-1.09611
1.09802
0.00267682
-0.00476122
-1.30594
1.30802
0.00711501
-0.00929688
-1.56043
1.56261
0.0112967
-0.0130959
-1.55928
1.56108
0.014441
-0.0156444
-1.30342
1.30463
0.0165562
-0.0174091
-1.09336
1.09422
0.0180953
-0.018813
-0.920584
0.921301
0.0194778
-0.0201747
-0.779395
0.780092
0.0205892
-0.0203559
-0.659585
0.659351
0.0190465
-0.0160763
-0.527802
0.524832
0.0122374
-0.00778659
-0.34819
0.343739
0.00442123
-0.00184077
-0.163299
0.160718
0.000499414
-0.0270514
0.026552
-0.029309
0.029242
6.6975e-05
-0.00119991
0.00258566
-0.235427
0.234042
-0.00473031
0.00670196
-0.408677
0.406705
-0.00812448
0.00842523
-0.552323
0.552022
-0.00780944
0.00677323
-0.664644
0.66568
-0.0053609
0.00393604
-0.782551
0.783976
-0.00223489
0.000560809
-0.925909
0.927583
0.00139633
-0.00326951
-1.09981
1.10168
0.00540241
-0.00739408
-1.30998
1.31197
0.00958471
-0.0115465
-1.56463
1.56659
0.0132832
-0.0148038
-1.56273
1.56425
0.0158814
-0.0168041
-1.30575
1.30667
0.0174592
-0.0180189
-1.09499
1.09555
0.018444
-0.0188218
-0.921858
0.922236
0.0191491
-0.0194997
-0.780523
0.780874
0.0195224
-0.0189868
-0.658906
0.65837
0.0173838
-0.0142943
-0.52188
0.51879
0.0106714
-0.00671577
-0.339598
0.335643
0.00381869
-0.0016149
-0.158372
0.156168
0.000451184
-0.0260987
0.0256475
-0.0292361
0.0292976
-6.14723e-05
-7.6802e-05
0.000738421
-0.233034
0.232373
-0.00205364
0.00344097
-0.405046
0.403659
-0.00457293
0.00486316
-0.551782
0.551492
-0.00435622
0.00344705
-0.666761
0.66767
-0.00211157
0.000694812
-0.7854
0.786817
0.00103751
-0.00273972
-0.929126
0.930828
0.00469935
-0.00655121
-1.10341
1.10526
0.00862406
-0.0105223
-1.31384
1.31574
0.0125655
-0.0143494
-1.56842
1.57021
0.0158472
-0.0170445
-1.56562
1.56681
0.0178055
-0.0183448
-1.3075
1.30804
0.018668
-0.0188932
-1.09599
1.09622
0.0190215
-0.0191201
-0.92249
0.922589
0.0191328
-0.0191336
-0.780944
0.780945
0.0188418
-0.0178691
-0.657542
0.656569
0.0159385
-0.0127527
-0.515725
0.512539
0.0093549
-0.00584507
-0.331979
0.328469
0.00333973
-0.00143691
-0.154167
0.152264
0.000412848
-0.0252386
0.0248257
-0.0294285
0.0296275
-0.00019902
0.000895947
-0.000933548
-0.232095
0.232132
0.00045172
0.000284371
-0.402644
0.401908
-0.000979148
0.00110271
-0.551369
0.551246
-0.000566234
-0.000341643
-0.668693
0.669601
0.0016881
-0.00313904
-0.78823
0.789681
0.00491475
-0.0066478
-0.932372
0.934105
0.00862553
-0.0104683
-1.10697
1.10881
0.0124985
-0.0143234
-1.31749
1.31932
0.0162309
-0.017809
-1.57182
1.5734
0.0190374
-0.0199061
-1.56783
1.5687
0.0203337
-0.0205215
-1.30849
1.30868
0.0205034
-0.0203501
-1.09633
1.09618
0.0201367
-0.0198606
-0.922484
0.922208
0.0195962
-0.0192545
-0.780615
0.780274
0.0185691
-0.0171788
-0.655327
0.653936
0.0150056
-0.0117783
-0.509464
0.506237
0.0085657
-0.00536997
-0.32523
0.322034
0.00310371
-0.00135522
-0.150517
0.148769
0.000393693
-0.0244565
0.0240628
-0.0298832
0.0301895
-0.000306253
0.00177007
-0.0023878
-0.23244
0.233058
0.0026798
-0.00260395
-0.401573
0.401497
0.00244077
-0.00259965
-0.551418
0.551577
0.00327754
-0.0042923
-0.670693
0.671708
0.00573872
-0.00728113
-0.791114
0.792657
0.00915119
-0.0109574
-0.93566
0.937466
0.013003
-0.0149015
-1.1105
1.1124
0.0169792
-0.0188142
-1.32103
1.32286
0.0206705
-0.0221115
-1.57484
1.57628
0.0231164
-0.023691
-1.56942
1.56999
0.0238165
-0.0236264
-1.30874
1.30855
0.0232612
-0.0227174
-1.09584
1.0953
0.0221464
-0.0215002
-0.921693
0.921046
0.0209239
-0.0202321
-0.779585
0.778893
0.0192018
-0.0174334
-0.652411
0.650642
0.015014
-0.0116855
-0.503136
0.499808
0.00853187
-0.00544165
-0.319025
0.315935
0.00320685
-0.0014228
-0.147088
0.145304
0.000416266
-0.0236958
0.0232795
-0.0305657
0.0309898
-0.000424125
0.00257153
-0.00371094
-0.233958
0.235098
0.00470052
-0.00528538
-0.401804
0.402388
0.00568485
-0.00614639
-0.552125
0.552587
0.00700168
-0.00818116
-0.672968
0.674147
0.00981878
-0.0115514
-0.794181
0.795913
0.0136394
-0.0156544
-0.939123
0.941138
0.0179405
-0.0200515
-1.11421
1.11632
0.0223179
-0.0242561
-1.32461
1.32654
0.0261164
-0.0274506
-1.57758
1.57891
0.0282584
-0.0285397
-1.57039
1.57067
0.0283908
-0.0278699
-1.30822
1.3077
0.0271728
-0.0262513
-1.09455
1.09363
0.0253329
-0.0243123
-0.920135
0.919115
0.0233886
-0.0222824
-0.77782
0.776713
0.0208781
-0.0186993
-0.648778
0.646599
0.0159843
-0.0124618
-0.496606
0.493083
0.0092191
-0.00601322
-0.31295
0.309744
0.00360964
-0.00162096
-0.143515
0.141526
0.000476375
-0.0228783
0.022402
-0.0314857
0.0320443
-0.000558575
0.00346397
-0.00514255
-0.236536
0.238215
0.00681922
-0.00805523
-0.403302
0.404538
0.00907959
-0.00993366
-0.553548
0.554402
0.0110335
-0.0124307
-0.675602
0.676999
0.0143589
-0.016402
-0.797623
0.799666
0.0188638
-0.0212242
-0.943051
0.945411
0.0238711
-0.0262686
-1.11837
1.12076
0.0287869
-0.0308804
-1.32842
1.33051
0.03281
-0.0340917
-1.58013
1.58141
0.034719
-0.0346988
-1.57076
1.57073
0.0342112
-0.0333007
-1.30698
1.30607
0.0322338
-0.0309171
-1.09248
1.09116
0.0296464
-0.0282444
-0.917779
0.916377
0.0269515
-0.0253889
-0.775216
0.773654
0.0235658
-0.0209316
-0.644336
0.641702
0.0178744
-0.0140556
-0.489687
0.485868
0.0105444
-0.00698382
-0.306558
0.302998
0.00423353
-0.00191178
-0.139481
0.137159
0.00056307
-0.0219337
0.0213706
-0.0326828
0.0334185
-0.000735645
0.00458652
-0.0068872
-0.240222
0.242522
0.00932203
-0.0112789
-0.40618
0.408137
0.0130489
-0.0144936
-0.555916
0.557361
0.0161066
-0.0179278
-0.67877
0.680591
0.0203396
-0.0228369
-0.801701
0.804198
0.0257796
-0.0285444
-0.947679
0.950444
0.031576
-0.0342575
-1.12308
1.12576
0.0370001
-0.0392048
-1.3325
1.3347
0.0411349
-0.0422659
-1.58253
1.58366
0.0426013
-0.0421556
-1.57046
1.57002
0.0412274
-0.0398212
-1.30489
1.30348
0.0383102
-0.0365078
-1.08955
1.08774
0.0348139
-0.032972
-0.914586
0.912744
0.031296
-0.0292442
-0.771675
0.769624
0.0270197
-0.0239718
-0.639028
0.63598
0.0205638
-0.0163287
-0.482184
0.477949
0.0123526
-0.00822829
-0.2994
0.295276
0.00500031
-0.00226141
-0.134757
0.132018
0.00066673
-0.0208129
0.0201461
-0.0342393
0.0352204
-0.000981145
0.00609923
-0.00918443
-0.245178
0.248263
0.0125004
-0.0152416
-0.410619
0.41336
0.0178395
-0.0200043
-0.559657
0.561822
0.0223628
-0.0248532
-0.68294
0.68543
0.0279829
-0.0310799
-0.806701
0.809798
0.0346091
-0.037847
-0.953114
0.956352
0.0413202
-0.0443239
-1.12834
1.13135
0.0473047
-0.0496008
-1.33676
1.33906
0.0514516
-0.0523158
-1.58453
1.5854
0.0522205
-0.0512026
-1.56923
1.56821
0.0496868
-0.0476322
-1.30171
1.29966
0.0455678
-0.04324
-1.08558
1.08326
0.0411291
-0.0388483
-0.910456
0.908175
0.036774
-0.0342964
-0.767158
0.76468
0.031696
-0.0281655
-0.632899
0.629368
0.024204
-0.0192282
-0.473764
0.468789
0.0145234
-0.00965246
-0.291079
0.286208
0.00585947
-0.00264875
-0.1292
0.125989
0.000780066
-0.0194869
0.0187069
-0.0362873
0.0376188
-0.00133153
0.00819737
-0.0123196
-0.251727
0.255849
0.0167103
-0.0203045
-0.416751
0.420345
0.0237125
-0.0266046
-0.565017
0.567909
0.0297864
-0.0330559
-0.688539
0.691808
0.0370195
-0.0408451
-0.8129
0.816726
0.0451131
-0.0489584
-0.959519
0.963365
0.0530232
-0.0564727
-1.13428
1.13773
0.0598133
-0.0622744
-1.34121
1.34367
0.0640972
-0.0647355
-1.58599
1.58662
0.0642375
-0.0626614
-1.56681
1.56524
0.060577
-0.0578548
-1.29719
1.29447
0.0551288
-0.0520791
-1.08044
1.07739
0.0493757
-0.0465918
-0.905406
0.902622
0.0441686
-0.0412081
-0.76175
0.758789
0.0380635
-0.0337078
-0.625689
0.621334
0.0287806
-0.0226738
-0.463737
0.45763
0.0170255
-0.0112876
-0.281262
0.275524
0.0068496
-0.00309454
-0.122703
0.118948
0.0009095
-0.0179386
0.0170291
-0.0390158
0.040867
-0.00185123
0.011235
-0.0167877
-0.260354
0.265907
0.0225639
-0.0271441
-0.424837
0.429417
0.0313549
-0.0349126
-0.572039
0.575597
0.0388558
-0.0429007
-0.695691
0.699736
0.0477714
-0.0524073
-0.820562
0.825198
0.0575326
-0.0621276
-0.967182
0.971777
0.0669419
-0.0709832
-1.14115
1.14519
0.0748226
-0.0775717
-1.34603
1.34878
0.0795085
-0.0800495
-1.58703
1.58757
0.0792938
-0.0773107
-1.56334
1.56136
0.0747772
-0.0715006
-1.29138
1.28811
0.0682351
-0.0645363
-1.07383
1.07013
0.061167
-0.0576031
-0.899112
0.895548
0.0543787
-0.0505096
-0.75515
0.751281
0.0462127
-0.0403576
-0.616508
0.610653
0.0340339
-0.0265613
-0.451394
0.443921
0.0198763
-0.013174
-0.269765
0.263062
0.00798722
-0.00359473
-0.115125
0.110732
0.0010489
-0.0161399
0.015091
-0.0427456
0.0454202
-0.00267464
0.0158325
-0.0233868
-0.271834
0.279388
0.0310169
-0.0369176
-0.435451
0.441351
0.0421544
-0.0464906
-0.580746
0.585082
0.0512714
-0.056136
-0.704375
0.709239
0.0619055
-0.0673648
-0.82978
0.83524
0.0734071
-0.0787946
-0.976343
0.98173
0.0843865
-0.0890005
-1.14919
1.1538
0.0932841
-0.0962691
-1.3514
1.35439
0.0982489
-0.0986144
-1.58785
1.58822
0.0975149
-0.0950518
-1.55905
1.55658
0.0920127
-0.0881282
-1.28447
1.28058
0.0842708
-0.0798517
-1.06591
1.06149
0.0757381
-0.071141
-0.891078
0.886481
0.0666283
-0.0611867
-0.74631
0.740869
0.055228
-0.0475745
-0.604067
0.596413
0.0398108
-0.0310199
-0.436417
0.427626
0.0232523
-0.0154246
-0.25641
0.248582
0.00932352
-0.00416361
-0.106281
0.101121
0.00120086
-0.0140703
0.0128695
-0.048041
0.0521508
-0.0041098
0.023213
-0.033601
-0.287388
0.297776
0.0437618
-0.0515814
-0.449722
0.457542
0.058311
-0.0637147
-0.591552
0.596956
0.0696304
-0.0754955
-0.714655
0.720521
0.0822758
-0.0885799
-0.840602
0.846906
0.095436
-0.101422
-0.987001
0.992987
0.107475
-0.112305
-1.1582
1.16303
0.116606
-0.119406
-1.35705
1.35985
0.120934
-0.120652
-1.5881
1.58782
0.118754
-0.115383
-1.55358
1.55021
0.111505
-0.106665
-1.27618
1.27134
0.101896
-0.0964144
-1.05637
1.05089
0.0912149
-0.0852263
-0.880689
0.874701
0.0792741
-0.072063
-0.733917
0.726706
0.0645552
-0.0553973
-0.588051
0.578893
0.0464236
-0.0363534
-0.418955
0.408885
0.0273259
-0.018083
-0.24088
0.231638
0.010841
-0.00477241
-0.0959584
0.0898897
0.00134968
-0.0117173
0.0103676
-0.0559781
0.06315
-0.00717191
0.0365872
-0.0512709
-0.309209
0.323892
0.0650931
-0.0754857
-0.469262
0.479654
0.0839485
-0.0906711
-0.60518
0.611902
0.0981334
-0.105109
-0.726807
0.733782
0.112734
-0.119504
-0.852932
0.859702
0.126587
-0.132521
-0.998569
1.0045
0.13825
-0.142534
-1.16727
1.17156
0.146004
-0.147789
-1.36189
1.36368
0.147986
-0.14625
-1.58664
1.5849
0.142833
-0.137901
-1.54595
1.54102
0.132656
-0.12636
-1.26572
1.25943
0.120259
-0.113316
-1.04449
1.03755
0.106749
-0.0992573
-0.867317
0.859825
0.0920015
-0.0834686
-0.717914
0.709381
0.0748946
-0.0646201
-0.569078
0.558804
0.0545004
-0.0429106
-0.398918
0.387328
0.0322538
-0.0212329
-0.222621
0.2116
0.0125894
-0.0054403
-0.0839864
0.0768373
0.00149403
-0.00910387
0.00760984
-0.0699235
0.0737272
-0.0038037
0.0273126
-0.0400366
-0.341277
0.354001
0.0524073
-0.0618458
-0.495284
0.504722
0.0702528
-0.0786004
-0.621977
0.630324
0.0881216
-0.0966396
-0.740446
0.748964
0.106399
-0.115302
-0.86565
0.874553
0.124912
-0.133496
-1.00946
1.01805
0.142436
-0.150009
-1.1747
1.18227
0.157339
-0.162862
-1.36418
1.3697
0.167155
-0.168964
-1.58179
1.5836
0.168116
-0.164982
-1.53478
1.53165
0.160383
-0.153796
-1.25206
1.24547
0.146815
-0.137766
-1.02953
1.02048
0.128977
-0.118733
-0.850916
0.840672
0.108949
-0.0977622
-0.699188
0.688001
0.0865255
-0.073249
-0.547675
0.534398
0.0604199
-0.045628
-0.375521
0.360729
0.0325119
-0.0198014
-0.200764
0.188053
0.0107099
-0.00413876
-0.0703479
0.0637768
0.000956205
-0.00634356
0.00538736
-0.0808678
0.0785884
0.00227943
0.00560301
-0.0136936
-0.369594
0.377685
0.0229569
-0.0299283
-0.518854
0.525825
0.0372763
-0.0446654
-0.640783
0.648172
0.0535167
-0.061641
-0.757378
0.765502
0.0704346
-0.0786292
-0.882998
0.891193
0.0874136
-0.0949045
-1.02632
1.03381
0.102856
-0.109184
-1.18957
1.1959
0.115157
-0.119223
-1.37471
1.37878
0.121556
-0.121522
-1.58415
1.58412
0.118777
-0.113664
-1.52707
1.52196
0.107169
-0.0987628
-1.23771
1.2293
0.0903392
-0.0803499
-1.01047
1.00048
0.0707058
-0.0598062
-0.828642
0.817742
0.0500348
-0.0401705
-0.67344
0.663575
0.0318423
-0.022939
-0.519027
0.510123
0.0151922
-0.00827842
-0.345332
0.338418
0.00378507
-0.000771772
-0.1756
0.172587
-0.00053484
0.000715957
-0.057244
0.0570629
-0.000371694
-0.0041107
0.00448239
-0.0816836
0.0787013
0.00298232
-0.00294211
-0.00145295
-0.388602
0.392997
0.00750386
-0.0128695
-0.536814
0.542179
0.0189277
-0.0254543
-0.657157
0.663684
0.0331843
-0.0403009
-0.773051
0.780168
0.0481972
-0.0553604
-0.898746
0.90591
0.0627648
-0.0694063
-1.04111
1.04775
0.0762104
-0.0816586
-1.20172
1.20716
0.0862801
-0.08909
-1.38202
1.38483
0.0903654
-0.0891794
-1.5831
1.58191
0.0853735
-0.0793267
-1.51586
1.50981
0.0722541
-0.0636671
-1.22042
1.21183
0.0549892
-0.0452897
-0.989924
0.980224
0.0362003
-0.0262369
-0.806663
0.7967
0.0176905
-0.00918315
-0.651687
0.64318
0.00253582
0.00375714
-0.499137
0.492844
-0.00789935
0.00980809
-0.329361
0.327452
-0.00953503
0.00776802
-0.167405
0.169172
-0.00546583
0.0028229
-0.055988
0.0586309
-0.000949548
-0.00429247
0.00524202
-0.0802062
0.0774047
0.00280145
-0.00602084
0.00402942
-0.401097
0.403088
-0.000422071
-0.00382
-0.550615
0.554857
0.00933148
-0.0149341
-0.670908
0.676511
0.0216455
-0.0278548
-0.786976
0.793185
0.0346783
-0.0408597
-0.912658
0.918839
0.0476013
-0.0532317
-1.05397
1.0596
0.0591567
-0.0634237
-1.21218
1.21644
0.067268
-0.06944
-1.38734
1.38951
0.0699553
-0.0680333
-1.58017
1.57825
0.0640859
-0.0581379
-1.50316
1.49721
0.0513373
-0.0429204
-1.20304
1.19462
0.0349323
-0.026151
-0.970296
0.961514
0.017895
-0.0092489
-0.786611
0.777965
0.0015594
0.00565485
-0.632921
0.625706
-0.0110125
0.0152937
-0.484319
0.480037
-0.0172126
0.0165955
-0.322011
0.322628
-0.0141493
0.0104602
-0.16852
0.17221
-0.00704365
0.00344531
-0.0600734
0.0636717
-0.00109381
-0.00559506
0.00668887
-0.0786344
0.0762418
0.00239258
-0.00670732
0.00611185
-0.409446
0.410041
-0.00339865
0.00034851
-0.562109
0.565159
0.00438265
-0.00959568
-0.682676
0.687889
0.0153401
-0.0209032
-0.798966
0.804529
0.0268972
-0.032325
-0.924692
0.930119
0.0381556
-0.0432033
-1.06513
1.07018
0.0482398
-0.052181
-1.22058
1.22452
0.0554689
-0.0572418
-1.39132
1.3931
0.0574649
-0.0554606
-1.57617
1.57416
0.0516617
-0.0459315
-1.49068
1.48495
0.0397096
-0.0322411
-1.18637
1.1789
0.0251156
-0.017207
-0.952638
0.944729
0.0100684
-0.00252883
-0.769102
0.761563
-0.00390977
0.0100163
-0.617306
0.6112
-0.0143374
0.017367
-0.473235
0.470205
-0.0185882
0.0174055
-0.319228
0.320411
-0.0144257
0.0105311
-0.173176
0.17707
-0.00697703
0.00332715
-0.0657558
0.0694057
-0.00105287
-0.00718927
0.00824214
-0.0773161
0.0753057
0.00201042
-0.00633268
0.00609722
-0.41524
0.415476
-0.00453758
0.00190814
-0.571048
0.573677
0.0026815
-0.00721996
-0.692894
0.697432
0.0122662
-0.0171963
-0.809521
0.814451
0.0226172
-0.0275433
-0.935316
0.940242
0.0329555
-0.0374415
-1.07501
1.07949
0.0420406
-0.0456475
-1.22822
1.23183
0.0486056
-0.0501848
-1.39464
1.39622
0.0503261
-0.0487938
-1.57214
1.5706
0.0452755
-0.0402242
-1.47894
1.47389
0.0346336
-0.0279903
-1.17148
1.16483
0.0219281
-0.0149009
-0.936947
0.929919
0.00866514
-0.00227703
-0.754021
0.747633
-0.00319719
0.00834725
-0.60431
0.599159
-0.0119756
0.0146378
-0.46471
0.462047
-0.0153993
0.0144078
-0.318094
0.319086
-0.0120734
0.00870237
-0.178043
0.181414
-0.00568087
0.00274695
-0.0711534
0.0740874
-0.000884976
-0.00865501
0.00953998
-0.0763983
0.0748549
0.00154337
-0.00531533
0.00529976
-0.419624
0.41964
-0.0038669
0.0017677
-0.579076
0.581175
0.00242969
-0.00658191
-0.701952
0.706105
0.0114664
-0.0158065
-0.819159
0.823499
0.0206625
-0.0251101
-0.945241
0.949688
0.0303279
-0.0344795
-1.08407
1.08822
0.0386518
-0.0421511
-1.2353
1.2388
0.0453667
-0.0469233
-1.39787
1.39942
0.0473065
-0.0459649
-1.56876
1.56742
0.0431576
-0.0384492
-1.46877
1.46406
0.0336367
-0.0279037
-1.15821
1.15248
0.0224804
-0.0165417
-0.923142
0.917203
0.0111115
-0.00544096
-0.74112
0.735449
0.000958271
0.00354723
-0.593298
0.588793
-0.00674794
0.00885687
-0.4574
0.455291
-0.00961887
0.0092307
-0.317185
0.317573
-0.00766904
0.00535554
-0.181695
0.184009
-0.00341126
0.00166479
-0.0749985
0.076745
-0.00056319
-0.00973604
0.0102992
-0.0760054
0.0748093
0.00119606
-0.00417694
0.00421968
-0.423201
0.423159
-0.00279331
0.000750827
-0.586225
0.588267
0.00319357
-0.00697644
-0.710235
0.714018
0.0112508
-0.0155066
-0.827916
0.832172
0.0200725
-0.0247191
-0.954038
0.958685
0.0292937
-0.0333293
-1.09252
1.09655
0.0377033
-0.0410445
-1.24223
1.24557
0.0438971
-0.0459761
-1.40094
1.40302
0.0466947
-0.0458171
-1.5662
1.56532
0.0433927
-0.0395111
-1.45963
1.45575
0.0352757
-0.0301637
-1.14656
1.14145
0.0253981
-0.0200976
-0.911248
0.905948
0.0153012
-0.0104496
-0.729886
0.725034
0.00621638
-0.00222871
-0.583704
0.579716
-0.000684774
0.00288333
-0.45124
0.449041
-0.00386949
0.00384358
-0.315358
0.315384
-0.00329433
0.00231654
-0.183242
0.18422
-0.00149456
0.000759995
-0.0767017
0.0774363
-0.000299088
-0.0102265
0.0105256
-0.076138
0.0751475
0.000990553
-0.00289745
0.00271334
-0.426516
0.4267
-0.0014517
-0.000695041
-0.592809
0.594956
0.00435288
-0.00804867
-0.718058
0.721754
0.0122071
-0.0161242
-0.836333
0.84025
0.0208644
-0.0247946
-0.962846
0.966776
0.0293953
-0.03331
-1.10079
1.10471
0.0376367
-0.0412362
-1.24894
1.25254
0.0444573
-0.046421
-1.40492
1.40688
0.0475981
-0.0472441
-1.56442
1.56407
0.0455769
-0.0421357
-1.4518
1.44836
0.0384418
-0.0338414
-1.13647
1.13187
0.0295559
-0.0246659
-0.900476
0.895586
0.0203719
-0.0158056
-0.719948
0.715381
0.0119038
-0.00810442
-0.575209
0.571409
0.00516571
-0.0029584
-0.445191
0.442984
0.001536
-0.000908096
-0.312532
0.311904
0.000437596
-0.000194606
-0.182582
0.182339
2.03101e-05
0.000153221
-0.0764853
0.0763118
-0.000135528
-0.0102102
0.0103457
-0.0765414
0.0758636
0.000677853
-0.0017809
0.00123619
-0.430004
0.430548
-0.000191584
-0.00230458
-0.598606
0.601102
0.0056187
-0.00920021
-0.725447
0.729029
0.0132247
-0.0173056
-0.844123
0.848204
0.021494
-0.0256232
-0.970975
0.975104
0.0302341
-0.0339911
-1.10909
1.11284
0.0384623
-0.0420757
-1.25599
1.2596
0.045428
-0.0479883
-1.40929
1.41185
0.0497388
-0.049757
-1.56379
1.56381
0.0484153
-0.0457339
-1.4451
1.44242
0.0425979
-0.0383598
-1.12713
1.1229
0.0343082
-0.02992
-0.890594
0.886206
0.0255432
-0.0213524
-0.710531
0.706341
0.0176171
-0.0138207
-0.567304
0.563508
0.010951
-0.00832483
-0.43903
0.436404
0.00649846
-0.0049702
-0.308687
0.307159
0.00371452
-0.00236956
-0.179951
0.178606
0.0011993
-0.000306804
-0.074638
0.0737456
-3.21767e-05
-0.00975098
0.00978315
-0.0773418
0.0768162
0.000525576
-0.000852187
0.000412695
-0.433713
0.434153
0.00139118
-0.00365288
-0.604669
0.606931
0.00708879
-0.0105499
-0.73238
0.735841
0.0144472
-0.0181687
-0.852038
0.85576
0.0225147
-0.0263709
-0.979294
0.98315
0.0309693
-0.0351893
-1.11708
1.1213
0.0393527
-0.0433353
-1.2633
1.26728
0.0471604
-0.0498738
-1.41435
1.41706
0.0520668
-0.0529194
-1.56407
1.56493
0.0520683
-0.0500272
-1.43961
1.43757
0.0470938
-0.0432686
-1.11865
1.11482
0.0395595
-0.0352585
-0.881369
0.877068
0.0311663
-0.0269939
-0.701601
0.697429
0.0232894
-0.0193701
-0.559272
0.555352
0.016217
-0.0132868
-0.432461
0.429531
0.0107706
-0.00846706
-0.30338
0.301077
0.00637355
-0.00414602
-0.175422
0.173194
0.00231795
-0.000843492
-0.0715405
0.070066
0.00013959
-0.00906194
0.00892235
-0.0783873
0.0780408
0.000346555
0.000120474
-0.00086126
-0.43749
0.43823
0.00252037
-0.00503867
-0.610314
0.612832
0.00838989
-0.0116995
-0.739097
0.742407
0.0156885
-0.0192833
-0.85952
0.863115
0.0235034
-0.0275036
-0.987521
0.991521
0.0320364
-0.0362491
-1.12541
1.12962
0.0406634
-0.044708
-1.27122
1.27526
0.0487621
-0.0522587
-1.42009
1.42359
0.0549467
-0.0561448
-1.56574
1.56694
0.0560144
-0.0543094
-1.43542
1.43371
0.051908
-0.0485534
-1.11089
1.10754
0.0448416
-0.0406652
-0.872427
0.868251
0.0366554
-0.032354
-0.692822
0.688521
0.0286816