/*--------------------------------*- C++ -*----------------------------------*\
| =========                 |                                                 |
| \\      /  F ield         | OpenFOAM: The Open Source CFD Toolbox           |
|  \\    /   O peration     | Version:  2306                                  |
|   \\  /    A nd           | Website:  www.openfoam.com                      |
|    \\/     M anipulation  |                                                 |
\*---------------------------------------------------------------------------*/
FoamFile
{
    version     2.0;
    format      ascii;
    arch        "LSB;label=32;scalar=64";
    class       volVectorField;
    location    "30";
    object      U;
}
// * * * * * * * * * * * * * * * * * * * * * * * * * * * * * * * * * * * * * //

dimensions      [0 1 -1 0 0 0 0];

internalField   nonuniform List<vector> 
8800
(
(0.984965 -0.0884521 0)
(1.00213 -0.0568225 0)
(0.999681 -0.0305553 0)
(1.00002 -0.015858 0)
(1.00005 -0.00870792 0)
(1.00002 -0.00506265 0)
(0.999996 -0.00298064 0)
(0.999989 -0.00169394 0)
(0.999989 -0.000814336 0)
(1.00005 -0.000124277 0)
(0.999994 0.000575154 0)
(1 0.00133439 0)
(1.00001 0.00236776 0)
(1.00002 0.00397268 0)
(1.00004 0.0066869 0)
(1.00005 0.0117203 0)
(0.999915 0.0220423 0)
(0.9992 0.0411644 0)
(1.00746 0.0768947 0)
(0.773651 0.0450705 0)
(0.360994 -0.0151723 0)
(1.04556 -0.0742076 0)
(1.08712 -0.0679011 0)
(1.04777 -0.0523126 0)
(1.02457 -0.0384068 0)
(1.01232 -0.0261218 0)
(1.0064 -0.0167799 0)
(1.00355 -0.0102941 0)
(1.00214 -0.00568617 0)
(1.00149 -0.00210912 0)
(1.00137 0.0010971 0)
(1.00174 0.00441768 0)
(1.00271 0.00833458 0)
(1.0047 0.0136871 0)
(1.00879 0.0214284 0)
(1.01737 0.0322629 0)
(1.03453 0.0456206 0)
(1.06557 0.0597497 0)
(1.09411 0.0729321 0)
(0.842281 0.0557029 0)
(0.217044 -0.00164671 0)
(1.07585 -0.0503684 0)
(1.09985 -0.0487406 0)
(1.06464 -0.0401945 0)
(1.03991 -0.0330306 0)
(1.02367 -0.0257358 0)
(1.01389 -0.0183833 0)
(1.00842 -0.0117064 0)
(1.00561 -0.00594703 0)
(1.00446 -0.00067088 0)
(1.0048 0.00443641 0)
(1.00666 0.00976514 0)
(1.01057 0.0158318 0)
(1.01787 0.0227668 0)
(1.03054 0.0300475 0)
(1.05074 0.0370728 0)
(1.0805 0.0444395 0)
(1.10634 0.0516802 0)
(0.943012 0.0412906 0)
(0.216584 0.00166201 0)
(0.175856 -0.000645967 0)
(1.01862 -0.0354271 0)
(1.10556 -0.0414504 0)
(1.07807 -0.0362969 0)
(1.05273 -0.0302801 0)
(1.03541 -0.0245701 0)
(1.0234 -0.0188909 0)
(1.01551 -0.0129341 0)
(1.01088 -0.00686201 0)
(1.00887 -0.000648165 0)
(1.00944 0.00550431 0)
(1.01259 0.0114489 0)
(1.01863 0.017288 0)
(1.02836 0.0228948 0)
(1.04272 0.0283482 0)
(1.0635 0.0340368 0)
(1.09398 0.0400382 0)
(1.09439 0.0417171 0)
(0.82925 0.0227167 0)
(0.17508 0.000662634 0)
(0.154295 -0.00048767 0)
(0.957215 -0.0255652 0)
(1.10403 -0.035117 0)
(1.08786 -0.0326854 0)
(1.06124 -0.0281435 0)
(1.0433 -0.0231748 0)
(1.03089 -0.0179897 0)
(1.02222 -0.0125852 0)
(1.01663 -0.00677542 0)
(1.014 -0.000388603 0)
(1.01471 0.00602713 0)
(1.0186 0.0118768 0)
(1.02549 0.0171875 0)
(1.03573 0.0221857 0)
(1.05046 0.0270383 0)
(1.0722 0.0315648 0)
(1.10099 0.0355035 0)
(1.06962 0.0337326 0)
(0.742065 0.0142644 0)
(0.153132 0.000506444 0)
(0.139766 -0.000358548 0)
(0.900229 -0.0191976 0)
(1.09633 -0.0301433 0)
(1.0959 -0.0292907 0)
(1.0688 -0.0255785 0)
(1.05004 -0.021538 0)
(1.0371 -0.016921 0)
(1.02811 -0.0117846 0)
(1.02216 -0.00618322 0)
(1.01919 3.67507e-05 0)
(1.01991 0.00629331 0)
(1.02404 0.011881 0)
(1.03115 0.0168796 0)
(1.0417 0.0214122 0)
(1.05708 0.0254205 0)
(1.07973 0.0289452 0)
(1.1034 0.0316734 0)
(1.03809 0.0277637 0)
(0.676009 0.0101071 0)
(0.138131 0.000380669 0)
(0.129133 -0.000273882 0)
(0.850524 -0.0147881 0)
(1.08388 -0.0259823 0)
(1.10145 -0.0263284 0)
(1.07548 -0.02306 0)
(1.05621 -0.0194994 0)
(1.04283 -0.0154599 0)
(1.03346 -0.0107585 0)
(1.02725 -0.0054241 0)
(1.02411 0.000568625 0)
(1.02474 0.00657191 0)
(1.02889 0.0118454 0)
(1.03618 0.0163917 0)
(1.04706 0.0202894 0)
(1.06285 0.0236666 0)
(1.08594 0.0267251 0)
(1.10278 0.0286107 0)
(1.00395 0.0230896 0)
(0.624925 0.00767351 0)
(0.126925 0.000300579 0)
(0.121056 -0.000210201 0)
(0.808366 -0.0115559 0)
(1.06856 -0.0222865 0)
(1.10486 -0.0236101 0)
(1.08157 -0.0207938 0)
(1.06183 -0.0174826 0)
(1.04816 -0.0137824 0)
(1.03851 -0.00945619 0)
(1.03204 -0.00445848 0)
(1.02869 0.00121341 0)
(1.0292 0.00686397 0)
(1.03336 0.0117255 0)
(1.04075 0.0157806 0)
(1.05179 0.0191959 0)
(1.06788 0.0221857 0)
(1.09138 0.0249514 0)
(1.09946 0.0259584 0)
(0.969791 0.019322 0)
(0.584408 0.00605016 0)
(0.118152 0.000242616 0)
(0.114844 -0.000161219 0)
(0.773099 -0.00909232 0)
(1.05177 -0.0189497 0)
(1.107 -0.0210041 0)
(1.08715 -0.0186168 0)
(1.06702 -0.0155284 0)
(1.05311 -0.0120415 0)
(1.04326 -0.00798703 0)
(1.03654 -0.0033352 0)
(1.03295 0.00198414 0)
(1.0333 0.00725886 0)
(1.03743 0.0116612 0)
(1.04484 0.0152538 0)
(1.05593 0.0182715 0)
(1.07229 0.0209238 0)
(1.09552 0.0233336 0)
(1.09349 0.0235669 0)
(0.937066 0.0162865 0)
(0.551566 0.00489495 0)
(0.111096 0.0002009 0)
(0.110075 -0.000121473 0)
(0.743912 -0.00713284 0)
(1.03474 -0.0159112 0)
(1.10818 -0.0184351 0)
(1.09237 -0.0163608 0)
(1.07195 -0.0134387 0)
(1.05778 -0.0101604 0)
(1.04777 -0.00634772 0)
(1.04089 -0.00199537 0)
(1.03708 0.00293203 0)
(1.03722 0.00773814 0)
(1.04116 0.0116769 0)
(1.04846 0.0148232 0)
(1.05959 0.0174278 0)
(1.0762 0.0197415 0)
(1.09851 0.021819 0)
(1.08546 0.0213858 0)
(0.906561 0.01383 0)
(0.524493 0.00403652 0)
(0.105297 0.000170137 0)
(0.106467 -8.86691e-05 0)
(0.720096 -0.00549701 0)
(1.01833 -0.0130803 0)
(1.10851 -0.0158883 0)
(1.09738 -0.0141676 0)
(1.07663 -0.011397 0)
(1.06213 -0.00826549 0)
(1.05191 -0.00461307 0)
(1.04481 -0.000493385 0)
(1.04074 0.00406704 0)
(1.04062 0.00840459 0)
(1.04435 0.0118936 0)
(1.05153 0.0146272 0)
(1.06269 0.0168523 0)
(1.07959 0.0187974 0)
(1.10023 0.0204664 0)
(1.07582 0.0193765 0)
(0.878595 0.0118092 0)
(0.50189 0.00338221 0)
(0.100431 0.000148583 0)
(0.103848 -5.94967e-05 0)
(0.701135 -0.00406262 0)
(1.00324 -0.0103733 0)
(1.10803 -0.0132531 0)
(1.10195 -0.0118496 0)
(1.08108 -0.00919994 0)
(1.06628 -0.00615489 0)
(1.0558 -0.00266468 0)
(1.04844 0.00121527 0)
(1.04406 0.00543877 0)
(1.04359 0.00935123 0)
(1.04703 0.0123624 0)
(1.05407 0.0146264 0)
(1.06528 0.0164437 0)
(1.08237 0.0180032 0)
(1.10084 0.0192128 0)
(1.06493 0.0174975 0)
(0.853262 0.0101237 0)
(0.482842 0.0028698 0)
(0.0962692 0.000133405 0)
(0.102125 -3.2148e-05 0)
(0.686702 -0.00274256 0)
(0.99012 -0.00771923 0)
(1.10705 -0.0103935 0)
(1.10607 -0.00916495 0)
(1.0854 -0.00662958 0)
(1.07032 -0.00370664 0)
(1.05955 -0.000402276 0)
(1.05182 0.00322516 0)
(1.04702 0.00711321 0)
(1.04613 0.0105716 0)
(1.0493 0.0130355 0)
(1.05617 0.0146998 0)
(1.06732 0.0159636 0)
(1.08445 0.0171649 0)
(1.10052 0.0179737 0)
(1.0533 0.0157178 0)
(0.830587 0.00869254 0)
(0.466718 0.0024638 0)
(0.0926494 0.000123905 0)
(0.10124 -2.39426e-06 0)
(0.676634 -0.00149499 0)
(0.979431 -0.0051146 0)
(1.10602 -0.00745117 0)
(1.10997 -0.00639467 0)
(1.08956 -0.0040252 0)
(1.07418 -0.00120487 0)
(1.06321 0.00202764 0)
(1.05526 0.00555265 0)
(1.05004 0.00915869 0)
(1.04859 0.0121645 0)
(1.05118 0.0141554 0)
(1.05765 0.0153791 0)
(1.06864 0.0161378 0)
(1.08582 0.0167549 0)
(1.09914 0.0169459 0)
(1.04126 0.0141452 0)
(0.810465 0.00749657 0)
(0.453025 0.00214563 0)
(0.0894309 0.000118285 0)
(0.101223 2.72902e-05 0)
(0.670837 -0.00023304 0)
(0.97139 -0.00245112 0)
(1.1049 -0.00432513 0)
(1.11337 -0.00346202 0)
(1.09344 -0.00122644 0)
(1.0778 0.00164174 0)
(1.06649 0.0048766 0)
(1.05802 0.00828979 0)
(1.05215 0.0116622 0)
(1.05006 0.0142658 0)
(1.05219 0.0156638 0)
(1.05831 0.0162615 0)
(1.06918 0.0165348 0)
(1.0861 0.0165371 0)
(1.09642 0.0161655 0)
(1.02872 0.0127531 0)
(0.792614 0.00651222 0)
(0.441315 0.00189969 0)
(0.0865187 0.000112659 0)
(0.102121 6.70254e-05 0)
(0.669178 0.000939043 0)
(0.966365 9.00637e-05 0)
(1.10417 -0.00107453 0)
(1.11661 -0.000157198 0)
(1.09747 0.00206739 0)
(1.0817 0.00500893 0)
(1.0701 0.00827041 0)
(1.06119 0.0116154 0)
(1.05466 0.0147503 0)
(1.0517 0.0168719 0)
(1.05303 0.0177078 0)
(1.05857 0.0177157 0)
(1.06901 0.0173394 0)
(1.08552 0.0168319 0)
(1.09237 0.0157098 0)
(1.01607 0.0118309 0)
(0.776717 0.00595437 0)
(0.431009 0.00179666 0)
(0.0838487 0.000107835 0)
(0.10388 9.43078e-05 0)
(0.670933 0.0018731 0)
(0.964559 0.00231517 0)
(1.10451 0.00202832 0)
(1.12006 0.00320571 0)
(1.10155 0.00561672 0)
(1.0855 0.00870877 0)
(1.07342 0.012076 0)
(1.06387 0.0154959 0)
(1.05644 0.0185338 0)
(1.05248 0.0202938 0)
(1.05293 0.0205767 0)
(1.05783 0.0199381 0)
(1.06783 0.018909 0)
(1.08391 0.0178498 0)
(1.08717 0.0160765 0)
(1.00323 0.011717 0)
(0.761869 0.0059818 0)
(0.421046 0.00189302 0)
(0.0811756 0.00011356 0)
(0.106459 0.000130504 0)
(0.676095 0.00279985 0)
(0.965861 0.00440806 0)
(1.10619 0.00498843 0)
(1.12401 0.00649674 0)
(1.10596 0.00923151 0)
(1.08964 0.0126795 0)
(1.07713 0.01644 0)
(1.06682 0.0201695 0)
(1.05826 0.0232095 0)
(1.05305 0.024621 0)
(1.05238 0.0244009 0)
(1.05634 0.0231619 0)
(1.06575 0.0215189 0)
(1.08117 0.0197953 0)
(1.0808 0.0173276 0)
(0.989897 0.0124229 0)
(0.747061 0.00655414 0)
(0.410399 0.00215996 0)
(0.0782345 0.000129892 0)
(0.1099 0.000171704 0)
(0.684405 0.00379662 0)
(0.970039 0.00650958 0)
(1.10934 0.00814024 0)
(1.12862 0.0100671 0)
(1.111 0.0132958 0)
(1.09443 0.0173501 0)
(1.08131 0.0217031 0)
(1.06997 0.0258374 0)
(1.05997 0.0289914 0)
(1.05319 0.0300905 0)
(1.05122 0.0292764 0)
(1.05413 0.027376 0)
(1.06279 0.0250965 0)
(1.07725 0.0226751 0)
(1.07305 0.0194225 0)
(0.975716 0.0139077 0)
(0.731206 0.0075824 0)
(0.398217 0.00254729 0)
(0.074802 0.00015375 0)
(0.11439 0.000226668 0)
(0.696077 0.005035 0)
(0.977577 0.00899616 0)
(1.11456 0.0118623 0)
(1.13426 0.014624 0)
(1.117 0.0186737 0)
(1.10003 0.0235178 0)
(1.08597 0.028504 0)
(1.07324 0.0329943 0)
(1.06145 0.0361422 0)
(1.05279 0.0367436 0)
(1.04927 0.0351292 0)
(1.05101 0.0324411 0)
(1.05879 0.0293875 0)
(1.07201 0.0262172 0)
(1.06394 0.0221894 0)
(0.96034 0.0160766 0)
(0.713306 0.00892743 0)
(0.383933 0.00301174 0)
(0.0707297 0.000182417 0)
(0.120262 0.000304397 0)
(0.711657 0.00669955 0)
(0.988995 0.012113 0)
(1.12272 0.0163447 0)
(1.14185 0.0203311 0)
(1.12443 0.0255678 0)
(1.10664 0.0313751 0)
(1.09122 0.037075 0)
(1.07671 0.0419655 0)
(1.06271 0.0449706 0)
(1.05176 0.0448341 0)
(1.04645 0.0421877 0)
(1.04691 0.0384784 0)
(1.05374 0.0346852 0)
(1.06551 0.0307593 0)
(1.05346 0.026045 0)
(0.942941 0.0189396 0)
(0.692485 0.0104833 0)
(0.367219 0.00352908 0)
(0.0659395 0.00021279 0)
(0.128036 0.000417672 0)
(0.732129 0.00900296 0)
(1.00446 0.0161519 0)
(1.13413 0.0217432 0)
(1.15195 0.0271389 0)
(1.13361 0.0337102 0)
(1.11443 0.0407288 0)
(1.09714 0.0473981 0)
(1.08029 0.0528759 0)
(1.06353 0.0558429 0)
(1.04989 0.0550363 0)
(1.04249 0.0513537 0)
(1.04157 0.0464571 0)
(1.04763 0.0416016 0)
(1.05779 0.0370453 0)
(1.04105 0.0312301 0)
(0.92202 0.0224437 0)
(0.668008 0.0122546 0)
(0.347759 0.00412833 0)
(0.0603653 0.000246769 0)
(0.138454 0.000588888 0)
(0.75892 0.0123239 0)
(1.02463 0.0217032 0)
(1.1488 0.0286334 0)
(1.16465 0.0353217 0)
(1.14489 0.0433576 0)
(1.12374 0.0517814 0)
(1.10401 0.0597073 0)
(1.08422 0.0660132 0)
(1.06414 0.0691816 0)
(1.04739 0.0679404 0)
(1.03756 0.0634348 0)
(1.03485 0.0575544 0)
(1.0399 0.0515112 0)
(1.04823 0.0457212 0)
(1.0249 0.0376945 0)
(0.896338 0.0263522 0)
(0.63956 0.0143041 0)
(0.325154 0.00481022 0)
(0.0539277 0.000280404 0)
(0.152764 0.000865846 0)
(0.79413 0.0173006 0)
(1.05101 0.029641 0)
(1.16682 0.0383285 0)
(1.17991 0.046412 0)
(1.15827 0.0559147 0)
(1.13475 0.0658344 0)
(1.112 0.0750695 0)
(1.08859 0.0821388 0)
(1.0646 0.0853977 0)
(1.04435 0.0835681 0)
(1.03175 0.0781344 0)
(1.02685 0.0711699 0)
(1.03006 0.0637364 0)
(1.03522 0.0555707 0)
(1.00308 0.0447433 0)
(0.865659 0.0307319 0)
(0.606822 0.0167667 0)
(0.298915 0.005596 0)
(0.0465647 0.00031414 0)
(0.17313 0.00135657 0)
(0.841117 0.0251082 0)
(1.0865 0.0415236 0)
(1.18909 0.0528057 0)
(1.19777 0.0627594 0)
(1.17377 0.0738799 0)
(1.14735 0.0851887 0)
(1.12075 0.0952061 0)
(1.09306 0.102339 0)
(1.06459 0.104879 0)
(1.04043 0.101661 0)
(1.02476 0.0946725 0)
(1.01719 0.0860322 0)
(1.01727 0.0765872 0)
(1.01699 0.0657309 0)
(0.975689 0.0521124 0)
(0.830552 0.035913 0)
(0.569198 0.0197294 0)
(0.268652 0.00645706 0)
(0.0383102 0.000340676 0)
(0.20292 0.00246516 0)
(0.905673 0.0385915 0)
(1.13415 0.0611323 0)
(1.2167 0.0755086 0)
(1.21855 0.0880907 0)
(1.19105 0.100512 0)
(1.16067 0.112273 0)
(1.1293 0.121785 0)
(1.09669 0.127554 0)
(1.06328 0.127895 0)
(1.03493 0.121997 0)
(1.01588 0.112466 0)
(1.00508 0.101379 0)
(1.00093 0.0894241 0)
(0.994071 0.0761453 0)
(0.944095 0.06055 0)
(0.790985 0.0423202 0)
(0.526012 0.0232838 0)
(0.234633 0.00742329 0)
(0.0294611 0.000356593 0)
(0.243889 0.00876385 3.19555e-19)
(0.991555 0.0657712 2.81062e-19)
(1.19206 0.0945977 -9.5964e-20)
(1.24878 0.110696 0)
(1.24081 0.126168 -2.18138e-33)
(1.2083 0.138292 3.1186e-20)
(1.17299 0.148757 -5.19086e-20)
(1.13625 0.156161 0)
(1.09821 0.159115 9.72388e-34)
(1.0594 0.155924 -5.54521e-20)
(1.02636 0.146282 0)
(1.00329 0.133424 -6.18721e-20)
(0.988358 0.119434 -1.79799e-19)
(0.97899 0.10505 -8.39992e-20)
(0.965386 0.0903703 -2.48347e-20)
(0.906626 0.0739241 -1.46059e-20)
(0.742402 0.0527032 0)
(0.47294 0.0290319 1.01507e-20)
(0.197266 0.00985011 1.19543e-20)
(0.0213364 0.000800545 2.12691e-19)
(0.271432 0.0243161 2.93147e-19)
(1.06207 0.108596 9.96279e-22)
(1.23953 0.142637 2.82561e-20)
(1.27902 0.160029 0)
(1.26104 0.174944 -1.1924e-19)
(1.2232 0.185608 -1.30202e-19)
(1.18265 0.19407 -5.45195e-20)
(1.14027 0.19903 -1.8042e-19)
(1.09634 0.198952 0)
(1.0513 0.19197 2.38054e-19)
(1.01228 0.178296 2.28688e-19)
(0.983699 0.161808 6.63615e-20)
(0.96318 0.144931 2.34494e-19)
(0.947563 0.128394 3.22293e-19)
(0.926053 0.112229 0)
(0.859413 0.0945352 4.46156e-19)
(0.68661 0.0689574 6.3708e-19)
(0.420064 0.0392747 7.0369e-19)
(0.165975 0.0145521 -8.00552e-19)
(0.0151646 0.00132725 -1.49048e-20)
(0.2712 0.0398777 0)
(1.1059 0.164515 6.54432e-20)
(1.27241 0.202238 0)
(1.30254 0.219704 -1.9345e-19)
(1.27697 0.231584 0)
(1.23425 0.239169 -2.71639e-19)
(1.1886 0.2443 1.14916e-19)
(1.14078 0.245755 -3.77789e-19)
(1.09111 0.241855 -3.14348e-21)
(1.04008 0.230718 1.25814e-19)
(0.99529 0.213066 4.96223e-19)
(0.961655 0.193432 -6.24347e-22)
(0.936503 0.17447 -1.68977e-19)
(0.916385 0.156793 -3.00373e-19)
(0.890855 0.139991 3.52858e-19)
(0.823919 0.120528 -6.21189e-19)
(0.655708 0.0899121 -8.10522e-20)
(0.403876 0.053937 0)
(0.166671 0.0219412 5.36739e-23)
(0.016779 0.00234802 0)
(0.264225 0.0534372 1.18407e-18)
(1.12885 0.22355 -5.33745e-19)
(1.29319 0.266762 -3.46053e-19)
(1.31791 0.283947 1.0069e-19)
(1.28705 0.292375 -1.64574e-19)
(1.24049 0.296264 5.77911e-19)
(1.19053 0.29749 2.44074e-19)
(1.13791 0.294912 0)
(1.08308 0.28683 -6.65335e-19)
(1.0266 0.271386 0)
(0.976605 0.24997 -2.63624e-19)
(0.938612 0.227641 -3.11139e-19)
(0.909906 0.207015 -1.82634e-19)
(0.886819 0.188442 -2.16449e-19)
(0.859419 0.17083 0)
(0.79523 0.149723 0)
(0.63996 0.115424 -5.2749e-19)
(0.407234 0.073482 1.03177e-19)
(0.179432 0.0324785 -6.10468e-20)
(0.0215753 0.0041625 -7.02827e-20)
(0.256731 0.0655348 -7.229e-19)
(1.13831 0.282383 0)
(1.30486 0.332152 8.38781e-19)
(1.32601 0.349328 3.14482e-19)
(1.29139 0.354405 3.58511e-19)
(1.24186 0.354581 0)
(1.18842 0.351859 2.53753e-19)
(1.1318 0.345173 4.27754e-19)
(1.07253 0.332881 3.50155e-19)
(1.01132 0.313175 5.84058e-19)
(0.956865 0.288113 0)
(0.915289 0.263305 -6.68793e-19)
(0.883839 0.241125 -3.92921e-19)
(0.858626 0.221687 -2.29702e-19)
(0.830465 0.203408 1.37374e-18)
(0.770147 0.181055 1.62546e-19)
(0.629468 0.143752 7.60091e-19)
(0.414942 0.0954165 -3.56787e-18)
(0.193733 0.0451062 2.1206e-18)
(0.0266705 0.00653393 -2.51715e-18)
(0.249954 0.0765316 -6.5859e-19)
(1.13938 0.339163 1.4252e-19)
(1.30955 0.396562 -1.23038e-19)
(1.32834 0.414026 -4.22712e-19)
(1.29088 0.41598 -3.63941e-19)
(1.23899 0.412593 3.43377e-21)
(1.18272 0.406104 -2.72559e-19)
(1.12278 0.395479 4.52285e-19)
(1.05977 0.379119 -7.50993e-19)
(0.994498 0.355288 0)
(0.93629 0.326659 -3.09117e-19)
(0.891867 0.299399 -3.15903e-21)
(0.858318 0.275697 -4.24797e-19)
(0.831599 0.255327 0)
(0.803208 0.236429 -2.95604e-19)
(0.746872 0.21298 -6.98398e-19)
(0.619408 0.172986 1.85269e-18)
(0.420518 0.11819 -1.8162e-18)
(0.204743 0.0583252 2.5757e-18)
(0.0308345 0.00910007 -2.63565e-18)
(0.244482 0.0867817 -8.04013e-22)
(1.13525 0.39325 -1.4415e-19)
(1.3095 0.459677 -5.06184e-19)
(1.32618 0.47701 2.17416e-19)
(1.28654 0.476125 -1.92179e-19)
(1.23272 0.469422 0)
(1.1741 0.459418 -2.79408e-19)
(1.11135 0.445094 -4.80063e-19)
(1.04514 0.424884 -3.97231e-19)
(0.976387 0.397077 0)
(0.914993 0.364938 -3.25969e-19)
(0.86827 0.33515 -3.85512e-19)
(0.833178 0.309804 4.57118e-19)
(0.805512 0.288428 -2.70973e-19)
(0.777271 0.268844 -1.27591e-18)
(0.72445 0.244136 7.55403e-19)
(0.607567 0.201968 2.2422e-19)
(0.42061 0.140503 0)
(0.209703 0.0707699 -2.46212e-18)
(0.0332669 0.0114493 -8.88981e-20)
(0.240304 0.0966014 -8.81072e-20)
(1.12805 0.444523 1.489e-19)
(1.30564 0.520217 2.67992e-19)
(1.32061 0.537633 7.06193e-19)
(1.27923 0.534253 -7.99459e-19)
(1.22384 0.524544 6.9459e-19)
(1.16323 0.511305 5.98454e-19)
(1.09808 0.493552 -7.68738e-19)
(1.02907 0.469734 2.24707e-19)
(0.957233 0.43811 -1.4312e-18)
(0.893073 0.402469 -3.57391e-19)
(0.844432 0.370037 0)
(0.808225 0.34282 4.91671e-19)
(0.780025 0.320179 5.78569e-19)
(0.75222 0.299613 6.83475e-19)
(0.7024 0.273628 -8.12746e-19)
(0.593298 0.228677 -2.39123e-19)
(0.41507 0.160217 2.80709e-19)
(0.208832 0.0809688 0)
(0.0337978 0.0131997 -1.90937e-19)
(0.237254 0.106119 8.98596e-19)
(1.11927 0.493087 -6.14742e-19)
(1.29907 0.577943 -2.82917e-19)
(1.31252 0.595582 4.92695e-19)
(1.2697 0.590008 -4.15396e-19)
(1.21299 0.577605 -7.94059e-21)
(1.15071 0.56145 -6.43533e-19)
(1.08347 0.540566 -2.75295e-19)
(1.01196 0.513391 -6.84188e-19)
(0.937308 0.478125 4.48609e-22)
(0.870643 0.438984 -1.13273e-18)
(0.820356 0.403734 9.02468e-19)
(0.783267 0.374403 -5.31855e-19)
(0.754823 0.350211 6.27057e-19)
(0.727518 0.328301 0)
(0.68009 0.300587 -4.36575e-19)
(0.576569 0.252363 -1.81084e-21)
(0.404571 0.176687 -1.20867e-18)
(0.203559 0.0885973 -1.77359e-19)
(0.0329751 0.0143117 0)
(0.235182 0.115442 0)
(1.10973 0.539132 -6.50236e-19)
(1.2906 0.632755 -5.82433e-19)
(1.30262 0.650742 -5.17121e-19)
(1.25853 0.643223 -4.56192e-19)
(1.20072 0.628418 0)
(1.13701 0.60965 -3.28466e-19)
(1.06793 0.585942 -2.34912e-21)
(0.994158 0.555694 1.46291e-18)
(0.916884 0.516984 -2.0088e-19)
(0.847837 0.474358 -8.11717e-19)
(0.796032 0.436135 4.76094e-19)
(0.758205 0.404404 -4.01199e-21)
(0.729603 0.378342 6.68084e-19)
(0.702766 0.354818 4.00858e-19)
(0.657058 0.324881 -9.38217e-19)
(0.557349 0.27256 1.10699e-18)
(0.389805 0.189746 3.25117e-19)
(0.19429 0.0935877 1.33194e-18)
(0.0308706 0.0146968 -3.52297e-18)
(0.234 0.124708 1.90537e-19)
(1.09999 0.582862 -3.31998e-19)
(1.28103 0.684669 2.8713e-19)
(1.2914 0.703102 5.36436e-19)
(1.24625 0.693816 0)
(1.1875 0.676877 -3.98402e-19)
(1.12255 0.655793 1.06534e-18)
(1.05183 0.629566 6.18994e-19)
(0.975973 0.596539 0)
(0.896187 0.554619 -2.83067e-18)
(0.824793 0.508565 2.17809e-18)
(0.771441 0.467227 0)
(0.732854 0.432854 6.132e-19)
(0.704122 0.404619 -3.98469e-21)
(0.677676 0.379115 -1.2813e-18)
(0.633113 0.346512 5.00729e-19)
(0.535802 0.289359 0)
(0.37164 0.199173 1.74773e-18)
(0.182026 0.0961065 0)
(0.0279797 0.0145183 -1.65697e-18)
(0.233514 0.133951 -1.97138e-19)
(1.09049 0.624394 -3.39772e-19)
(1.27052 0.733759 3.09954e-19)
(1.27931 0.752642 0)
(1.23324 0.741772 -4.9599e-19)
(1.1737 0.72295 0)
(1.10766 0.699821 -1.11396e-18)
(1.03547 0.671372 -3.15872e-19)
(0.957665 0.635873 2.70228e-19)
(0.875423 0.59101 -1.39719e-18)
(0.801595 0.541638 2.29056e-19)
(0.746548 0.497078 0)
(0.707107 0.459823 -1.30956e-18)
(0.678212 0.429114 4.08352e-21)
(0.652016 0.401302 0)
(0.608024 0.365534 4.56085e-21)
(0.511887 0.30279 1.59511e-18)
(0.350356 0.204938 -1.50351e-18)
(0.167461 0.0961595 4.40977e-19)
(0.024545 0.0137733 0)
(0.23341 0.14304 0)
(1.08146 0.663808 -3.51465e-19)
(1.25947 0.780184 -3.12546e-19)
(1.26671 0.799406 -4.50219e-21)
(1.21984 0.787121 -2.51224e-19)
(1.15962 0.766641 -9.04379e-19)
(1.09264 0.741721 4.01561e-19)
(1.01911 0.711334 -3.48004e-19)
(0.939463 0.673669 1.1725e-18)
(0.854764 0.626169 -2.2332e-18)
(0.778345 0.573648 -6.6551e-21)
(0.721413 0.525811 -5.91391e-19)
(0.68096 0.485453 2.11038e-18)
(0.651774 0.451992 -4.81153e-21)
(0.62568 0.421518 -9.84347e-19)
(0.581692 0.381993 -1.74579e-18)
(0.485792 0.312919 0)
(0.326482 0.207247 0)
(0.151108 0.0937864 4.75161e-19)
(0.0208019 0.0125059 -2.73645e-19)
(0.233804 0.152139 -2.09618e-19)
(1.07284 0.700981 7.38686e-19)
(1.24817 0.824006 3.32707e-19)
(1.25387 0.843473 0)
(1.20629 0.829918 -3.07938e-21)
(1.14549 0.807982 -9.38821e-19)
(1.0777 0.781507 1.04393e-18)
(1.00295 0.749451 1.44728e-18)
(0.92156 0.70993 1.54844e-18)
(0.834401 0.660132 -1.84057e-18)
(0.75524 0.604704 -1.85999e-18)
(0.69613 0.553601 1.57981e-18)
(0.654367 0.50993 0)
(0.624728 0.47339 -4.48902e-19)
(0.598576 0.439862 -1.05909e-18)
(0.554073 0.395943 -1.249e-18)
(0.457288 0.319618 -1.47607e-18)
(0.300357 0.206082 4.34678e-19)
(0.133273 0.0890086 -2.5493e-19)
(0.0167653 0.0107536 6.42026e-22)
(0.234285 0.161062 0)
(1.06481 0.736403 0)
(1.2368 0.865305 5.09004e-21)
(1.24098 0.884937 0)
(1.19278 0.870248 8.28924e-19)
(1.13151 0.847031 7.31856e-19)
(1.06301 0.819206 0)
(0.987179 0.785737 1.86227e-19)
(0.904136 0.744667 2.61972e-18)
(0.814533 0.692935 -4.21743e-18)
(0.732442 0.634914 0)
(0.67077 0.58063 -1.01321e-18)
(0.627328 0.533449 -5.87301e-21)
(0.596988 0.493467 -4.80253e-21)
(0.570613 0.456379 1.1312e-18)
(0.525155 0.407269 -8.19888e-22)
(0.426787 0.322813 -3.16756e-18)
(0.272044 0.201279 9.3308e-19)
(0.114528 0.0820779 2.74384e-19)
(0.012713 0.00867618 0)
(0.23475 0.169802 6.64919e-19)
(1.05712 0.770115 3.96717e-19)
(1.22545 0.904158 7.07816e-19)
(1.22819 0.923897 -1.28993e-18)
(1.17948 0.908175 1.44272e-18)
(1.11782 0.883847 0)
(1.04873 0.854866 6.91235e-19)
(0.971923 0.820219 -4.0224e-19)
(0.887338 0.777899 7.61009e-21)
(0.795321 0.724613 3.04212e-19)
(0.710088 0.664365 2.41204e-18)
(0.645466 0.607089 -3.57888e-19)
(0.59987 0.556276 -1.2917e-18)
(0.568438 0.512416 -5.17748e-19)
(0.541622 0.471042 6.10624e-19)
(0.494878 0.415727 -5.34198e-22)
(0.394651 0.322239 8.51114e-19)
(0.24239 0.192934 -2.00182e-18)
(0.09562 0.0733872 2.35535e-18)
(0.00880484 0.00639518 3.3836e-19)
(0.235038 0.178224 -2.28996e-19)
(1.04976 0.802194 2.06694e-19)
(1.21426 0.940688 1.19284e-20)
(1.21563 0.960471 -6.64263e-19)
(1.16649 0.943807 -2.9459e-19)
(1.10453 0.9185 -1.37028e-18)
(1.03496 0.888536 2.3533e-19)
(0.957293 0.852921 -1.70365e-18)
(0.871281 0.809626 -2.94359e-18)
(0.776883 0.755167 -2.5374e-18)
(0.688361 0.693133 0)
(0.620384 0.633157 -1.54635e-18)
(0.572048 0.578709 1.84818e-18)
(0.538919 0.530491 0)
(0.511296 0.483773 -1.30523e-18)
(0.463119 0.420833 7.74327e-19)
(0.361211 0.317403 -9.12032e-19)
(0.212528 0.18119 -1.07471e-18)
(0.0774943 0.0634745 -1.89329e-18)
(0.0052798 0.00410158 -1.45383e-18)
(0.235616 0.186456 2.34471e-19)
(1.0426 0.832615 -2.20289e-19)
(1.20329 0.974971 -5.59721e-19)
(1.20338 0.994744 -8.67556e-19)
(1.1539 0.977229 6.34549e-19)
(1.09171 0.951073 -8.56089e-19)
(1.02176 0.920266 7.58696e-19)
(0.94336 0.883883 -1.79583e-18)
(0.856034 0.839871 -1.75617e-18)
(0.759343 0.784613 2.68099e-18)
(0.667431 0.721271 5.29973e-18)
(0.595704 0.65899 0)
(0.543972 0.601059 0)
(0.508249 0.548078 -5.93055e-19)
(0.479085 0.494555 0)
(0.429413 0.421765 1.66191e-18)
(0.32695 0.30724 1.95792e-18)
(0.184066 0.165839 0)
(0.0615245 0.0529043 0)
(0.00235098 0.00201217 1.55916e-18)
(0.235807 0.194195 -2.40883e-19)
(1.03565 0.861374 -2.06858e-19)
(1.19259 1.00712 -3.93542e-19)
(1.19148 1.02684 7.16363e-19)
(1.14176 1.00854 6.62005e-19)
(1.07942 0.981638 1.04065e-18)
(1.00919 0.950118 -1.06966e-18)
(0.930176 0.913136 4.35513e-22)
(0.841669 0.868642 -9.79351e-21)
(0.742799 0.812945 -1.13424e-20)
(0.647459 0.7488 2.72978e-18)
(0.571638 0.684691 0)
(0.515846 0.623628 1.85159e-18)
(0.476318 0.565708 1.26331e-18)
(0.444174 0.503708 3.01327e-18)
(0.392587 0.417617 8.90574e-19)
(0.292025 0.289535 -1.05267e-18)
(0.160048 0.144956 -6.17193e-19)
(0.0520273 0.0414226 0)
(0.00129933 0.0006076 1.67159e-18)
(0.236261 0.201903 4.8862e-19)
(1.02891 0.888568 0)
(1.18217 1.0372 -4.0046e-19)
(1.17998 1.05684 5.61904e-19)
(1.13012 1.03784 -6.82781e-19)
(1.06769 1.01028 -1.39134e-18)
(0.997292 0.978147 2.23609e-18)
(0.91777 0.940718 -1.33767e-19)
(0.828219 0.89595 0)
(0.727316 0.840128 -3.00475e-18)
(0.628594 0.775709 -5.9688e-18)
(0.548418 0.710329 2.3053e-19)
(0.487983 0.646647 2.53876e-18)
(0.443207 0.584025 0)
(0.405681 0.51214 2.01937e-18)
(0.350313 0.408306 0)
(0.253786 0.260867 0)
(0.142959 0.108759 -6.65441e-19)
(0.0672737 0.0177668 0)
(0.025313 0.0099639 4.47174e-19)
(0.236323 0.208967 5.02248e-19)
(1.02234 0.91452 0)
(1.17202 1.06541 -6.12853e-19)
(1.16884 1.08498 0)
(1.11893 1.06536 3.44169e-19)
(1.05645 1.03727 0)
(0.985987 1.00466 1.36378e-19)
(0.906045 0.966964 2.53729e-19)
(0.815569 0.92216 2.20561e-19)
(0.712745 0.866551 -3.32366e-18)
(0.610705 0.802431 1.84378e-19)
(0.5259 0.736476 1.82344e-18)
(0.460179 0.670711 2.46804e-18)
(0.408447 0.604035 3.25288e-19)
(0.362077 0.521721 1.56936e-18)
(0.298511 0.396032 0)
(0.20091 0.221568 2.20044e-18)
(0.10409 0.0479951 -1.28022e-18)
(0.0447401 0.0474672 1.47926e-18)
(-0.0588469 0.419339 -1.76017e-18)
(0.236338 0.215785 -3.90875e-19)
(1.01569 0.939072 -6.87254e-19)
(1.16207 1.09207 0)
(1.15793 1.11167 1.00071e-20)
(1.10802 1.09169 -8.81774e-19)
(1.04547 1.0633 2.41009e-18)
(0.974984 1.03045 8.66102e-19)
(0.89462 0.992809 0)
(0.80322 0.948356 1.54372e-18)
(0.698457 0.893513 -1.82714e-19)
(0.592936 0.830429 0)
(0.503004 0.764913 0)
(0.431106 0.697594 2.20762e-18)
(0.370666 0.627529 -9.93654e-19)
(0.310781 0.535774 -1.57979e-18)
(0.23281 0.386696 0)
(0.114894 0.204066 1.09193e-18)
(0.0127017 0.432058 -1.25594e-18)
(0.0373355 1.8571 -7.12059e-19)
(0.0695121 2.79048 -9.28351e-19)
(0.236148 0.221814 2.60311e-19)
(1.0091 0.962352 8.21417e-19)
(1.15233 1.11717 -3.28495e-19)
(1.14725 1.13677 -3.98601e-19)
(1.09745 1.1166 0)
(1.0348 1.08807 1.65035e-18)
(0.964468 1.0552 1.31696e-18)
(0.883663 1.01782 -1.31552e-19)
(0.791421 0.97402 2.27203e-19)
(0.684811 0.920395 3.22669e-18)
(0.575865 0.858992 3.06329e-18)
(0.48071 0.795205 2.06159e-18)
(0.401871 0.726877 2.21575e-18)
(0.332066 0.652974 -2.32008e-18)
(0.257902 0.557199 -2.37308e-18)
(0.154921 0.413344 0)
(0.0577415 0.821922 0)
(0.111332 2.52786 6.17889e-19)
(0.114684 3.1858 0)
(0.116977 3.38173 1.42493e-18)
(0.238939 0.227395 0)
(1.00315 0.984579 0)
(1.14254 1.14058 0)
(1.13658 1.16007 -9.84094e-20)
(1.08692 1.13986 -7.61085e-19)
(1.02422 1.11143 1.17404e-18)
(0.954341 1.07881 8.97965e-19)
(0.873114 1.04189 -1.33513e-19)
(0.78012 0.999002 2.02782e-18)
(0.671816 0.947045 -1.98085e-20)
(0.559613 0.887965 6.1248e-18)
(0.459397 0.827189 -2.33694e-19)
(0.372919 0.759262 2.72637e-19)
(0.294827 0.677393 3.31545e-19)
(0.199743 0.585152 9.67947e-22)
(0.120067 0.952717 3.46823e-21)
(0.155931 2.6764 -3.17086e-18)
(0.168025 3.28306 -1.21728e-18)
(0.154359 3.42506 6.45503e-19)
(0.138918 3.44885 -7.24041e-19)
(0.157819 0.178876 -1.25052e-19)
(0.992334 1.00873 0)
(1.13251 1.16248 5.59583e-19)
(1.12644 1.182 9.29439e-19)
(1.07704 1.16214 -1.43994e-18)
(1.01452 1.13397 -1.21729e-18)
(0.94445 1.10134 -9.87766e-19)
(0.863047 1.0651 1.71168e-18)
(0.76948 1.02339 -1.70706e-18)
(0.659788 0.973513 0)
(0.544632 0.917381 3.05758e-18)
(0.439661 0.860484 -1.6998e-18)
(0.34495 0.7975 0)
(0.259443 0.704493 3.03275e-19)
(0.171476 0.823184 7.23622e-19)
(0.171738 2.42648 -8.80538e-19)
(0.236268 3.31852 9.81754e-19)
(0.213519 3.44216 5.57484e-19)
(0.176877 3.46486 6.30581e-19)
(0.153074 3.47553 1.07694e-18)
(0.278623 0.265308 2.40991e-19)
(0.975944 1.01773 0)
(1.11433 1.18712 -5.27897e-19)
(1.11222 1.21434 -8.86112e-19)
(1.06128 1.19505 1.36178e-18)
(0.998307 1.16739 1.14778e-18)
(0.927394 1.13612 1.30286e-18)
(0.845456 1.10106 1.31009e-19)
(0.750727 1.06147 1.75178e-18)
(0.638614 1.0154 2.98916e-18)
(0.518875 0.965431 1.82716e-19)
(0.406572 0.916194 1.55518e-18)
(0.29617 0.864651 2.63389e-19)
(0.22807 0.981008 -3.1401e-19)
(0.245145 2.27321 -7.13237e-19)
(0.309973 3.32336 7.29188e-19)
(0.295885 3.47638 -8.6034e-19)
(0.257512 3.49917 -5.0673e-19)
(0.218543 3.52671 -4.8725e-19)
(0.164718 3.5191 -4.52469e-20)
(0.267428 0.262498 0)
(0.973484 1.04008 -1.02937e-19)
(1.10639 1.21008 9.3785e-20)
(1.10249 1.23726 8.80286e-20)
(1.05137 1.21786 8.47752e-19)
(0.9885 1.19043 -1.09336e-18)
(0.917315 1.15936 -8.23348e-19)
(0.835313 1.12508 1.25055e-19)
(0.740302 1.08694 -1.89487e-18)
(0.627333 1.04362 -2.83451e-20)
(0.505588 0.998328 -5.78994e-18)
(0.390128 0.955028 2.20207e-19)
(0.283884 0.931251 -2.5366e-19)
(0.267736 1.45277 -3.02728e-19)
(0.346995 3.06654 3.48993e-20)
(0.374291 3.47314 2.17648e-21)
(0.331131 3.53633 1.5145e-18)
(0.292124 3.55994 8.2677e-19)
(0.240892 3.58382 -3.61903e-19)
(0.179698 3.5788 -2.79785e-19)
(0.251267 0.260071 -2.16172e-19)
(0.969454 1.06486 -6.60996e-19)
(1.09793 1.23505 2.65079e-19)
(1.09224 1.26159 3.36851e-19)
(1.04101 1.24201 0)
(0.97829 1.21459 -1.43791e-18)
(0.907106 1.18376 -1.16396e-18)
(0.825317 1.15023 1.1886e-19)
(0.730351 1.11359 -2.06732e-19)
(0.617054 1.07321 -2.92281e-18)
(0.494111 1.03291 -2.77457e-18)
(0.377424 0.996712 -1.89246e-18)
(0.288062 1.05431 -1.95412e-18)
(0.337624 2.11436 1.98968e-18)
(0.436281 3.37318 1.75445e-18)
(0.421226 3.53747 0)
(0.370955 3.58269 0)
(0.33262 3.62507 -3.19996e-19)
(0.275446 3.68686 0)
(0.191861 3.65883 -4.84888e-19)
(0.240307 0.261352 2.79101e-19)
(0.963269 1.09043 5.04246e-19)
(1.08806 1.26117 0)
(1.08074 1.28675 1.17291e-20)
(1.02948 1.26676 7.28911e-19)
(0.967025 1.23921 -2.0221e-18)
(0.896166 1.20862 -7.31003e-19)
(0.814807 1.17574 1.06271e-19)
(0.720142 1.14053 -1.52808e-18)
(0.606929 1.10303 1.61107e-19)
(0.4836 1.06784 0)
(0.368202 1.04132 0)
(0.315929 1.27683 -1.87632e-18)