/*--------------------------------*- C++ -*----------------------------------*\
| =========                 |                                                 |
| \\      /  F ield         | OpenFOAM: The Open Source CFD Toolbox           |
|  \\    /   O peration     | Version:  2306                                  |
|   \\  /    A nd           | Website:  www.openfoam.com                      |
|    \\/     M anipulation  |                                                 |
\*---------------------------------------------------------------------------*/
FoamFile
{
    version     2.0;
    format      ascii;
    arch        "LSB;label=32;scalar=64";
    class       volScalarField;
    location    "63";
    object      p;
}
// * * * * * * * * * * * * * * * * * * * * * * * * * * * * * * * * * * * * * //

dimensions      [0 2 -2 0 0 0 0];

internalField   nonuniform List<scalar> 
8800
(
0.890915
0.842865
0.804489
0.775849
0.755227
0.740476
0.729878
0.722382
0.717555
0.71551
0.716815
0.72105
0.727743
0.737098
0.749867
0.767465
0.791916
0.825534
0.867984
0.925111
0.723442
0.730649
0.739088
0.742505
0.740591
0.73507
0.728361
0.722204
0.717456
0.714616
0.714362
0.71691
0.721452
0.727473
0.7344
0.741032
0.745173
0.744664
0.738607
0.729634
0.700142
0.706319
0.710519
0.713881
0.716384
0.717184
0.71608
0.713941
0.711918
0.711029
0.712027
0.714456
0.717316
0.719555
0.720104
0.718585
0.715747
0.712116
0.707585
0.703801
0.694993
0.697694
0.700416
0.702728
0.704376
0.705706
0.70662
0.706832
0.706582
0.706569
0.707356
0.708547
0.709365
0.709326
0.708548
0.707367
0.705628
0.703136
0.700715
0.699185
0.689781
0.691203
0.693004
0.695061
0.696816
0.698126
0.699158
0.700042
0.700736
0.70136
0.702044
0.702537
0.702598
0.702272
0.701595
0.700406
0.698721
0.69685
0.695532
0.694709
0.684748
0.685662
0.6869
0.688483
0.690139
0.691669
0.692949
0.694039
0.695056
0.69601
0.69674
0.697084
0.697056
0.69665
0.695801
0.694602
0.693265
0.692008
0.691191
0.690646
0.679848
0.680513
0.681472
0.682775
0.684194
0.685674
0.687131
0.688469
0.689699
0.690857
0.691732
0.692146
0.692103
0.691624
0.690827
0.689884
0.688884
0.68797
0.68739
0.686989
0.675055
0.675568
0.67635
0.67748
0.678762
0.680148
0.681617
0.683116
0.684579
0.685968
0.687039
0.687568
0.687586
0.687227
0.686642
0.685934
0.685178
0.684504
0.684075
0.683761
0.670304
0.670712
0.671367
0.672375
0.673586
0.674923
0.676386
0.677973
0.679639
0.6813
0.682619
0.68334
0.68355
0.683416
0.683061
0.682567
0.682015
0.681534
0.681216
0.680961
0.665511
0.665844
0.666411
0.66734
0.668503
0.669826
0.671326
0.673011
0.674868
0.676823
0.678464
0.679482
0.679974
0.680097
0.679975
0.679706
0.679349
0.679029
0.678795
0.678581
0.660589
0.660865
0.661371
0.662254
0.6634
0.66475
0.666324
0.668151
0.670239
0.672533
0.674582
0.675985
0.676814
0.67723
0.677362
0.67732
0.677157
0.676978
0.676812
0.676627
0.655449
0.65568
0.656148
0.657016
0.658185
0.659603
0.661295
0.663318
0.665703
0.668418
0.670965
0.672831
0.674054
0.674806
0.675223
0.675416
0.675449
0.6754
0.675289
0.675124
0.649998
0.650195
0.650644
0.651525
0.652758
0.65429
0.656156
0.658442
0.661205
0.664448
0.667599
0.670015
0.671699
0.672834
0.67357
0.674013
0.67426
0.674333
0.674269
0.674118
0.644135
0.644304
0.644751
0.645676
0.647014
0.64871
0.650816
0.653446
0.656689
0.660586
0.664468
0.66754
0.669767
0.671343
0.672444
0.67319
0.673646
0.673837
0.673814
0.67367
0.637742
0.637887
0.638346
0.639344
0.640834
0.642755
0.645178
0.648247
0.652094
0.656793
0.661561
0.665417
0.668287
0.670383
0.671898
0.672972
0.67367
0.673985
0.673999
0.673859
0.63068
0.6308
0.631286
0.632389
0.634082
0.636298
0.639125
0.642752
0.64735
0.653031
0.658868
0.66366
0.66729
0.67
0.672005
0.67346
0.674426
0.674867
0.674914
0.674775
0.622762
0.622863
0.623392
0.624636
0.626591
0.629178
0.632524
0.636851
0.642379
0.649257
0.656383
0.662293
0.666821
0.670252
0.672844
0.674742
0.676008
0.676584
0.676662
0.676519
0.613767
0.613869
0.614453
0.615854
0.618139
0.621212
0.625216
0.630421
0.6371
0.64544
0.654113
0.661349
0.666938
0.671215
0.674499
0.676917
0.678522
0.67924
0.679348
0.679197
0.603379
0.603461
0.604137
0.605762
0.608482
0.612175
0.61701
0.623318
0.631426
0.641549
0.652074
0.660869
0.667705
0.672978
0.677058
0.680087
0.682075
0.682941
0.683074
0.682912
0.591221
0.59129
0.592065
0.594005
0.597282
0.601771
0.607669
0.615375
0.625264
0.637559
0.650286
0.660908
0.669188
0.675623
0.680625
0.684362
0.686766
0.687781
0.687933
0.687757
0.576743
0.5768
0.577719
0.580075
0.58409
0.589627
0.596909
0.606406
0.61852
0.633454
0.648783
0.661523
0.671456
0.679219
0.685292
0.689821
0.692669
0.693824
0.693987
0.693792
0.559175
0.559222
0.560353
0.563294
0.568319
0.575272
0.5844
0.596227
0.611143
0.62927
0.647636
0.66279
0.674587
0.683852
0.691099
0.696517
0.699813
0.701087
0.701245
0.70103
0.537358
0.537403
0.538879
0.5427
0.54918
0.558127
0.569784
0.58469
0.603139
0.625098
0.646952
0.664797
0.678652
0.689565
0.698103
0.704448
0.708159
0.709507
0.709643
0.709407
0.509531
0.509597
0.511667
0.51691
0.525647
0.537528
0.552755
0.571755
0.594619
0.621102
0.64688
0.667645
0.683704
0.696369
0.706284
0.713538
0.717571
0.718924
0.719016
0.71876
0.472662
0.472832
0.476118
0.48398
0.496524
0.512896
0.533212
0.557588
0.585849
0.617539
0.647607
0.671452
0.689795
0.704269
0.715568
0.723607
0.7278
0.729061
0.729086
0.728815
0.42093
0.421931
0.42847
0.441723
0.460887
0.484202
0.511537
0.5427
0.577313
0.614778
0.649366
0.676342
0.696962
0.713167
0.725766
0.734359
0.73847
0.739536
0.739483
0.739204
0.345584
0.352933
0.367995
0.391241
0.420271
0.452874
0.48877
0.527734
0.569389
0.613115
0.652541
0.682862
0.705932
0.724027
0.737844
0.746769
0.750646
0.751496
0.751396
0.751152
0.264926
0.281802
0.306181
0.340173
0.37951
0.421534
0.466051
0.512999
0.562078
0.612723
0.657871
0.692331
0.718374
0.738699
0.753876
0.762814
0.766126
0.766704
0.766633
0.766475
0.197038
0.217072
0.24925
0.292422
0.340881
0.391783
0.444676
0.49947
0.555844
0.613217
0.663805
0.702116
0.730903
0.753093
0.769062
0.777657
0.780522
0.781023
0.781011
0.780901
0.141409
0.163307
0.200965
0.25062
0.306258
0.364648
0.424975
0.486996
0.550239
0.614027
0.669796
0.711728
0.743008
0.766827
0.783535
0.792176
0.794867
0.795382
0.795412
0.795328
0.0952434
0.118364
0.159797
0.214595
0.275987
0.340555
0.407245
0.475677
0.545217
0.61504
0.675755
0.721145
0.754813
0.78025
0.797839
0.806726
0.809609
0.810044
0.810084
0.810025
0.0561034
0.0799182
0.124231
0.183073
0.249319
0.319143
0.39136
0.465503
0.540799
0.616258
0.681676
0.730402
0.766421
0.793452
0.812052
0.821424
0.824438
0.824909
0.824966
0.824931
0.0219587
0.0462195
0.0928069
0.154999
0.225348
0.299758
0.376891
0.456187
0.536769
0.617511
0.687418
0.73937
0.777679
0.806309
0.825815
0.835811
0.839087
0.8396
0.839665
0.839649
-0.00869051
0.0159548
0.0643973
0.129451
0.203341
0.281776
0.36332
0.447325
0.532832
0.618586
0.692802
0.74787
0.788375
0.818543
0.838978
0.849515
0.853082
0.853696
0.853757
0.853752
-0.0368258
-0.0118396
0.0381924
0.105712
0.182714
0.264721
0.350244
0.438583
0.528714
0.619251
0.697632
0.755713
0.798316
0.829887
0.851236
0.862284
0.866104
0.86683
0.866873
0.866865
-0.063248
-0.0378792
0.0136042
0.0832449
0.163039
0.248238
0.337362
0.429693
0.524167
0.619305
0.701772
0.762802
0.807432
0.840356
0.862454
0.873888
0.87791
0.8787
0.878728
0.878707
-0.0883462
-0.0625881
-0.00983546
0.0617105
0.144003
0.232063
0.32445
0.420461
0.51903
0.618626
0.705142
0.769107
0.815712
0.849874
0.872533
0.884279
0.888421
0.889237
0.889242
0.8892
-0.112556
-0.0863109
-0.032545
0.0408742
0.125383
0.216008
0.311363
0.410768
0.51319
0.617103
0.707673
0.774635
0.823202
0.858506
0.881677
0.893544
0.89768
0.898515
0.898485
0.898423
-0.136014
-0.109314
-0.0545171
0.0205618
0.107042
0.19997
0.298013
0.400535
0.506566
0.614664
0.709328
0.779404
0.830014
0.866418
0.889948
0.901788
0.905901
0.906684
0.906633
0.906549
-0.158867
-0.13169
-0.0758572
0.000667789
0.0889136
0.1839
0.284356
0.389717
0.499114
0.61125
0.710057
0.783438
0.836248
0.873775
0.897545
0.909229
0.913178
0.913885
0.913809
0.913706
-0.181241
-0.153517
-0.0966909
-0.0188504
0.0709622
0.167783
0.270397
0.378325
0.490824
0.606813
0.709807
0.786742
0.842023
0.88077
0.904654
0.915985
0.91965
0.920238
0.920121
0.919999
-0.203174
-0.174813
-0.117071
-0.0380028
0.053208
0.151637
0.256167
0.366387
0.481708
0.601321
0.708517
0.789288
0.847419
0.887589
0.911489
0.92222
0.925405
0.925807
0.925655
0.925527
-0.224518
-0.195554
-0.136928
-0.0567705
0.0356732
0.135517
0.241716
0.353966
0.471814
0.594787
0.706113
0.791004
0.85245
0.894444
0.918384
0.928194
0.930585
0.930683
0.930499
0.93038
-0.245254
-0.215716
-0.156259
-0.0751119
0.0184063
0.119475
0.227129
0.341131
0.461211
0.587227
0.702538
0.791772
0.857054
0.901473
0.925779
0.934445
0.935517
0.934971
0.934698
0.934632
-0.26545
-0.235262
-0.175048
-0.0930062
0.00146394
0.103587
0.212485
0.327979
0.449984
0.578696
0.697733
0.791442
0.861063
0.90864
0.934095
0.941886
0.941085
0.93909
0.938463
0.938673
-0.284942
-0.254185
-0.193236
-0.110397
-0.0151011
0.0879345
0.197876
0.314615
0.43824
0.569281
0.691672
0.789835
0.864206
0.915624
0.943397
0.95157
0.949259
0.944837
0.942339
0.94207
-0.30382
-0.272483
-0.210843
-0.127316
-0.0313227
0.0724756
0.18325
0.300986
0.425915
0.558913
0.684216
0.786678
0.866195
0.921935
0.953108
0.963885
0.962432
0.955532
0.947168
0.938507
-0.322014
-0.290136
-0.227994
-0.143963
-0.047484
0.0568865
0.168199
0.286619
0.412487
0.546975
0.674744
0.781217
0.866541
0.926955
0.961645
0.976815
0.976889
0.964889
0.944414
0.938927
-0.339352
-0.307163
-0.244512
-0.160157
-0.0632662
0.0414868
0.152938
0.271834
0.398251
0.533709
0.663307
0.772883
0.864396
0.929513
0.964898
0.980169
0.982552
0.956935
0.891271
0.86256
-0.355368
-0.324841
-0.260025
-0.175423
-0.0778364
0.0267872
0.13778
0.256883
0.383454
0.519258
0.649872
0.761287
0.858403
0.928774
0.958135
0.968062
0.954579
0.899158
0.830595
0.78913
-0.404712
-0.341414
-0.274065
-0.190707
-0.0925405
0.0114943
0.122749
0.241539
0.367771
0.503186
0.63385
0.745831
0.844527
0.92147
0.930995
0.925201
0.873354
0.802112
0.725203
0.682787
-0.371923
-0.355136
-0.29514
-0.210669
-0.114782
-0.0108628
0.099483
0.217604
0.342846
0.476826
0.605721
0.716221
0.806658
0.890206
0.875225
0.758916
0.653955
0.580154
0.506954
0.537752
-0.402873
-0.372907
-0.311699
-0.228171
-0.132159
-0.0283276
0.0822273
0.199703
0.323894
0.456108
0.582278
0.688891
0.769372
0.814585
0.764484
0.613473
0.486585
0.395659
0.298341
0.347823
-0.426356
-0.394004
-0.331134
-0.247522
-0.151427
-0.0476563
0.0627927
0.17944
0.302233
0.432042
0.554432
0.654815
0.72592
0.734829
0.626752
0.45536
0.305369
0.188157
0.0605424
0.0956308
-0.449342
-0.415646
-0.351491
-0.267019
-0.170881
-0.0672724
0.0426522
0.158328
0.279512
0.406505
0.524118
0.616522
0.671977
0.64889
0.488769
0.294779
0.110341
-0.053069
-0.236685
-0.246333
-0.47184
-0.437698
-0.372656
-0.287449
-0.191182
-0.0878098
0.0214563
0.136024
0.255329
0.379095
0.491181
0.575647
0.610973
0.550962
0.357347
0.14766
-0.0624407
-0.240343
-0.485798
-0.745894
-0.494676
-0.460502
-0.39495
-0.309271
-0.212828
-0.109631
-0.000957384
0.112466
0.229774
0.350048
0.45627
0.532074
0.545531
0.434377
0.242147
0.030333
-0.173265
-0.337276
-0.414891
-0.521802
-0.518811
-0.484524
-0.418697
-0.332787
-0.236309
-0.133382
-0.0253964
0.0867063
0.201689
0.317939
0.417873
0.482296
0.470477
0.324877
0.138775
-0.0565089
-0.224301
-0.316116
-0.339438
-0.355617
-0.544507
-0.510071
-0.444062
-0.358078
-0.261753
-0.159274
-0.052218
0.0582589
0.170486
0.282039
0.3752
0.425
0.394676
0.222607
0.0447088
-0.125859
-0.254513
-0.29334
-0.305315
-0.306532
-0.571973
-0.53731
-0.471105
-0.385143
-0.289111
-0.18731
-0.081441
0.0270744
0.1361
0.242342
0.32785
0.362398
0.310967
0.128501
-0.040417
-0.191763
-0.269142
-0.286336
-0.287215
-0.286975
-0.601268
-0.566302
-0.499849
-0.413984
-0.318404
-0.21748
-0.11307
-0.00686134
0.0985494
0.198934
0.275817
0.298188
0.210835
0.0427466
-0.117919
-0.241061
-0.278742
-0.27668
-0.276105
-0.275495
-0.6321
-0.596876
-0.530193
-0.444516
-0.349543
-0.249731
-0.147076
-0.0435218
0.0578811
0.151934
0.22001
0.225496
0.119737
-0.0366843
-0.178931
-0.255327
-0.265897
-0.268429
-0.268876
-0.268603
-0.66393
-0.628567
-0.561896
-0.47651
-0.382345
-0.283907
-0.183305
-0.0827778
0.0142967
0.101692
0.161059
0.151307
0.0373474
-0.103961
-0.220981
-0.259911
-0.264347
-0.264245
-0.263838
-0.263541
-0.696282
-0.660795
-0.594517
-0.509569
-0.416471
-0.31969
-0.221476
-0.124345
-0.0319133
0.0489719
0.0978661
0.0800003
-0.0383854
-0.158185
-0.248222
-0.261129
-0.259112
-0.260029
-0.260331
-0.2601
-0.72828
-0.692861
-0.627132
-0.543117
-0.451377
-0.356607
-0.261138
-0.167741
-0.0803108
-0.00547654
0.0331832
0.0140292
-0.105862
-0.198784
-0.250125
-0.261506
-0.260357
-0.25961
-0.259178
-0.259006
-0.758353
-0.723672
-0.658783
-0.576216
-0.486299
-0.393964
-0.301642
-0.212261
-0.130134
-0.0610517
-0.0264107
-0.0577235
-0.163176
-0.2422
-0.245069
-0.257751
-0.260429
-0.258873
-0.258151
-0.257854
-0.784885
-0.751307
-0.688398
-0.607671
-0.520194
-0.430834
-0.342134
-0.257038
-0.180214
-0.116948
-0.0826304
-0.123598
-0.213242
-0.282184
-0.29458
-0.279753
-0.267227
-0.259977
-0.257909
-0.257195
-0.805768
-0.773874
-0.713867
-0.636094
-0.551792
-0.466073
-0.381544
-0.301066
-0.229323
-0.171852
-0.13943
-0.174059
-0.246234
-0.331722
-0.360089
-0.311937
-0.280828
-0.268889
-0.264708
-0.262835
-0.818762
-0.789549
-0.733269
-0.659583
-0.579603
-0.498359
-0.418671
-0.343199
-0.276374
-0.224006
-0.192407
-0.209811
-0.239428
-0.308978
-0.298712
-0.299783
-0.303384
-0.298995
-0.292672
-0.290939
-0.821194
-0.795986
-0.744679
-0.676336
-0.601931
-0.526387
-0.452203
-0.382254
-0.320337
-0.272316
-0.234692
-0.233082
-0.188825
-0.189156
-0.214589
-0.253272
-0.275836
-0.282162
-0.284708
-0.286176
-0.810942
-0.790592
-0.745928
-0.684742
-0.617302
-0.548565
-0.480877
-0.416954
-0.360393
-0.316498
-0.269369
-0.258376
-0.171964
-0.0356034
-0.131244
-0.225259
-0.266209
-0.282539
-0.289689
-0.29191
-0.785728
-0.77048
-0.735164
-0.683561
-0.624711
-0.563912
-0.503501
-0.445994
-0.395421
-0.356405
-0.310075
-0.318206
-0.323268
-0.261374
-0.311409
-0.350831
-0.358673
-0.359666
-0.360728
-0.362217
-0.748255
-0.738431
-0.713174
-0.672907
-0.624097
-0.572092
-0.519299
-0.468291
-0.423487
-0.391085
-0.370525
-0.435512
-0.640158
-0.933175
-0.918713
-0.670913
-0.51132
-0.447887
-0.430612
-0.426129
-0.705282
-0.699718
-0.684751
-0.655553
-0.617255
-0.573779
-0.528066
-0.482921
-0.442359
-0.415012
-0.398161
-0.460154
-0.516705
-0.612019
-0.562609
-0.414242
-0.339094
-0.315402
-0.300711
-0.294668
-0.666482
-0.663176
-0.655999
-0.636777
-0.607104
-0.570599
-0.530839
-0.489163
-0.449958
-0.417694
-0.400264
-0.329983
-0.14445
0.107839
0.263032
0.173235
0.0295325
-0.0793472
-0.111097
-0.117958
-0.638301
-0.636305
-0.632602
-0.620728
-0.597413
-0.5657
-0.529212
-0.488876
-0.446952
-0.407443
-0.384918
-0.31845
-0.220854
-0.168992
-0.26342
-0.466832
-0.608389
-0.602026
-0.516998
-0.492349
-0.616488
-0.615722
-0.614485
-0.608566
-0.590869
-0.562205
-0.526041
-0.484618
-0.438527
-0.394002
-0.362192
-0.348641
-0.349777
-0.465405
-0.600826
-0.709988
-0.817197
-0.824286
-0.759476
-0.716936
-0.603666
-0.603377
-0.602754
-0.600019
-0.58735
-0.560051
-0.522319
-0.47738
-0.426861
-0.368105
-0.32161
-0.28131
-0.293207
-0.372868
-0.549614
-0.659456
-0.622664
-0.48807
-0.358095
-0.296246
-0.594921
-0.594741
-0.594202
-0.593291
-0.585625
-0.559984
-0.519889
-0.470176
-0.410746
-0.33833
-0.265639
-0.164226
-0.0442105
0.0424078
0.138784
0.23897
0.414186
0.618546
0.749546
0.800051
-0.589924
-0.589633
-0.588857
-0.588424
-0.584946
-0.562947
-0.51984
-0.46376
-0.395298
-0.313041
-0.206005
-0.0822324
0.122511
0.408515
0.745601
1.08803
1.3835
1.58792
1.69289
1.72526
-0.58854
-0.588881
-0.589987
-0.591399
-0.591128
-0.569164
-0.52162
-0.460006
-0.385546
-0.289191
-0.174521
-0.060233
0.16326
0.507263
0.932701
1.32063
1.62834
1.81479
1.89438
1.91418
-0.583821
-0.585293
-0.589022
-0.594608
-0.595697
-0.57204
-0.524759
-0.463556
-0.383534
-0.281717
-0.167598
-0.0516424
0.10686
0.450318
0.82455
1.15805
1.41071
1.55215
1.60941
1.62236
-0.587327
-0.587283
-0.581096
-0.566395
-0.553326
-0.550867
-0.529834
-0.475223
-0.389691
-0.2854
-0.174892
-0.0664886
0.0501146
0.315336
0.615149
0.867963
1.05379
1.15197
1.18977
1.19681
-0.627826
-0.623536
-0.603636
-0.564474
-0.53879
-0.554766
-0.55688
-0.497276
-0.402527
-0.294092
-0.188575
-0.0910246
-0.00450121
0.182701
0.399367
0.577443
0.705221
0.769338
0.792697
0.795569
-0.715101
-0.716226
-0.727904
-0.746129
-0.740697
-0.72322
-0.65506
-0.537297
-0.417689
-0.301053
-0.202025
-0.120037
-0.0507154
0.0814822
0.222254
0.333936
0.411613
0.449484
0.462748
0.4647
-0.856791
-0.877522
-0.926404
-0.966992
-0.964895
-0.912729
-0.75884
-0.580062
-0.428289
-0.305858
-0.214298
-0.144406
-0.0905957
-0.0013695
0.0874169
0.148788
0.184244
0.200278
0.206347
0.207298
-0.915959
-0.940202
-0.979549
-1.01023
-1.00736
-0.943946
-0.770494
-0.574153
-0.416103
-0.297106
-0.217976
-0.163588
-0.122345
-0.0620243
-0.0136692
0.0161395
0.0281689
0.0308794
0.0345009
0.0360507
-0.777439
-0.798965
-0.835622
-0.86879
-0.869691
-0.800901
-0.644635
-0.492347
-0.364377
-0.268767
-0.208468
-0.172466
-0.147626
-0.0992245
-0.0656254
-0.0497606
-0.0461222
-0.0444647
-0.0418172
-0.0403383
-0.458958
-0.476006
-0.506791
-0.540662
-0.555561
-0.520179
-0.440234
-0.354751
-0.280429
-0.22144
-0.18488
-0.170275
-0.160011
-0.121798
-0.0896246
-0.070073
-0.0604993
-0.0551338
-0.0526069
-0.0521456
-0.117386
-0.126408
-0.146406
-0.176954
-0.206359
-0.219171
-0.22045
-0.207202
-0.186823
-0.163108
-0.149084
-0.150612
-0.147874
-0.110204
-0.0790786
-0.0588162
-0.0453184
-0.0377027
-0.0348302
-0.0351353
0.109498
0.104959
0.0911739
0.0637399
0.0224768
-0.0248285
-0.0625342
-0.0888057
-0.101331
-0.10306
-0.102974
-0.107821
-0.104186
-0.0729637
-0.0474515
-0.031106
-0.0205221
-0.0150909
-0.013409
-0.013945
0.204307
0.201829
0.191878
0.168394
0.128997
0.0795735
0.0309891
-0.00899563
-0.0355484
-0.0485378
-0.050852
-0.0478497
-0.0368954
-0.0219546
-0.0115469
-0.00385669
0.00265418
0.00657078
0.00738661
0.00662056
0.218987
0.217339
0.210303
0.192876
0.162521
0.122793
0.0802737
0.0417225
0.0127194
-0.00254052
-0.00222189
0.0110084
0.0274297
0.0301137
0.027699
0.0270373
0.0279249
0.0287941
0.0284858
0.0275491
0.200042
0.199013
0.194413
0.18271
0.161815
0.133311
0.100684
0.0693815
0.0444309
0.0314734
0.0359431
0.0529678
0.0702569
0.0649699
0.0559495
0.0508151
0.0491185
0.048483
0.0475409
0.0465265
0.171175
0.170599
0.16778
0.16037
0.146722
0.127359
0.104065
0.0807007
0.0618196
0.0531385
0.060171
0.0776474
0.0910131
0.0818808
0.0714539
0.0660972
0.0630877
0.0611774
0.0595946
0.0585558
0.141173
0.140969
0.139364
0.134889
0.126322
0.113725
0.0980364
0.0817805
0.0685091
0.06322
0.0711576
0.086286
0.0948386
0.08449
0.0752722
0.069434
0.0664929
0.0640705
0.0623566
0.0615486
0.113214
0.11308
0.112188
0.109586
0.104357
0.0964002
0.0861556
0.0753201
0.0665348
0.0638211
0.0713885
0.0827116
0.0872245
0.076515
0.070053
0.0660863
0.063515
0.0610322
0.0595401
0.0589131
0.0874496
0.0874556
0.0869987
0.0855706
0.082525
0.0776919
0.0712652
0.0643151
0.0586541
0.0571667
0.0626828
0.0711378
0.07301
0.0638873
0.0582903
0.0565602
0.0555691
0.0542519
0.053263
0.0526982
0.0638636
0.0639105
0.0637297
0.0630505
0.0614501
0.0587055
0.0548523
0.0505219
0.0467432
0.0452601
0.0468926
0.049362
0.0477158
0.0406012
0.0404516
0.0422026
0.0433052
0.04324
0.0427441
0.0422047
0.042267
0.0423228
0.0422862
0.0420368
0.0413117
0.0399133
0.0377811
0.0351638
0.0327456
0.0305184
0.0274258
0.0208439
0.0149018
0.0135873
0.0193816
0.0248359
0.0275206
0.0281939
0.0279919
0.0275402
0.0224464
0.0225032
0.0225447
0.0225315
0.0223057
0.0217621
0.0208623
0.0197409
0.018032
0.0160453
0.00989496
-0.00341138
-0.0143348
-0.00805299
0.00184062
0.00942711
0.0121845
0.0125296
0.0122545
0.0119474
0.00412385
0.00416466
0.00414391
0.00422551
0.00444617
0.00456105
0.00449743
0.00428719
0.0039363
0.00340721
0.00203858
-0.00216749
-0.00736227
-0.0044772
-0.00203516
-0.00161601
-0.00215036
-0.00236365
-0.000821457
0.000165694
-0.0510445
0.136252
0.336095
0.503611
0.636867
0.741405
0.828066
0.900995
0.931071
0.914958
0.272109
0.394903
0.523216
0.633799
0.726676
0.803468
0.865263
0.908629
0.931174
0.944106
0.490157
0.57323
0.660388
0.737807
0.80412
0.859494
0.903376
0.935729
0.959553
0.977485
0.648881
0.707903
0.768895
0.825475
0.874467
0.915983
0.95013
0.977757
1.00025
1.01855
0.773245
0.815513
0.862289
0.905167
0.943475
0.976946
1.00565
1.02987
1.04965
1.06761
0.876535
0.909412
0.947674
0.982903
1.01522
1.04431
1.06982
1.09147
1.10849
1.12609
0.968746
0.997516
1.03141
1.06348
1.09329
1.1204
1.14418
1.16399
1.17858
1.19603
1.05711
1.08646
1.12034
1.15241
1.18195
1.2085
1.23139
1.2498
1.26243
1.27989
1.1523
1.18583
1.22219
1.25585
1.28584
1.31195
1.33382
1.35088
1.36231
1.3801
1.2671
1.30563
1.34381
1.37798
1.40719
1.43183
1.45209
1.46777
1.47908
1.49742
1.41175
1.45121
1.48673
1.5171
1.54264
1.56467
1.58366
1.59917
1.6118
1.62993
1.58644
1.61848
1.64424
1.66656
1.68659
1.70531
1.72293
1.73947
1.7552
1.77339
1.77401
1.79156
1.80708
1.82365
1.8398
1.85433
1.86735
1.88132
1.8984
1.91807
1.95559
1.96655
1.97869
1.98947
1.99872
2.00828
2.01915
2.03074
2.04068
2.05585
2.16659
2.1686
2.15345
2.13822
2.13183
2.13749
2.15609
2.1865
2.21864
2.24938
2.4725
2.33546
2.25916
2.21705
2.1996
2.20364
2.23099
2.28714
2.39059
2.60587
0.787204
0.783829
0.777904
0.7681
0.755161
0.742743
0.73244
0.724507
0.71887
0.715614
0.715276
0.718047
0.723193
0.730465
0.739918
0.751617
0.764755
0.776751
0.78421
0.788932
0.705209
0.711095
0.718001
0.723242
0.726092
0.725769
0.722872
0.718962
0.715415
0.713151
0.713022
0.715254
0.718967
0.723343
0.727305
0.729317
0.728211
0.724126
0.718236
0.711193
0.697538
0.699885
0.703236
0.706145
0.708365
0.710171
0.711139
0.710896
0.709883
0.709011
0.709208
0.710663
0.712504
0.713803
0.713862
0.712701
0.710901
0.708564
0.705412
0.702451
0.692372
0.693459
0.695325
0.697709
0.699673
0.70107
0.702174
0.703046
0.703533
0.703805
0.704328
0.705145
0.705714
0.705702
0.705195
0.704333
0.702937
0.700887
0.698779
0.697367
0.687247
0.687902
0.689011
0.690734
0.692543
0.694165
0.695439
0.69648
0.697421
0.698272
0.69904
0.699596
0.69977
0.699589
0.699046
0.698029
0.6966
0.695035
0.693716
0.692934
0.682284
0.682739
0.683523
0.684821
0.686319
0.687858
0.689334
0.690634
0.691789
0.692884
0.693838
0.69443
0.694594
0.694347
0.693671
0.69268
0.69155
0.69042
0.689514
0.688995
0.677444
0.677784
0.678394
0.679462
0.680756
0.68214
0.683599
0.685063
0.686454
0.687763
0.688913
0.689645
0.689857
0.689606
0.689016
0.688245
0.687404
0.686548
0.685883
0.685503
0.672682
0.672947
0.673439
0.674349
0.67552
0.676822
0.678229
0.67974
0.681307
0.682862
0.684257
0.685173
0.685511
0.685414
0.685038
0.684494
0.68386
0.683232
0.682747
0.682457
0.667922
0.668132
0.668541
0.669341
0.670433
0.671688
0.673085
0.67464
0.676344
0.678143
0.67983
0.68101
0.681589
0.681738
0.681599
0.681279
0.680853
0.680417
0.680072
0.679845
0.663075
0.663245
0.663596
0.664323
0.665369
0.666604
0.668031
0.669671
0.671532
0.67359
0.675626
0.677168
0.678075
0.678516
0.678633
0.678544
0.678332
0.67807
0.677842
0.677661
0.658055
0.658192
0.658502
0.659185
0.660215
0.661476
0.66297
0.664739
0.666813
0.669185
0.671646
0.673639
0.67494
0.67572
0.676126
0.676286
0.676286
0.676193
0.676063
0.675918
0.652772
0.652882
0.653164
0.653828
0.654877
0.656208
0.657815
0.659767
0.662121
0.664892
0.667877
0.670413
0.672178
0.673349
0.674084
0.674514
0.674734
0.674812
0.674769
0.67465
0.647129
0.647216
0.647483
0.648152
0.649256
0.650699
0.652474
0.654675
0.657389
0.660665
0.664294
0.667479
0.669794
0.671418
0.672524
0.67327
0.673738
0.673975
0.674009
0.673911
0.641017
0.641083
0.641343
0.642041
0.643238
0.64484
0.646846
0.649378
0.652551
0.656456
0.66087
0.664838
0.667805
0.669961
0.671494
0.672594
0.673333
0.673745
0.673851
0.673771
0.634306
0.634352
0.634614
0.635363
0.636693
0.638511
0.640822
0.643776
0.647529
0.652212
0.657581
0.662488
0.666232
0.669017
0.671051
0.672546
0.673601
0.674201
0.67438
0.674313
0.62684
0.62687
0.627137
0.627958
0.629466
0.631567
0.634266
0.637756
0.642235
0.647874
0.654403
0.660438
0.665102
0.668629
0.671258
0.673229
0.674639
0.67544
0.67569
0.675633
0.618421
0.618436
0.618709
0.619628
0.621372
0.623815
0.627017
0.631187
0.636569
0.643384
0.651317
0.658701
0.664458
0.668856
0.672188
0.674724
0.676538
0.677564
0.677886
0.677837
0.608745
0.608731
0.609062
0.610124
0.612146
0.615049
0.618889
0.623914
0.630424
0.638685
0.648318
0.657304
0.664349
0.669774
0.67393
0.677127
0.679411
0.68068
0.681075
0.681028
0.597513
0.597475
0.597852
0.599107
0.601503
0.604994
0.609645
0.615752
0.623674
0.633719
0.6454
0.656282
0.664832
0.671459
0.67658
0.680538
0.683359
0.68489
0.685354
0.685307
0.584243
0.584179
0.584635
0.586143
0.589025
0.593284
0.598985
0.606481
0.616187
0.628428
0.642568
0.655676
0.665969
0.673979
0.680224
0.685059
0.688479
0.69028
0.690806
0.690753
0.568282
0.56819
0.568771
0.570632
0.574165
0.579449
0.586544
0.595852
0.607829
0.622781
0.639854
0.655549
0.667831
0.677412
0.684932
0.690758
0.694829
0.696897
0.697469
0.697403
0.548687
0.548569
0.549353
0.551728
0.556177
0.562886
0.571884
0.583609
0.598509
0.616805
0.63734
0.655984
0.670499
0.68183
0.690749
0.697679
0.702423
0.704729
0.705321
0.705234
0.524031
0.523901
0.525021
0.528193
0.534026
0.542822
0.55452
0.569535
0.588214
0.610602
0.635162
0.657099
0.674049
0.687279
0.697713
0.705808
0.711196
0.713672
0.714248
0.714133
0.491997
0.491893
0.493623
0.498173
0.506313
0.518363
0.534026
0.553559
0.577072
0.604371
0.633505
0.659027
0.678558
0.693791
0.705808
0.715068
0.720979
0.723514
0.724024
0.723875
0.448424
0.448489
0.451555
0.458975
0.471407
0.488767
0.510301
0.535924
0.565452
0.598473
0.632646
0.66194
0.684116
0.701367
0.714947
0.725278
0.731477
0.7339
0.734296
0.734112
0.385526
0.386738
0.394213
0.408112
0.428387
0.454194
0.483987
0.517353
0.553987
0.59338
0.632873
0.665989
0.690762
0.709947
0.724938
0.736036
0.742227
0.744306
0.744537
0.744334
0.310729
0.312812
0.327213
0.351099
0.382246
0.418017
0.456797
0.498399
0.542632
0.589025
0.634646
0.672444
0.70053
0.722144
0.7388
0.750601
0.756585
0.758383
0.75857
0.75846
0.233814
0.240239
0.261645
0.295739
0.337333
0.382801
0.430543
0.480434
0.532349
0.585846
0.637753
0.680362
0.711819
0.735905
0.754359
0.766549
0.771918
0.773233
0.773353
0.773313
0.171007
0.179576
0.205508
0.246678
0.296465
0.350192
0.406032
0.463707
0.522981
0.583335
0.641262
0.688395
0.722968
0.749214
0.768823
0.78118
0.78634
0.787527
0.787654
0.787668
0.119817
0.129
0.158476
0.20488
0.260822
0.321193
0.383885
0.448433
0.514423
0.581199
0.644855
0.696301
0.733798
0.762069
0.782957
0.795737
0.800724
0.801983
0.802218
0.802281
0.0770134
0.0864645
0.118379
0.168789
0.229782
0.29567
0.364154
0.434697
0.506735
0.579463
0.648537
0.704111
0.744436
0.774683
0.796813
0.810131
0.8154
0.816879
0.817134
0.817215
0.0401917
0.0497441
0.0834793
0.137097
0.202279
0.272881
0.346424
0.422291
0.499809
0.578036
0.652221
0.711756
0.754834
0.787051
0.810505
0.824557
0.830236
0.831831
0.832079
0.832154
0.00767047
0.0172539
0.0523849
0.108719
0.17741
0.252084
0.330114
0.410775
0.493314
0.576676
0.655725
0.719072
0.764811
0.798926
0.823612
0.838498
0.844622
0.846366
0.846633
0.8467
-0.0218321
-0.0122094
0.0240668
0.0827452
0.15444
0.232683
0.314705
0.399728
0.486923
0.575139
0.658847
0.725872
0.774174
0.810072
0.835971
0.851569
0.85819
0.860056
0.860323
0.860369
-0.0492002
-0.0395367
-0.00225619
0.0584525
0.132816
0.214227
0.299826
0.388828
0.480354
0.573172
0.661385
0.731994
0.782773
0.820382
0.847359
0.863613
0.870635
0.872602
0.872862
0.872878
-0.0750122
-0.0652779
-0.0270582
0.0353541
0.112133
0.196376
0.285197
0.377831
0.473383
0.57059
0.663209
0.737366
0.790568
0.829804
0.857764
0.874477
0.881755
0.883821
0.884071
0.884051
-0.0997445
-0.0898677
-0.0507803
0.0131549
0.092116
0.178883
0.270613
0.366566
0.465876
0.567271
0.664219
0.741948
0.797571
0.838359
0.867183
0.884247
0.891657
0.893706
0.893964
0.893919
-0.123676
-0.113587
-0.0737783
-0.00832727
0.0725737
0.161587
0.255945
0.354934
0.45773
0.56312
0.664344
0.745712
0.80383
0.846154
0.875731
0.893002
0.900389
0.902429
0.902647
0.902585
-0.146917
-0.136632
-0.0960825
-0.0292285
0.0533814
0.144412
0.241127
0.342871
0.448886
0.558064
0.66352
0.748653
0.809412
0.853334
0.883563
0.900902
0.908178
0.910127
0.910299
0.91021
-0.169645
-0.159079
-0.117773
-0.0496474
0.034483
0.127311
0.226131
0.330357
0.439327
0.552073
0.661689
0.750747
0.81438
0.860048
0.8909
0.908138
0.915153
0.916944
0.91706
0.916949
-0.191818
-0.180991
-0.138966
-0.0696411
0.0158654
0.110286
0.210977
0.317419
0.429064
0.545123
0.658798
0.751946
0.818785
0.866452
0.897924
0.914864
0.921431
0.922976
0.923005
0.922871
-0.213511
-0.202378
-0.159599
-0.0891983
-0.00245998
0.093361
0.195697
0.304105
0.418139
0.537229
0.654804
0.752182
0.822613
0.872673
0.904896
0.921334
0.927135
0.928273
0.9282
0.928058
-0.234554
-0.223195
-0.179665
-0.108281
-0.0204536
0.0765989
0.180351
0.290479
0.406618
0.52844
0.649676
0.751367
0.825794
0.878783
0.912125
0.927958
0.932586
0.932986
0.932721
0.932566
-0.255083
-0.243391
-0.199156
-0.126881
-0.038089
0.0600338
0.165026
0.276615
0.394581
0.518826
0.643412
0.749391
0.828186
0.884727
0.919863
0.935363
0.938455
0.937454
0.936687
0.93657
-0.274945
-0.262945
-0.21805
-0.144954
-0.0552941
0.0437463
0.149799
0.262631
0.382133
0.508449
0.636043
0.746143
0.82959
0.890286
0.928113
0.944234
0.946078
0.942902
0.940588
0.939867
-0.294194
-0.281905
-0.236296
-0.162451
-0.0720364
0.0278025
0.134754
0.248603
0.369381
0.497438
0.627629
0.741507
0.829767
0.895073
0.936384
0.954718
0.957011
0.952255
0.945972
0.937419
-0.312754
-0.300233
-0.253973
-0.179531
-0.088527
0.011934
0.119563
0.234142
0.355891
0.485309
0.617667
0.734946
0.82828
0.898806
0.944077
0.966224
0.971708
0.966745
0.95603
0.952561
-0.330576
-0.317921
-0.271076
-0.196161
-0.104764
-0.00383555
0.104244
0.219229
0.341623
0.47194
0.605958
0.726037
0.824338
0.900692