/*--------------------------------*- C++ -*----------------------------------*\
| =========                 |                                                 |
| \\      /  F ield         | OpenFOAM: The Open Source CFD Toolbox           |
|  \\    /   O peration     | Version:  2306                                  |
|   \\  /    A nd           | Website:  www.openfoam.com                      |
|    \\/     M anipulation  |                                                 |
\*---------------------------------------------------------------------------*/
FoamFile
{
    version     2.0;
    format      ascii;
    arch        "LSB;label=32;scalar=64";
    class       surfaceScalarField;
    location    "63";
    object      phi;
}
// * * * * * * * * * * * * * * * * * * * * * * * * * * * * * * * * * * * * * //

dimensions      [0 3 -1 0 0 0 0];

oriented        oriented;

internalField   nonuniform List<scalar> 
17370
(
-0.0910984
0.0935445
0.286565
-0.0749533
0.0569529
0.364776
-0.0409358
0.0299517
0.427152
-0.0211969
0.015597
0.504852
-0.0113479
0.0086494
0.602101
-0.00651814
0.00506612
0.72051
-0.00384748
0.00297601
0.863778
-0.002208
0.00163208
1.03603
-0.00110163
0.000680986
1.24292
-0.000270022
-0.000124231
1.49159
0.000510723
-0.000924972
1.49161
0.00132934
-0.00183267
1.24319
0.00237997
-0.00311638
1.03637
0.00396317
-0.0051626
0.864106
0.00660408
-0.00872794
0.721181
0.0114197
-0.0156596
0.603455
0.0212498
-0.0299932
0.508183
0.0409664
-0.0569742
0.432176
0.0749699
-0.0935541
0.36536
0.091112
0.197899
-0.127348
0.0881467
0.0392015
-0.364738
0.353792
-0.0726262
0.083572
-0.446566
0.454371
-0.0817048
0.0739003
-0.520972
0.529527
-0.0657903
0.0572356
-0.612851
0.621018
-0.0494833
0.0413164
-0.727003
0.733792
-0.0343886
0.0275996
-0.867515
0.872454
-0.0222562
0.0173178
-1.03855
1.04191
-0.0135962
0.0102412
-1.24471
1.24713
-0.00768354
0.00526896
-1.49284
1.49486
-0.00329915
0.0012798
-1.49269
1.49451
0.000542362
-0.00236553
-1.2441
1.24602
0.00434346
-0.00625974
-1.0376
1.04008
0.00860233
-0.0110861
-0.866158
0.869805
0.0143559
-0.0180027
-0.724478
0.729768
0.0228697
-0.0281595
-0.608886
0.615771
0.0348985
-0.0417831
-0.514988
0.522694
0.049902
-0.0576081
-0.439772
0.447827
0.0661056
-0.0741606
-0.375153
0.376999
0.0818977
-0.0837438
-0.256914
0.223416
0.0727459
-0.0392475
-0.0686568
0.0589283
0.00972851
-0.0520677
0.0587612
-0.374547
0.367853
-0.0578725
0.0540436
-0.453833
0.457661
-0.0486834
0.0443423
-0.527748
0.532089
-0.0401173
0.0363333
-0.62111
0.624894
-0.0321073
0.0280323
-0.734884
0.738959
-0.0235545
0.0195565
-0.874055
0.878053
-0.0154136
0.0118919
-1.04341
1.04693
-0.0083187
0.0052494
-1.24867
1.25174
-0.00200936
-0.000995498
-1.49695
1.49995
0.00397836
-0.00715672
-1.49743
1.50061
0.0101358
-0.013586
-1.25009
1.25354
0.0169818
-0.0209789
-1.04572
1.04972
0.0248476
-0.029197
-0.877312
0.881662
0.0331692
-0.0372953
-0.739306
0.743432
0.0409959
-0.0451368
-0.626336
0.630477
0.0494064
-0.054697
-0.534931
0.540221
0.0584492
-0.0592412
-0.457914
0.458706
0.0524254
-0.0320447
-0.336387
0.316006
0.00978848
-0.0684966
0.0587081
-0.0531711
0.0491235
0.00404757
-0.0331546
0.0436417
-0.358386
0.347899
-0.0473538
0.046763
-0.459521
0.460112
-0.0437825
0.0405094
-0.536036
0.539309
-0.0367949
0.0334556
-0.628459
0.631798
-0.0298851
0.0267281
-0.742274
0.745431
-0.0233699
0.0201941
-0.881595
0.884771
-0.016587
0.0131993
-1.05042
1.0538
-0.0094544
0.00600754
-1.25504
1.25849
-0.00217352
-0.00148148
-1.50334
1.50699
0.00510468
-0.00884612
-1.50414
1.50788
0.0121665
-0.0157377
-1.25715
1.26072
0.0189461
-0.0223453
-1.05348
1.05688
0.0253364
-0.0285105
-0.88527
0.888444
0.0315195
-0.034945
-0.74692
0.750346
0.0381628
-0.0417516
-0.634488
0.638077
0.0449159
-0.0477738
-0.544446
0.547304
0.048236
-0.0443437
-0.456869
0.452977
0.0336404
-0.0162704
-0.296628
0.279258
0.00412043
-0.0528856
0.0487652
-0.046004
0.0434812
0.00252279
-0.0229101
0.0332683
-0.337267
0.326909
-0.0390416
0.0400208
-0.459828
0.458849
-0.0387979
0.0364933
-0.541986
0.544291
-0.0338466
0.0312781
-0.634801
0.637369
-0.0282641
0.025398
-0.748503
0.751369
-0.0221548
0.0191505
-0.887779
0.890783
-0.0158232
0.0127043
-1.05698
1.0601
-0.00914748
0.00573145
-1.26191
1.26533
-0.00179447
-0.00203178
-1.51076
1.51459
0.00581687
-0.00962836
-1.51169
1.5155
0.012876
-0.0162046
-1.26419
1.26752
0.0190896
-0.0221461
-1.06004
1.0631
0.0249071
-0.0279036
-0.891584
0.894581
0.0305672
-0.033381
-0.753528
0.756342
0.0357822
-0.0382599
-0.641074
0.643552
0.0404194
-0.0414519
-0.549114
0.550147
0.0402735
-0.0342094
-0.44777
0.441706
0.0235332
-0.0103011
-0.264064
0.250832
0.00261246
-0.0455644
0.0429519
-0.0413856
0.0396021
0.00178352
-0.0168408
0.0261062
-0.317051
0.307786
-0.0327053
0.0348326
-0.457273
0.455145
-0.0344018
0.0327126
-0.5463
0.547989
-0.0305032
0.02839
-0.639676
0.641789
-0.0259568
0.0235677
-0.753992
0.756381
-0.0207283
0.0179614
-0.893651
0.896418
-0.0147587
0.0117144
-1.06314
1.06618
-0.00824414
0.0049255
-1.26865
1.27197
-0.00108125
-0.00267377
-1.51837
1.52212
0.00637513
-0.0100618
-1.51924
1.52293
0.013168
-0.0163495
-1.27077
1.27395
0.0190966
-0.021953
-1.06612
1.06897
0.0244057
-0.0269248
-0.897374
0.899893
0.0290519
-0.031228
-0.758785
0.760962
0.0331281
-0.0351198
-0.645739
0.647731
0.0365978
-0.0367687
-0.550696
0.550867
0.0343357
-0.0273113
-0.435073
0.428049
0.0176183
-0.00744641
-0.239275
0.229103
0.00189311
-0.0407572
0.0388641
-0.0380661
0.0367257
0.00134036
-0.0128638
0.0208333
-0.299172
0.291203
-0.0275891
0.0305082
-0.452591
0.449672
-0.0307108
0.0295849
-0.549427
0.550553
-0.0275846
0.0256586
-0.64384
0.645766
-0.0234478
0.0213058
-0.758623
0.760765
-0.0187931
0.016314
-0.898983
0.901462
-0.0133762
0.0105041
-1.0691
1.07197
-0.00715757
0.00392992
-1.27521
1.27844
-0.000190349
-0.00344044
-1.52579
1.52942
0.0070049
-0.0105463
-1.52653
1.53007
0.0135084
-0.016494
-1.27706
1.28004
0.018993
-0.0214951
-1.0717
1.0742
0.0235804
-0.0256921
-0.902194
0.904306
0.0275039
-0.0293881
-0.762973
0.764857
0.0310449
-0.0327834
-0.649574
0.651313
0.0336006
-0.0330348
-0.550673
0.550107
0.0296784
-0.0223401
-0.42081
0.413472
0.0138213
-0.00576713
-0.220091
0.212037
0.00147378
-0.0372072
0.0357335
-0.035555
0.0345227
0.00103227
-0.0100517
0.0167923
-0.283872
0.277132
-0.0232885
0.0266636
-0.446504
0.443129
-0.0274421
0.0267431
-0.551458
0.552157
-0.0249758
0.023188
-0.647664
0.649452
-0.0211177
0.019103
-0.762841
0.764856
-0.0167328
0.0144072
-0.903797
0.906123
-0.0116707
0.00898516
-1.07468
1.07737
-0.00582334
0.00273766
-1.28156
1.28464
0.000863534
-0.00436248
-1.53296
1.53646
0.00777923
-0.011136
-1.53351
1.53687
0.0138923
-0.0166075
-1.28291
1.28562
0.0188336
-0.0210332
-1.07658
1.07878
0.0228716
-0.0247439
-0.906309
0.908181
0.0263486
-0.0280134
-0.766625
0.768289
0.0294677
-0.0308738
-0.652904
0.65431
0.0311888
-0.0298943
-0.549192
0.547898
0.0259171
-0.0186549
-0.406147
0.398885
0.0112244
-0.00465297
-0.204795
0.198223
0.00119442
-0.0344159
0.0332215
-0.0336163
0.0328124
0.000803868
-0.00796639
0.0136328
-0.270957
0.265291
-0.0196467
0.0232218
-0.439644
0.436069
-0.0244795
0.0240278
-0.552765
0.553216
-0.0225303
0.0208519
-0.651234
0.652912
-0.0188773
0.0169507
-0.766822
0.768749
-0.0146784
0.012445
-0.908338
0.910571
-0.00981516
0.00724482
-1.07992
1.08249
-0.00423297
0.00129181
-1.2876
1.29054
0.00214332
-0.0054774
-1.53985
1.54318
0.00871192
-0.0118477
-1.5401
1.54324
0.0143846
-0.0168521
-1.28822
1.29068
0.0188606
-0.0208311
-1.08092
1.08289
0.0224651
-0.0241248
-0.909968
0.911628
0.0255472
-0.0270224
-0.769852
0.771327
0.0282848
-0.0293144
-0.655508
0.656537
0.0292577
-0.0272963
-0.546275
0.544313
0.0229176
-0.0159218
-0.391753
0.384757
0.00939916
-0.0038819
-0.19223
0.186713
0.00100087
-0.0321366
0.0311357
-0.0321061
0.031479
0.000627164
-0.00635864
0.0111072
-0.260111
0.255363
-0.0165326
0.0201107
-0.432491
0.428913
-0.0216944
0.0214696
-0.55359
0.553815
-0.0202059
0.0185884
-0.654607
0.656224
-0.0166705
0.0147943
-0.770643
0.77252
-0.0125826
0.0104105
-0.912699
0.914871
-0.00785357
0.00535758
-1.08495
1.08744
-0.0024415
-0.000383432
-1.29337
1.2962
0.0036702
-0.00683435
-1.5464
1.54956
0.00987491
-0.0127926
-1.54624
1.54916
0.0151326
-0.0173878
-1.29305
1.29531
0.0192008
-0.0209541
-1.08483
1.08658
0.0223931
-0.0238546
-0.913211
0.914673
0.0251123
-0.0264153
-0.772708
0.774011
0.0275332
-0.0281462
-0.657349
0.657962
0.0277201
-0.0251977
-0.542087
0.539565
0.0205736
-0.0139108
-0.377938
0.371275
0.00810638
-0.00334338
-0.181612
0.176849
0.000866454
-0.0302127
0.0293462
-0.0309314
0.0304472
0.000484152
-0.00506538
0.00902262
-0.251036
0.247079
-0.0138149
0.0172473
-0.425415
0.421983
-0.0190171
0.0189845
-0.553985
0.554018
-0.0179179
0.0163361
-0.657888
0.65947
-0.0144421
0.0125823
-0.774376
0.776236
-0.0103909
0.00824449
-0.916945
0.919091
-0.00572716
0.0032803
-1.08983
1.09227
-0.000434451
-0.00231371
-1.29892
1.30167
0.00547516
-0.00848716
-1.55261
1.55562
0.0113495
-0.0140652
-1.55195
1.55466
0.0162177
-0.0182649
-1.29746
1.29951
0.0198855
-0.0214267
-1.08831
1.08985
0.0226809
-0.0239607
-0.916069
0.917349
0.0250708
-0.0262173
-0.775225
0.776371
0.0271449
-0.0273827
-0.65838
0.658618
0.0265606
-0.0235635
-0.536822
0.533825
0.0187927
-0.0124553
-0.364795
0.358457
0.00719887
-0.00297206
-0.172387
0.16816
0.000775304
-0.0285354
0.0277601
-0.0300307
0.0296675
0.000363285
-0.00398267
0.00724504
-0.243493
0.24023
-0.0113925
0.0145695
-0.418693
0.415516
-0.0163996
0.0165229
-0.554022
0.553898
-0.0155398
0.0140321
-0.661087
0.662595
-0.0121347
0.0102595
-0.778087
0.779962
-0.00805108
0.00589597
-0.921144
0.923299
-0.00338177
0.000950327
-1.09462
1.09705
0.00185871
-0.00454821
-1.30432
1.30701
0.00761562
-0.0105022
-1.55852
1.56141
0.0132075
-0.0157341
-1.55725
1.55978
0.0177042
-0.0195462
-1.30146
1.3033
0.0209775
-0.0223106
-1.0914
1.09273
0.0233845
-0.0244886
-0.918569
0.919673
0.0254535
-0.0264308
-0.777423
0.7784
0.0271025
-0.0270514
-0.65873
0.658678
0.0257991
-0.0223821
-0.530633
0.527216
0.0175098
-0.0114437
-0.352282
0.346216
0.00658573
-0.00272778
-0.164148
0.16029
0.000717366
-0.0270237
0.0263063
-0.0293645
0.029109
0.000255561
-0.00303436
0.00566993
-0.237303
0.234668
-0.00917324
0.0120122
-0.412527
0.409689
-0.0137888
0.0139959
-0.553788
0.553581
-0.0130573
0.0115944
-0.664161
0.665624
-0.00967135
0.00775197
-0.781836
0.783755
-0.00549155
0.00329421
-0.925364
0.927561
-0.000745442
-0.00170457
-1.09938
1.10183
0.00451305
-0.00717674
-1.30961
1.31228
0.0101789
-0.0129634
-1.5642
1.56698
0.0155288
-0.0178773
-1.56218
1.56453
0.0196709
-0.0213118
-1.30504
1.30668
0.0225544
-0.0236744
-1.09409
1.09521
0.0245622
-0.0254887
-0.920721
0.921648
0.0263104
-0.0271173
-0.779275
0.780082
0.0275
-0.027172
-0.658484
0.658156
0.0254731
-0.0216506
-0.523616
0.519794
0.0166779
-0.0108005
-0.34028
0.334403
0.00620821
-0.00258447
-0.156579
0.152956
0.000685949
-0.0256153
0.0249294
-0.0289105
0.0287572
0.000153303
-0.0021567
0.00420423
-0.232347
0.230299
-0.00705896
0.00949021
-0.407078
0.404646
-0.011106
0.0113183
-0.553436
0.553224
-0.0103908
0.00893469
-0.66718
0.668636
-0.00695924
0.00496634
-0.785677
0.78767
-0.00261899
0.000347552
-0.929669
0.931941
0.00227709
-0.00477962
-1.10419
1.10669
0.00762498
-0.0102933
-1.31486
1.31753
0.0132589
-0.0159609
-1.56967
1.57237
0.0183985
-0.0205756
-1.56675
1.56893
0.0221955
-0.0236358
-1.30821
1.30965
0.0246853
-0.025579
-1.09638
1.09727
0.0262647
-0.0269967
-0.922509
0.923241
0.0276667
-0.0283301
-0.780771
0.781434
0.0284013
-0.0276994
-0.65761
0.656908
0.0255573
-0.0213357
-0.515816
0.511594
0.0162402
-0.0104608
-0.328619
0.32284
0.00601936
-0.00252121
-0.149426
0.145928
0.000675486
-0.02426
0.0235845
-0.0286606
0.0286106
4.99318e-05
-0.00130129
0.00277556
-0.228556
0.227082
-0.00496811
0.00692874
-0.402477
0.400517
-0.00828092
0.00841692
-0.553128
0.552992
-0.0074545
0.00596956
-0.670222
0.671707
-0.00390338
0.00180497
-0.789667
0.791766
0.000667446
-0.00305447
-0.934125
0.936512
0.00579237
-0.0083851
-1.10911
1.11171
0.0113054
-0.0140114
-1.32012
1.32283
0.0169712
-0.0196116
-1.57498
1.57763
0.0219326
-0.0239404
-1.57098
1.57299
0.0253834
-0.0266176
-1.31097
1.3122
0.0274663
-0.0281261
-1.09825
1.09891
0.0286019
-0.0291256
-0.923911
0.924435
0.0296311
-0.0300869
-0.781904
0.78236
0.0298718
-0.0287304
-0.655971
0.65483
0.026106
-0.0214544
-0.507228
0.502576
0.016182
-0.0103953
-0.317111
0.311324
0.00599656
-0.00252809
-0.142478
0.13901
0.000683514
-0.0229175
0.022234
-0.0286174
0.0286776
-6.01712e-05
-0.000421096
0.00131747
-0.225913
0.225017
-0.00282091
0.0042467
-0.398852
0.397426
-0.00523332
0.00520795
-0.553032
0.553058
-0.00415335
0.00258502
-0.673371
0.674939
-0.000397085
-0.00184706
-0.793872
0.796116
0.00449286
-0.0070341
-0.938812
0.941353
0.00993275
-0.0126565
-1.11422
1.11695
0.0156939
-0.018471
-1.32547
1.32824
0.0214551
-0.0240528
-1.58018
1.58278
0.0262666
-0.0281039
-1.57486
1.5767
0.0293616
-0.0303769
-1.31329
1.31431
0.0310132
-0.0314299
-1.09967
1.10008
0.0316867
-0.0319875
-0.924894
0.925195
0.0323034
-0.0324827
-0.78251
0.782689
0.031985
-0.0302954
-0.653463
0.651773
0.0271496
-0.0220195
-0.497786
0.492656
0.0164952
-0.0105866
-0.30554
0.299632
0.00612593
-0.0025986
-0.135548
0.132021
0.000708214
-0.0215515
0.0208433
-0.0287939
0.028969
-0.000175098
0.000499598
-0.000215034
-0.22444
0.224155
-0.000550603
0.00136288
-0.396328
0.395516
-0.00187183
0.00160571
-0.553327
0.553593
-0.000400518
-0.00132367
-0.676741
0.678465
0.00369593
-0.00613358
-0.798377
0.800814
0.00900189
-0.011745
-0.94381
0.946553
0.0148558
-0.0177561
-1.1196
1.1225
0.020956
-0.02384
-1.33096
1.33384
0.0268783
-0.0294497
-1.58529
1.58786
0.0315598
-0.0332192
-1.57839
1.58005
0.0342826
-0.0350588
-1.31515
1.31593
0.0354671
-0.0356256
-1.1006
1.10075
0.0356472
-0.035708
-0.925417
0.925478
0.0358267
-0.035646
-0.782488
0.782307
0.0347704
-0.032477
-0.649905
0.647611
0.028739
-0.023049
-0.487374
0.481684
0.0171756
-0.011021
-0.293673
0.287518
0.00639546
-0.00272636
-0.128462
0.124793
0.000747515
-0.0201299
0.0193824
-0.0292253
0.0295444
-0.000319146
0.00151003
-0.00186838
-0.224221
0.224579
0.00194837
-0.00185906
-0.395031
0.394941
0.00195864
-0.0025806
-0.554232
0.554854
0.00401438
-0.0059326
-0.680478
0.682396
0.00854114
-0.0112237
-0.803263
0.805946
0.014374
-0.0173742
-0.949215
0.952215
0.0207563
-0.0238831
-1.12534
1.12847
0.027294
-0.0303206
-1.33668
1.3397
0.03344
-0.0359964
-1.59035
1.5929
0.0379984
-0.0394586
-1.58155
1.58301
0.0403075
-0.0408274
-1.3165
1.31702
0.0409897
-0.0408658
-1.10098
1.10086
0.0406271
-0.0404269
-0.925426
0.925225
0.0403392
-0.0396868
-0.781691
0.781039
0.0383538
-0.0353649
-0.645166
0.642177
0.0309405
-0.0245758
-0.475816
0.469451
0.0182324
-0.0116951
-0.281255
0.274718
0.00679954
-0.00290788
-0.121055
0.117164
0.000800255
-0.0186239
0.0178237
-0.0299347
0.0304305
-0.000495737
0.00279279
-0.00390467
-0.225331
0.226443
0.00485023
-0.00555898
-0.395188
0.395897
0.0063756
-0.00746387
-0.555967
0.557056
0.00921899
-0.0114104
-0.684676
0.686868
0.0143371
-0.0173349
-0.808644
0.811642
0.0208415
-0.0241633
-0.955141
0.958462
0.0278823
-0.0312895
-1.13154
1.13495
0.0349603
-0.0381619
-1.34268
1.34588
0.0413808
-0.0439206
-1.59537
1.59791
0.0457964
-0.0470336
-1.58429
1.58553
0.0476215
-0.0478679
-1.31728
1.31752
0.0477607
-0.0473259
-1.10076
1.10032
0.0468028
-0.0463223
-0.924855
0.924374
0.0459109
-0.044813
-0.779965
0.778867
0.0428824
-0.0390572
-0.639051
0.635226
0.0338121
-0.026621
-0.462869
0.455678
0.019664
-0.0125973
-0.268011
0.260945
0.00732661
-0.00313611
-0.113169
0.108978
0.000863856
-0.0170081
0.0161443
-0.0309966
0.0317126
-0.00071597
0.0042886
-0.00628729
-0.227971
0.229969
0.00829665
-0.00991115
-0.397008
0.398623
0.011553
-0.0132233
-0.5588
0.56047
0.0154354
-0.0179982
-0.689505
0.692067
0.0213491
-0.0247462
-0.814663
0.81806
0.0286966
-0.0324155
-0.961719
0.965438
0.0365464
-0.0402915
-1.13832
1.14206
0.0442692
-0.0476707
-1.34903
1.35243
0.0509936
-0.0534983
-1.60034
1.60284
0.055213
-0.0561802
-1.58657
1.58753
0.0564667
-0.0563934
-1.31743
1.31736
0.0559819
-0.0552031
-1.09986
1.09908
0.0543673
-0.0535632
-0.92365
0.922846
0.0527456
-0.0511325
-0.777352
0.775739
0.0484657
-0.0436408
-0.631279
0.626454
0.0374068
-0.0292004
-0.448219
0.440013
0.0214636
-0.0137104
-0.253643
0.24589
0.00796006
-0.00340104
-0.104653
0.100094
0.000934721
-0.0152622
0.0143275
-0.0324933
0.0334975
-0.00100423
0.00617155
-0.00922592
-0.23239
0.235444
0.0124998
-0.0151727
-0.400758
0.40343
0.0177825
-0.0201633
-0.563005
0.565386
0.0229759
-0.026032
-0.695169
0.698225
0.0299367
-0.0338384
-0.821491
0.825393
0.0383375
-0.042538
-0.969104
0.973304
0.0471581
-0.0512929
-1.14577
1.1499
0.0556092
-0.0592137
-1.35577
1.35937
0.0626154
-0.0650366
-1.6052
1.60762
0.0665269
-0.0671496
-1.58826
1.58888
0.0670712
-0.0666064
-1.31681
1.31635
0.0658565
-0.0646904
-1.0982
1.09703
0.0635023
-0.0623797
-0.921732
0.920609
0.0610308
-0.0588065
-0.773703
0.771479
0.0552452
-0.0491956
-0.621502
0.615452
0.0417523
-0.0322982
-0.431479
0.422024
0.0235945
-0.0149942
-0.237839
0.229238
0.00866829
-0.00368563
-0.0953756
0.090393
0.0010072
-0.0133744
0.0123672
-0.0345518
0.035955
-0.00140319
0.00863554
-0.0130384
-0.238912
0.243315
0.017803
-0.0217113
-0.406805
0.410713
0.0254544
-0.0286967
-0.568912
0.572155
0.0322876
-0.0359966
-0.701937
0.705646
0.0406183
-0.0451553
-0.829334
0.833871
0.05032
-0.055087
-0.977465
0.982232
0.0602624
-0.0648168
-1.15399
1.15855
0.0694674
-0.0732361
-1.36287
1.36664
0.0766376
-0.0788755
-1.60984
1.61208
0.0800338
-0.0802072
-1.58921
1.58938
0.0796936
-0.0787206
-1.3153
1.31433
0.0775743
-0.0759922
-1.09566
1.09408
0.0744461
-0.0729072
-0.919069
0.91753
0.0710225
-0.0680029
-0.768794
0.765774
0.0633183
-0.0557525
-0.609256
0.60169
0.0468256
-0.0358502
-0.41218
0.401204
0.0259784
-0.0163778
-0.220284
0.210683
0.0094002
-0.00396402
-0.0852392
0.079803
0.00107307
-0.0113453
0.0102722
-0.0373714
0.0393401
-0.00196867
0.0120567
-0.0181836
-0.248053
0.25418
0.0247457
-0.0300983
-0.415647
0.420999
0.0351836
-0.0394795
-0.576918
0.581213
0.0440608
-0.0486251
-0.710147
0.714711
0.0541666
-0.0594829
-0.838445
0.843762
0.0654288
-0.0708278
-0.986967
0.992366
0.076582
-0.0815304
-1.16303
1.16798
0.0864372
-0.0902588
-1.37024
1.37406
0.0935011
-0.0953864
-1.61402
1.61591
0.0960436
-0.0956078
-1.58917
1.58873
0.0945477
-0.0929712
-1.31271
1.31114
0.0913415
-0.0893165
-1.09215
1.09012
0.0873831
-0.085283
-0.915427
0.913327
0.0828773
-0.0788086
-0.762184
0.758115
0.0727109
-0.0632629
-0.593938
0.58449
0.0525201
-0.039714
-0.389784
0.376977
0.0284722
-0.0177458
-0.200694
0.189968
0.0100782
-0.00419949
-0.0742044
0.0683257
0.00112138
-0.00919295
0.00807157
-0.0412716
0.0441154
-0.00284382
0.017041
-0.0254236
-0.260556
0.268939
0.0342129
-0.0413035
-0.427955
0.435046
0.0480207
-0.0535943
-0.587505
0.593079
0.0594556
-0.0651358
-0.720218
0.725898
0.0718096
-0.0780237
-0.849094
0.855308
0.0848061
-0.0908186
-0.997712
1.00372
0.0970599
-0.102261
-1.17277
1.17797
0.107213
-0.110858
-1.37759
1.38124
0.11366
-0.114925
-1.61736
1.61862
0.114836
-0.113575
-1.58779
1.58653
0.1118
-0.109513
-1.30886
1.30657
0.10732
-0.1048
-1.08756
1.08504
0.102457
-0.0996753
-0.910474
0.907692
0.0965971
-0.0911765
-0.753347
0.747926
0.0833127
-0.0715366
-0.574779
0.563003
0.0585931
-0.0436324
-0.363702
0.348742
0.030845
-0.0189283
-0.178867
0.166951
0.0105955
-0.00434446
-0.062326
0.056075
0.00113858
-0.00695822
0.00581964
-0.0468283
0.0511532
-0.00432492
0.0247501
-0.0362039
-0.27758
0.289034
0.0478898
-0.0572982
-0.444754
0.454162
0.0660381
-0.0731042
-0.60128
0.608346
0.0805135
-0.0876969
-0.732529
0.739713
0.095554
-0.102582
-0.861478
0.868506
0.110028
-0.116427
-1.00958
1.01598
0.122833
-0.127942
-1.18284
1.18795
0.132525
-0.135598
-1.38438
1.38745
0.137522
-0.137779
-1.61925
1.6195
0.136612
-0.13426
-1.58462
1.58227
0.131591
-0.128453
-1.30349
1.30035
0.125604
-0.12253
-1.08178
1.0787
0.119684
-0.116188
-0.904034
0.900539
0.112144
-0.104934
-0.741597
0.734386
0.0948028
-0.0801627
-0.550814
0.536174
0.0646169
-0.0472203
-0.333363
0.315966
0.0327851
-0.019716
-0.154772
0.141703
0.0108278
-0.00434655
-0.0497936
0.0433123
0.00110971
-0.00470797
0.00359826
-0.0551143
0.0625261
-0.00741179
0.0382496
-0.0541842
-0.301279
0.317213
0.0699414
-0.0825738
-0.467706
0.480339
0.093507
-0.101944
-0.618686
0.627123
0.110865
-0.119313
-0.747464
0.755912
0.128076
-0.135495
-0.875293
0.882713
0.143014
-0.149193
-1.02194
1.02812
0.155082
-0.159459
-1.19241
1.19678
0.163
-0.164884
-1.3897
1.39158
0.165347
-0.164126
-1.61884
1.61762
0.161509
-0.157765
-1.57912
1.57538
0.153971
-0.14979
-1.29632
1.29214
0.146201
-0.142561
-1.07461
1.07097
0.139081
-0.134751
-0.895902
0.891572
0.129269
-0.119603
-0.7259
0.716234
0.106514
-0.0883664
-0.520841
0.502694
0.0699177
-0.05
-0.298324
0.278406
0.0339896
-0.0199666
-0.128667
0.114644
0.0107136
-0.00418894
-0.0369698
0.0304452
0.00102713
-0.00253545
0.00150832
-0.0694238
0.07353
-0.00410615
0.0292308
-0.0430807
-0.335645
0.349495
0.0570819
-0.0687033
-0.498255
0.509877
0.0790759
-0.0887295
-0.639308
0.648961
0.0994697
-0.109334
-0.763885
0.77375
0.120287
-0.130019
-0.889222
0.898954
0.140372
-0.14956
-1.03336
1.04254
0.159126
-0.16728
-1.20006
1.20822
0.175314
-0.181636
-1.3923
1.39862
0.187124
-0.19051
-1.61519
1.61858
0.191769
-0.191481
-1.57061
1.57032
0.190101
-0.187967
-1.28696
1.28483
0.186151
-0.183928
-1.06583
1.06361
0.181709
-0.177473
-0.885433
0.881196
0.169807
-0.15536
-0.704768
0.690321
0.135609
-0.109338
-0.483611
0.45734
0.0840315
-0.0579722
-0.258475
0.232415
0.0381923
-0.0217402
-0.101271
0.084819
0.0113313
-0.00430179
-0.0244101
0.0173806
0.00102696
-0.000540124
-0.000486834
-0.0808556
0.0788655
0.00199013
0.0074484
-0.0165905
-0.366081
0.375223
0.0272519
-0.035501
-0.526146
0.534395
0.0438121
-0.0519129
-0.66119
0.669291
0.0617929
-0.0710035
-0.783227
0.792438
0.0808142
-0.0897537
-0.90811
0.91705
0.0992267
-0.107288
-1.05143
1.0595
0.115853
-0.122773
-1.21616
1.22308
0.129514
-0.134501
-1.40459
1.40958
0.138225
-0.140022
-1.6211
1.6229
0.139703
-0.137824
-1.56929
1.56741
0.13485
-0.131006
-1.28195
1.27811
0.127512
-0.123704
-1.05908
1.05527
0.119945
-0.114492
-0.87224
0.866787
0.106283
-0.0933458
-0.67191
0.658972
0.0780853
-0.0597776
-0.429529
0.411221
0.0438211
-0.0290975
-0.206836
0.192113
0.0187358
-0.0105798
-0.0694526
0.0612966
0.00555544
-0.00214873
-0.0106998
0.00729307
0.000461364
0.00159604
-0.0020574
-0.0822636
0.0793134
0.00295024
-0.00175667
-0.00351417
-0.386659
0.391929
0.0107674
-0.0167239
-0.54677
0.552726
0.0228487
-0.0299602
-0.679622
0.686734
0.038514
-0.0465082
-0.800747
0.808742
0.0552373
-0.0630239
-0.925222
0.933009
0.0710178
-0.0781711
-1.06736
1.07451
0.0855415
-0.0915584
-1.22953
1.23554
0.0969247
-0.100624
-1.41384
1.41754
0.103223
-0.103745
-1.62391
1.62443
0.10216
-0.0990139
-1.56483
1.56169
0.09502
-0.0902712
-1.27388
1.26913
0.0855107
-0.0804518
-1.04951
1.04445
0.0755424
-0.0693643
-0.857053
0.850875
0.0619177
-0.0513276
-0.642936
0.632346
0.0403796
-0.0286724
-0.391352
0.379644
0.0199031
-0.0127979
-0.177025
0.16992
0.00828632
-0.00491914
-0.0532011
0.0498339
0.0027454
-0.00107065
-0.00393803
0.00226329
0.000244541
0.00272627
-0.00297081
-0.0809634
0.0781646
0.00279879
-0.00543864
0.00293068
-0.400362
0.402869
0.00173191
-0.00623639
-0.561969
0.566473
0.0114137
-0.0173781
-0.69482
0.700785
0.0246714
-0.0314989
-0.816085
0.822912
0.0389382
-0.0455973
-0.940245
0.946904
0.0528055
-0.058835
-1.08121
1.08724
0.065212
-0.0699272
-1.24111
1.24582
0.0743705
-0.0772444
-1.42094
1.42382
0.0787737
-0.078122
-1.62441
1.62375
0.0757963
-0.0719319
-1.55789
1.55402
0.0672944
-0.0614682
-1.26392
1.2581
0.0559975
-0.050034
-1.03789
1.03192
0.044189
-0.037853
-0.840882
0.834546
0.0310577
-0.022996
-0.618817
0.610756
0.0157979
-0.00957859
-0.366887
0.360668
0.00592764
-0.00363692
-0.161917
0.159626
0.00244892
-0.00173784
-0.0457168
0.0450057
0.00117251
-0.000403821
-0.000489773
-0.000278921
8.99846e-05
0.00349429
-0.00358427
-0.0793951
0.0769103
0.00248488
-0.00660707
0.00573492
-0.409443
0.410315
-0.00233872
-0.000848276
-0.574163
0.57735
0.00506712
-0.0104918
-0.707541
0.712966
0.0166081
-0.022582
-0.829031
0.835005
0.0290005
-0.0347544
-0.953087
0.958841
0.0408939
-0.0462043
-1.09311
1.09842
0.0515272
-0.05575
-1.25035
1.25457
0.0593991
-0.0615857
-1.42626
1.42845
0.0623992
-0.0611176
-1.62283
1.62155
0.058224
-0.0536177
-1.54937
1.54476
0.0485276
-0.0423668
-1.25206
1.2459
0.0364358
-0.0297624
-1.02486
1.01819
0.0236002
-0.0170591
-0.825038
0.818496
0.0112838
-0.00515098
-0.600224
0.594091
0.00071754
0.00196112
-0.352526
0.349847
-0.00263944
0.00226833
-0.15556
0.155931
-0.00154523
0.000727243
-0.0434821
0.0443001
-0.000225469
0.000132566
0.00085038
-0.000757477
-3.3623e-05
0.00394265
-0.00390903
-0.0779219
0.0757839
0.00213801
-0.00653219
0.00619279
-0.415599
0.415938
-0.00419129
0.00163303
-0.583466
0.586024
0.00239312
-0.00701845
-0.718296
0.722921
0.0122578
-0.0174271
-0.840177
0.845346
0.0231103
-0.0282224
-0.964221
0.969333
0.0337919
-0.0383903
-1.10342
1.10802
0.0430996
-0.0468022
-1.25847
1.26217
0.0498674
-0.0515605
-1.43031
1.432
0.0518562
-0.0505192
-1.62009
1.61875
0.0472348
-0.0424645
-1.53963
1.53486
0.0371118
-0.0306749
-1.23944
1.233
0.0247254
-0.0176541
-1.01086
1.00379
0.0112361
-0.00470329
-0.809709
0.803177
-0.000472672
0.00508571
-0.585496
0.580883
-0.00795666
0.00887298
-0.344514
0.343598
-0.00787355
0.00615818
-0.15451
0.156225
-0.00451102
0.00270254
-0.0444937
0.0463022
-0.00140149
0.000623678
0.000426767
0.000351047
-0.000161512
0.00404947
-0.00388796
-0.0767697
0.0750901
0.00167965
-0.00569482
0.00571255
-0.420096
0.420079
-0.00413136
0.002236
-0.591527
0.593423
0.00148826
-0.00566044
-0.72755
0.731722
0.0106118
-0.0150407
-0.8501
0.854529
0.020005
-0.0245056
-0.974389
0.97889
0.0297444
-0.0338719
-1.11262
1.11675
0.0379854
-0.0414046
-1.26565
1.26907
0.0445012
-0.0459058
-1.43366
1.43506
0.0460752
-0.0444837
-1.61695
1.61536
0.0413871
-0.0363069
-1.52982
1.52474
0.0311045
-0.0248326
-1.22635
1.22008
0.0187623
-0.0119317
-0.996467
0.989636
0.00554943
0.000960039
-0.794939
0.78843
-0.00543762
0.00946114
-0.573361
0.569337
-0.0118004
0.0119703
-0.339822
0.339652
-0.0105236
0.00839116
-0.156197
0.158329
-0.00630514
0.00401019
-0.0475384
0.0498333
-0.00226184
0.000947727
-0.0012597
0.00257382
-0.000245937
0.00381895
-0.00357301
-0.0761126
0.0747847
0.00132786
-0.0046491
0.00481011
-0.423591
0.42343
-0.00344713
0.00165413
-0.598491
0.600284
0.00190974
-0.00561147
-0.735821
0.739523
0.0098289
-0.0140743
-0.858882
0.863128
0.0186267
-0.0232277
-0.983171
0.987772
0.0276884
-0.0315824
-1.12095
1.12485
0.0357609
-0.0388681
-1.27233
1.27544
0.0413982
-0.0431215
-1.43633
1.43806
0.0433441
-0.0418985
-1.61378
1.61233
0.038819
-0.0341636
-1.51983
1.51518
0.0291508
-0.0230737
-1.21349
1.20741
0.0172798
-0.0106549
-0.982525
0.9759
0.00451481
0.00159796
-0.780785
0.774672
-0.00630644
0.00986191
-0.562462
0.558907
-0.0118846
0.0123224
-0.336708
0.33627
-0.0111515
0.0089793
-0.158761
0.160933
-0.00689017
0.00452655
-0.0514282
0.0537919
-0.00265291
0.00113097
-0.0037464
0.00526834
-0.000308208
0.00337194
-0.00306373
-0.0759781
0.0748693
0.00110887
-0.00339291
0.00333524
-0.42668
0.426738
-0.00226509
0.00052998
-0.604842
0.606577
0.00290294
-0.00646196
-0.743459
0.747018
0.0104802
-0.0142936
-0.867134
0.870948
0.0189297
-0.022706
-0.991767
0.995543
0.0270958
-0.0307692
-1.12887
1.13254
0.0347832
-0.0380337
-1.2785
1.28175
0.0407855
-0.0422218
-1.43951
1.44094
0.0426993
-0.0415638
-1.61078
1.60965
0.039033
-0.0345992
-1.5104
1.50597
0.0299546
-0.0242196
-1.20147
1.19574
0.01878
-0.0124553
-0.969005
0.962681
0.00673578
-0.0006789
-0.767466
0.76141
-0.00400353
0.00756814
-0.552465
0.5489
-0.00960429
0.0102812
-0.333515
0.332839
-0.0097467
0.00815392
-0.161059
0.162652
-0.00643988
0.0043515
-0.0553255
0.0574139
-0.00262403
0.00115296
-0.00648271
0.00795378
-0.000339669
0.00279945
-0.00245978
-0.076125
0.0753501
0.000774934
-0.00224943
0.0017393
-0.429827
0.430337
-0.000834575
-0.00109304
-0.61036
0.612288
0.00413868
-0.00753123
-0.750555
0.753948
0.0113569
-0.0152785
-0.874599
0.878521
0.0192692
-0.0231818
-0.999503
1.00342
0.0275047
-0.0309404
-1.13662
1.14006
0.0350091
-0.038177
-1.28478
1.28794
0.0409424
-0.0428643
-1.44277
1.44469
0.0437768
-0.042873
-1.60853
1.60763
0.0405386
-0.0367833
-1.50171
1.49796
0.0326663
-0.0273114
-1.18994
1.18458
0.022167
-0.0164772
-0.956301
0.950611
0.010774
-0.00517965
-0.754558
0.748964
0.000400486
0.00345327
-0.542823
0.538969
-0.00555533
0.00673305
-0.329771
0.328594
-0.00681633
0.00607698
-0.162434
0.163173
-0.00494709
0.0034645
-0.0585017
0.0599843
-0.00216347
0.00097901
-0.00896341
0.0101479
-0.000310264
0.00220622
-0.00189596
-0.0766917
0.0760875
0.000604167
-0.00128283
0.000865046
-0.433187
0.433605
0.000609454
-0.00249344
-0.61599
0.617874
0.00567472
-0.00891628
-0.757104
0.760345
0.012572
-0.0160733
-0.882087
0.885588
0.0201692
-0.0237486
-1.00731
1.01089
0.0280007
-0.031854
-1.14393
1.14778
0.0355378
-0.0390127
-1.29113
1.29461
0.0421735
-0.044161
-1.44649
1.44847
0.0454172
-0.0452681
-1.60694
1.60679
0.043358
-0.0402236
-1.49409
1.49095
0.0363471
-0.031526
-1.17934
1.17452
0.0268989
-0.0214994
-0.94456
0.93916
0.0162926
-0.0108755
-0.742428
0.737011
0.00618399
-0.00178758
-0.53303
0.528634
-0.000874223
0.00254145
-0.325135
0.323468
-0.00336924
0.00339357
-0.162351
0.162327
-0.00295911
0.00220095
-0.0604324
0.0611905
-0.00145221
0.00070484
-0.0108043
0.0115517
-0.000230487
0.00169338
-0.00146289
-0.0775424
0.0771278
0.000414624
-0.000253106
-0.000353443
-0.436695
0.437302
0.00183906
-0.00401442
-0.621287
0.623463
0.00709183
-0.0101596
-0.763393
0.76646
0.0138924
-0.0172321
-0.889049
0.892389
0.0211566
-0.0248473
-1.01493
1.01862
0.0289907
-0.0327973
-1.15147
1.15527
0.0366904
-0.0401797
-1.29798
1.30147
0.0435129
-0.0462359
-1.45073
1.45346
0.0479187
-0.0480493
-1.60657
1.6067
0.04682
-0.0440225
-1.48772
1.48492
0.0407469
-0.0365494
-1.16973
1.16553
0.0320827
-0.0270344
-0.93354
0.928492
0.0221133
-0.0167143
-0.730825
0.725426
0.0120912