/*--------------------------------*- C++ -*----------------------------------*\
| =========                 |                                                 |
| \\      /  F ield         | OpenFOAM: The Open Source CFD Toolbox           |
|  \\    /   O peration     | Version:  2306                                  |
|   \\  /    A nd           | Website:  www.openfoam.com                      |
|    \\/     M anipulation  |                                                 |
\*---------------------------------------------------------------------------*/
FoamFile
{
    version     2.0;
    format      ascii;
    arch        "LSB;label=32;scalar=64";
    class       volVectorField;
    location    "63";
    object      U;
}
// * * * * * * * * * * * * * * * * * * * * * * * * * * * * * * * * * * * * * //

dimensions      [0 1 -1 0 0 0 0];

internalField   nonuniform List<vector> 
8800
(
(0.984957 -0.0884519 0)
(1.00213 -0.056825 0)
(0.999651 -0.0305578 0)
(0.999997 -0.0158647 0)
(1.00008 -0.00872496 0)
(1.0001 -0.00509096 0)
(1.00006 -0.00300244 0)
(1.00002 -0.0016908 0)
(0.999999 -0.000784929 0)
(1.00006 -8.14856e-05 0)
(0.999985 0.000632379 0)
(0.999993 0.00139272 0)
(1.00002 0.00241846 0)
(1.00005 0.00401121 0)
(1.00004 0.00671665 0)
(1.00001 0.0117401 0)
(0.999836 0.0220504 0)
(0.999168 0.0411654 0)
(1.00748 0.0768942 0)
(0.773654 0.0450713 0)
(0.361009 -0.0151709 0)
(1.04557 -0.0741985 0)
(1.0871 -0.0678859 0)
(1.04775 -0.0522966 0)
(1.02459 -0.0383938 0)
(1.01241 -0.0261168 0)
(1.00651 -0.0167672 0)
(1.00363 -0.010244 0)
(1.00219 -0.00558913 0)
(1.00152 -0.00197345 0)
(1.00138 0.00126172 0)
(1.00173 0.00459013 0)
(1.0027 0.00849868 0)
(1.00472 0.0138303 0)
(1.00881 0.0215483 0)
(1.01734 0.0323614 0)
(1.03444 0.0456975 0)
(1.06548 0.059802 0)
(1.09407 0.0729182 0)
(0.842196 0.0557163 0)
(0.217092 -0.00164628 0)
(1.07587 -0.0503517 0)
(1.09983 -0.0487113 0)
(1.06465 -0.040162 0)
(1.04 -0.0330004 0)
(1.02382 -0.0257003 0)
(1.01403 -0.0183043 0)
(1.00853 -0.0115604 0)
(1.00567 -0.0057413 0)
(1.00448 -0.000409809 0)
(1.00479 0.0047368 0)
(1.00663 0.0100683 0)
(1.01056 0.0161076 0)
(1.01786 0.023003 0)
(1.03049 0.0302517 0)
(1.05063 0.0372456 0)
(1.08034 0.0445798 0)
(1.10617 0.0517892 0)
(0.942785 0.0413418 0)
(0.216437 0.00166859 0)
(0.175925 -0.000645126 0)
(1.0187 -0.0354055 0)
(1.10559 -0.041412 0)
(1.07814 -0.0362478 0)
(1.0529 -0.0302224 0)
(1.03563 -0.0244928 0)
(1.0236 -0.0187501 0)
(1.01566 -0.0127086 0)
(1.01099 -0.00655158 0)
(1.00892 -0.000263472 0)
(1.00944 0.00593675 0)
(1.01254 0.0118987 0)
(1.01858 0.0177017 0)
(1.02832 0.0232531 0)
(1.04263 0.0286629 0)
(1.06335 0.0343133 0)
(1.09375 0.0402734 0)
(1.09409 0.0418951 0)
(0.828723 0.0227962 0)
(0.174814 0.000668787 0)
(0.154385 -0.000486977 0)
(0.957362 -0.0255487 0)
(1.10412 -0.0350814 0)
(1.08798 -0.0326381 0)
(1.06148 -0.0280869 0)
(1.04359 -0.0230865 0)
(1.03116 -0.0178085 0)
(1.02245 -0.012283 0)
(1.0168 -0.00635661 0)
(1.01409 0.000129601 0)
(1.01471 0.00661671 0)
(1.01854 0.0125024 0)
(1.02542 0.0177884 0)
(1.03564 0.0227288 0)
(1.05029 0.0275253 0)
(1.07197 0.0319952 0)
(1.10065 0.0358671 0)
(1.06904 0.0340007 0)
(0.741076 0.0143782 0)
(0.152712 0.000513324 0)
(0.139868 -0.000358168 0)
(0.900428 -0.0192027 0)
(1.0965 -0.0301329 0)
(1.0961 -0.0292501 0)
(1.06913 -0.025497 0)
(1.05043 -0.0213922 0)
(1.03747 -0.0166552 0)
(1.02843 -0.0113902 0)
(1.02241 -0.00566014 0)
(1.01936 0.000706418 0)
(1.01995 0.00708252 0)
(1.02396 0.012725 0)
(1.03104 0.0176777 0)
(1.04155 0.0221264 0)
(1.05681 0.026072 0)
(1.0794 0.029549 0)
(1.10289 0.032212 0)
(1.03706 0.028157 0)
(0.674358 0.0102667 0)
(0.137507 0.000389091 0)
(0.129229 -0.000273614 0)
(0.850712 -0.014828 0)
(1.08414 -0.0260257 0)
(1.10179 -0.0263488 0)
(1.07598 -0.0230392 0)
(1.05676 -0.0193882 0)
(1.04335 -0.0151697 0)
(1.03395 -0.0102754 0)
(1.02767 -0.00475579 0)
(1.02441 0.00142097 0)
(1.02487 0.00757081 0)
(1.02886 0.012932 0)
(1.03607 0.0174749 0)
(1.04687 0.0213152 0)
(1.06251 0.0246313 0)
(1.08554 0.0276223 0)
(1.10204 0.0294007 0)
(1.00221 0.0236444 0)
(0.622352 0.00789036 0)
(0.126029 0.000310889 0)
(0.121116 -0.000210913 0)
(0.808403 -0.0116567 0)
(1.06886 -0.0224254 0)
(1.10533 -0.0237175 0)
(1.08224 -0.0208428 0)
(1.06258 -0.0174096 0)
(1.0489 -0.0134817 0)
(1.03923 -0.00891731 0)
(1.03268 -0.00366929 0)
(1.02917 0.00227886 0)
(1.02946 0.00816301 0)
(1.03339 0.0131734 0)
(1.04066 0.0172527 0)
(1.05156 0.0206024 0)
(1.06743 0.0235194 0)
(1.09082 0.0262047 0)
(1.0983 0.0270786 0)
(0.966955 0.0201003 0)
(0.580552 0.00634457 0)
(0.116898 0.000255997 0)
(0.11483 -0.000162732 0)
(0.772761 -0.00928236 0)
(1.05205 -0.0192552 0)
(1.1077 -0.0212821 0)
(1.08812 -0.0187849 0)
(1.06806 -0.015505 0)
(1.05413 -0.0117414 0)
(1.04426 -0.00738198 0)
(1.03747 -0.00237564 0)
(1.0337 0.00331369 0)
(1.03377 0.00889034 0)
(1.03757 0.0135205 0)
(1.04477 0.0171903 0)
(1.05567 0.0201574 0)
(1.07176 0.0227475 0)
(1.09483 0.025089 0)
(1.09173 0.0251528 0)
(0.932624 0.0173629 0)
(0.545951 0.00528703 0)
(0.109373 0.000217308 0)
(0.109927 -0.000124407 0)
(0.742853 -0.00744045 0)
(1.0348 -0.0164435 0)
(1.10912 -0.0189895 0)
(1.0937 -0.0168031 0)
(1.07335 -0.0136201 0)
(1.05914 -0.00995163 0)
(1.04908 -0.00571527 0)
(1.04208 -0.000880702 0)
(1.03802 0.0045596 0)
(1.0378 0.00981401 0)
(1.04137 0.0140826 0)
(1.04843 0.0173911 0)
(1.05932 0.02001 0)
(1.07561 0.0223093 0)
(1.09756 0.0242784 0)
(1.08271 0.0235753 0)
(0.899792 0.0152829 0)
(0.516493 0.00455017 0)
(0.102967 0.000190493 0)
(0.106122 -9.26861e-05 0)
(0.71786 -0.00595591 0)
(1.01793 -0.013919 0)
(1.10971 -0.0167732 0)
(1.09917 -0.0148668 0)
(1.07856 -0.0116995 0)
(1.06405 -0.00806621 0)
(1.05377 -0.00389509 0)
(1.04651 0.000826069 0)
(1.04213 0.0060558 0)
(1.04155 0.0110073 0)
(1.04481 0.0149356 0)
(1.05169 0.0178993 0)
(1.06254 0.0201798 0)
(1.07902 0.022216 0)
(1.09894 0.0237862 0)
(1.07163 0.0223423 0)
(0.868578 0.013746 0)
(0.490713 0.00404307 0)
(0.0973332 0.000172923 0)
(0.103222 -6.52448e-05 0)
(0.697139 -0.00471155 0)
(1.00205 -0.0116148 0)
(1.10961 -0.0145961 0)
(1.10449 -0.0128894 0)
(1.08376 -0.00969131 0)
(1.06893 -0.00603563 0)
(1.05839 -0.00186986 0)
(1.05083 0.00278837 0)
(1.04605 0.00785664 0)
(1.04502 0.0125379 0)
(1.04792 0.0161406 0)
(1.05457 0.0187661 0)
(1.06535 0.020711 0)
(1.08197 0.0224899 0)
(1.09931 0.0236515 0)
(1.05876 0.0214624 0)
(0.838826 0.0126624 0)
(0.467521 0.00370949 0)
(0.0922115 0.00016263 0)
(0.101108 -4.00059e-05 0)
(0.680218 -0.0036196 0)
(0.987621 -0.00946074 0)
(1.10905 -0.0123725 0)
(1.10963 -0.0107854 0)
(1.08904 -0.00753424 0)
(1.07387 -0.00379737 0)
(1.063 0.000426216 0)
(1.05507 0.00507445 0)
(1.04981 0.0100319 0)
(1.04824 0.0144718 0)
(1.05069 0.0177567 0)
(1.05708 0.0200447 0)
(1.06777 0.0216473 0)
(1.08444 0.0231565 0)
(1.09868 0.0238986 0)
(1.04427 0.0209533 0)
(0.810211 0.0119613 0)
(0.44606 0.00351165 0)
(0.0873994 0.000158158 0)
(0.099718 -1.51187e-05 0)
(0.666793 -0.00261079 0)
(0.974998 -0.00738228 0)
(1.10832 -0.0100434 0)
(1.11471 -0.00849431 0)
(1.09448 -0.00515296 0)
(1.07892 -0.00127388 0)
(1.06768 0.00306859 0)
(1.05929 0.00776979 0)
(1.05343 0.0126652 0)
(1.05122 0.0168862 0)
(1.05314 0.0198576 0)
(1.05919 0.0217995 0)
(1.06976 0.0230408 0)
(1.08644 0.0242849 0)
(1.09681 0.0245702 0)
(1.02822 0.0207971 0)
(0.78231 0.0115861 0)
(0.425635 0.00342342 0)
(0.0827332 0.000158309 0)
(0.0990344 1.16697e-05 0)
(0.656708 -0.00163106 0)
(0.964497 -0.00530733 0)
(1.10776 -0.00754531 0)
(1.11987 -0.00594278 0)
(1.10015 -0.00246287 0)
(1.08417 0.00162483 0)
(1.07248 0.00615177 0)
(1.06353 0.0109733 0)
(1.05695 0.015856 0)
(1.05395 0.0198774 0)
(1.05523 0.0225303 0)
(1.0609 0.0241118 0)
(1.07132 0.0249728 0)
(1.08792 0.0259174 0)
(1.09364 0.0256961 0)
(1.01058 0.0210293 0)
(0.75466 0.0115101 0)
(0.405664 0.00343078 0)
(0.0780791 0.000162593 0)
(0.0990785 3.64851e-05 0)
(0.649934 -0.000633203 0)
(0.95642 -0.00316294 0)
(1.10771 -0.00480547 0)
(1.12526 -0.00304242 0)
(1.10615 0.000637137 0)
(1.08971 0.00500565 0)
(1.07749 0.00979458 0)
(1.06785 0.0148059 0)
(1.06039 0.0197237 0)
(1.05646 0.0235608 0)
(1.05697 0.0258828 0)
(1.06217 0.0270818 0)
(1.07241 0.0275467 0)
(1.08863 0.028124 0)
(1.089 0.0272875 0)
(0.991188 0.0216789 0)
(0.726728 0.0117155 0)
(0.385616 0.00352479 0)
(0.0733147 0.000170554 0)
(0.0998838 7.32498e-05 0)
(0.646543 0.000391347 0)
(0.951082 -0.000875973 0)
(1.10852 -0.00173883 0)
(1.1311 0.000303547 0)
(1.11261 0.00425996 0)
(1.09565 0.00899925 0)
(1.08278 0.0141355 0)
(1.07231 0.0194111 0)
(1.06379 0.0244125 0)
(1.05872 0.0280742 0)
(1.05833 0.0300428 0)
(1.06296 0.0308386 0)
(1.07298 0.0308764 0)
(1.08845 0.031034 0)
(1.0826 0.029445 0)
(0.969796 0.0227725 0)
(0.697943 0.0121921 0)
(0.365 0.0036975 0)
(0.0683324 0.000181551 0)
(0.101662 0.000108551 0)
(0.64692 0.00155543 0)
(0.948828 0.00163503 0)
(1.11064 0.00176749 0)
(1.13759 0.00418595 0)
(1.11965 0.00855763 0)
(1.1021 0.013766 0)
(1.08844 0.0193443 0)
(1.07696 0.0249629 0)
(1.06714 0.0300923 0)
(1.06073 0.0335805 0)
(1.05926 0.0351552 0)
(1.06322 0.0355122 0)
(1.07296 0.0350861 0)
(1.08714 0.0347595 0)
(1.07418 0.0322518 0)
(0.946015 0.0243558 0)
(0.667683 0.0129392 0)
(0.343345 0.00394469 0)
(0.0630352 0.000195233 0)
(0.104474 0.000158394 0)
(0.651477 0.00299593 0)
(0.950158 0.00453205 0)
(1.11454 0.00579901 0)
(1.14494 0.00878744 0)
(1.12743 0.0137155 0)
(1.1092 0.019509 0)
(1.09458 0.0256373 0)
(1.08185 0.0316792 0)
(1.07047 0.0369681 0)
(1.06243 0.0402509 0)
(1.05972 0.0413709 0)
(1.06288 0.0412565 0)
(1.07227 0.0403136 0)
(1.08451 0.0394423 0)
(1.06339 0.035811 0)
(0.919337 0.0264639 0)
(0.635278 0.0139499 0)
(0.320201 0.0042578 0)
(0.0573392 0.000210716 0)
(0.108595 0.000224326 0)
(0.660694 0.004677 0)
(0.955527 0.00795515 0)
(1.12072 0.010557 0)
(1.15344 0.0143011 0)
(1.13616 0.0199632 0)
(1.1171 0.0264834 0)
(1.1013 0.0332846 0)
(1.08702 0.0398282 0)
(1.07374 0.0452858 0)
(1.06381 0.0483013 0)
(1.05966 0.0488977 0)
(1.06185 0.0482465 0)
(1.07082 0.046718 0)
(1.08065 0.0452372 0)
(1.04976 0.0402278 0)
(0.889107 0.029125 0)
(0.600001 0.0152089 0)
(0.295145 0.00462438 0)
(0.0511803 0.000226748 0)
(0.114362 0.000313097 0)
(0.675321 0.0067713 0)
(0.965582 0.0121069 0)
(1.12975 0.0162798 0)
(1.16344 0.0209968 0)
(1.1461 0.0276228 0)
(1.12598 0.0350373 0)
(1.10869 0.0426386 0)
(1.0925 0.0497375 0)
(1.07693 0.0553267 0)
(1.06476 0.0579684 0)
(1.0589 0.0579044 0)
(1.06006 0.0566582 0)
(1.06855 0.0544873 0)
(1.07528 0.0522865 0)
(1.03268 0.0455876 0)
(0.854528 0.0323433 0)
(0.561105 0.0166803 0)
(0.267819 0.00502263 0)
(0.0445273 0.000241569 0)
(0.122289 0.000441041 0)
(0.696326 0.00951669 0)
(0.981197 0.017294 0)
(1.1423 0.0233103 0)
(1.17544 0.0292726 0)
(1.15756 0.0371549 0)
(1.13605 0.0456507 0)
(1.11684 0.0541622 0)
(1.09825 0.0618151 0)
(1.07992 0.0674139 0)
(1.06517 0.0695003 0)
(1.05735 0.0686219 0)
(1.05741 0.0666421 0)
(1.06539 0.0637442 0)
(1.06808 0.0606721 0)
(1.01137 0.0519524 0)
(0.814662 0.0360841 0)
(0.517862 0.0182948 0)
(0.237979 0.00541889 0)
(0.0373966 0.000252761 0)
(0.133102 0.00062416 0)
(0.72496 0.0132863 0)
(1.00353 0.0239889 0)
(1.15916 0.0321968 0)
(1.19003 0.0397301 0)
(1.17088 0.0492318 0)
(1.14745 0.0589933 0)
(1.12573 0.068462 0)
(1.10414 0.0765504 0)
(1.08254 0.0819061 0)
(1.06486 0.0831503 0)
(1.05492 0.081255 0)
(1.05376 0.0783987 0)
(1.06103 0.0746188 0)
(1.05837 0.0705278 0)
(0.984794 0.0593208 0)
(0.768464 0.0402365 0)
(0.469649 0.0199324 0)
(0.205581 0.00576395 0)
(0.0298715 0.000257368 0)
(0.148048 0.000915618 0)
(0.763218 0.0187035 0)
(1.03424 0.0329792 0)
(1.18126 0.0438807 0)
(1.20798 0.0534806 0)
(1.18637 0.0648936 0)
(1.16024 0.0760246 0)
(1.13519 0.0863223 0)
(1.10992 0.0945113 0)
(1.0845 0.0991675 0)
(1.06359 0.0991439 0)
(1.05143 0.0959503 0)
(1.049 0.0920598 0)
(1.05511 0.087426 0)
(1.04545 0.0818284 0)
(0.951675 0.0675602 0)
(0.714887 0.0445783 0)
(0.416137 0.0214111 0)
(0.170901 0.00599278 0)
(0.0221232 0.000251999 0)
(0.169322 0.00141979 0)
(0.814362 0.0269116 0)
(1.07589 0.0458161 0)
(1.20974 0.0602199 0)
(1.22989 0.0726071 0)
(1.20413 0.0857631 0)
(1.17414 0.0980622 0)
(1.14482 0.108675 0)
(1.11512 0.11629 0)
(1.08542 0.119529 0)
(1.06107 0.117652 0)
(1.04667 0.112803 0)
(1.043 0.107693 0)
(1.04761 0.102155 0)
(1.02826 0.0945764 0)
(0.910435 0.0763491 0)
(0.653132 0.048754 0)
(0.357612 0.0224961 0)
(0.134708 0.00603324 0)
(0.0144337 0.00023281 0)
(0.200311 0.00253604 0)
(0.884128 0.0405785 0)
(1.13217 0.0663366 0)
(1.24502 0.0848092 0)
(1.25549 0.0998242 0)
(1.22352 0.114183 0)
(1.18833 0.126696 0)
(1.15377 0.136493 0)
(1.11902 0.142418 0)
(1.08474 0.143232 0)
(1.05694 0.138747 0)
(1.04041 0.131811 0)
(1.03563 0.125245 0)
(1.03814 0.118614 0)
(1.00538 0.108476 0)
(0.859229 0.085071 0)
(0.583188 0.0522472 0)
(0.295686 0.0229975 0)
(0.0986485 0.0058584 0)
(0.00728284 0.000196894 0)
(0.242563 0.00877238 9.74551e-20)
(0.976584 0.067759 8.69316e-20)
(1.20075 0.100847 -3.03948e-20)
(1.28398 0.121307 0)
(1.28195 0.138738 -7.72111e-34)
(1.24239 0.152469 1.12734e-20)
(1.20125 0.163427 -2.01634e-20)
(1.16094 0.170997 0)
(1.12081 0.174147 4.10875e-34)
(1.08166 0.171733 -2.46184e-20)
(1.05021 0.164145 0)
(1.03142 0.154925 -2.90613e-20)
(1.0257 0.147029 -8.55806e-20)
(1.02535 0.140116 -4.03181e-20)
(0.973011 0.126052 -1.21023e-20)
(0.792221 0.0952701 -7.18366e-21)
(0.499804 0.0555008 0)
(0.228686 0.0233107 5.00552e-21)
(0.0627538 0.00578582 5.88612e-21)
(0.000650494 0.000168674 1.04564e-19)
(0.272021 0.0241152 7.31311e-20)
(1.05301 0.110431 1.05726e-21)
(1.25736 0.150014 8.1621e-21)
(1.31877 0.170595 0)
(1.30513 0.187933 -3.93918e-20)
(1.25852 0.199467 -4.46508e-20)
(1.21148 0.208093 -2.04153e-20)
(1.16534 0.213152 -7.22416e-20)
(1.11959 0.213486 0)
(1.07516 0.207895 1.05026e-19)
(1.03952 0.197285 1.03866e-19)
(1.01816 0.185774 3.07793e-20)
(1.01037 0.176026 1.11938e-19)
(1.00217 0.166535 1.56958e-19)
(0.922426 0.146658 0)
(0.702204 0.106196 2.20111e-19)
(0.402119 0.0585531 3.14948e-19)
(0.159213 0.0229622 3.48612e-19)
(0.0270417 0.0044956 -3.96666e-19)
(-0.00608514 -0.000483642 -7.35819e-21)
(0.273237 0.0401564 0)
(1.10136 0.165842 1.33615e-20)
(1.29546 0.210441 0)
(1.34578 0.230519 -5.20897e-20)
(1.32328 0.244833 0)
(1.27076 0.252466 -8.80903e-20)
(1.21818 0.257351 4.17762e-20)
(1.1665 0.2588 -1.45735e-19)
(1.11539 0.255465 -3.15684e-21)
(1.0659 0.246079 5.43824e-20)
(1.02627 0.232031 2.28012e-19)
(1.00238 0.217955 -4.63801e-22)
(0.992218 0.206173 -8.12358e-20)
(0.976032 0.193836 -1.47591e-19)
(0.876812 0.167339 1.74094e-19)
(0.638367 0.116768 -3.07654e-19)
(0.346034 0.0614961 -4.05029e-20)
(0.124169 0.0224403 0)
(0.00980705 0.00255979 -2.13903e-23)
(-0.00956359 -0.00134634 0)
(0.266807 0.0539337 1.79625e-19)
(1.1274 0.224466 -8.77021e-20)
(1.31887 0.275387 -6.65503e-20)
(1.36364 0.295656 2.48005e-20)
(1.33502 0.306056 -4.17066e-20)
(1.27805 0.30915 1.84701e-19)
(1.22089 0.309613 8.72324e-20)
(1.16441 0.306811 0)
(1.10848 0.299253 -2.73508e-19)
(1.05435 0.285598 0)
(1.01095 0.267775 -1.19712e-19)
(0.984581 0.250899 -1.47278e-19)
(0.972026 0.236827 -8.83659e-20)
(0.949406 0.221114 -1.0707e-19)
(0.8394 0.18808 0)
(0.597523 0.128823 0)
(0.317426 0.0669622 -2.62892e-19)
(0.107957 0.0231311 5.17429e-20)
(0.000911296 0.000705821 -3.02448e-20)
(-0.0119133 -0.00234316 -3.48292e-20)
(0.259103 0.066039 -7.6822e-20)
(1.13871 0.282925 0)
(1.33164 0.341212 1.38329e-19)
(1.3733 0.362174 7.03622e-20)
(1.3404 0.368743 9.59954e-20)
(1.28019 0.3673 0)
(1.21945 0.36323 8.56719e-20)
(1.15902 0.355987 1.61382e-19)
(1.09895 0.343985 1.40299e-19)
(1.04062 0.325842 2.55758e-19)
(0.993703 0.304047 0)
(0.964886 0.284196 -3.17492e-19)
(0.949981 0.267705 -1.90809e-19)
(0.922534 0.248709 -1.1266e-19)
(0.80831 0.209912 6.86021e-19)
(0.57181 0.143103 8.1137e-20)
(0.304679 0.0748796 3.79644e-19)
(0.103914 0.0253353 -1.7969e-18)
(-0.00162007 -0.000505008 1.05933e-18)
(-0.0131199 -0.0032588 -1.25661e-18)
(0.2517 0.0769589 -4.30153e-20)
(1.14064 0.339383 1.42922e-20)
(1.33668 0.406035 -1.55063e-20)
(1.37638 0.428182 -7.31401e-20)
(1.34038 0.431157 -8.21484e-20)
(1.27775 0.425358 3.59077e-21)
(1.21418 0.416914 -9.27559e-20)
(1.1505 0.405313 1.67112e-19)
(1.08686 0.388898 -3.01855e-19)
(1.02479 0.366243 0)
(0.974618 0.340406 -1.44044e-19)
(0.943408 0.317494 -3.20824e-21)
(0.926208 0.298508 -2.08679e-19)
(0.895397 0.276365 0)
(0.781512 0.232601 -1.48595e-19)
(0.555063 0.159363 -3.50943e-19)
(0.301589 0.0851248 9.30216e-19)
(0.107187 0.0293812 -9.1722e-19)
(0.000808898 -0.000487172 1.29858e-18)
(-0.0130686 -0.00390155 -1.32895e-18)
(0.245436 0.0870275 -8.17225e-22)
(1.13671 0.393161 -6.64862e-21)
(1.33616 0.468857 -4.55711e-20)
(1.37429 0.492477 3.00813e-20)
(1.33603 0.492257 -4.15128e-20)
(1.27157 0.482388 0)
(1.20571 0.469824 -8.68782e-20)
(1.1393 0.454072 -1.75155e-19)
(1.07259 0.433405 -1.57076e-19)
(1.00718 0.406346 0)
(0.953973 0.376516 -1.49691e-19)
(0.920445 0.350575 -1.84848e-19)
(0.901065 0.329157 2.26392e-19)
(0.867885 0.304104 -1.37052e-19)
(0.756941 0.255709 -6.49733e-19)
(0.542197 0.177137 3.83798e-19)
(0.302252 0.0969181 1.13162e-19)
(0.114035 0.035119 0)
(0.00648819 0.000981961 -1.2568e-18)
(-0.0119578 -0.00414493 -4.54205e-20)
(0.240421 0.0965707 8.63834e-23)
(1.12926 0.444074 1.68931e-21)
(1.33157 0.529218 2.17409e-20)
(1.3683 0.55436 1.06542e-19)
(1.3283 0.551381 -1.54554e-19)
(1.26243 0.53781 1.78132e-19)
(1.19472 0.521428 1.87127e-19)
(1.126 0.501788 -2.79958e-19)
(1.05656 0.477104 9.64615e-20)
(0.988103 0.445822 -6.29058e-19)
(0.93208 0.412124 -1.69023e-19)
(0.896346 0.383225 0)
(0.874914 0.359439 2.45683e-19)
(0.839973 0.331521 2.94089e-19)
(0.732911 0.278977 3.50718e-19)
(0.53004 0.195705 -4.17763e-19)
(0.303624 0.109672 -1.23158e-19)
(0.121568 0.0422893 1.4479e-19)
(0.0135132 0.00365651 0)
(-0.0102259 -0.0040281 -9.87278e-20)
(0.236567 0.105741 -4.45084e-20)
(1.11993 0.492227 1.52512e-20)
(1.32418 0.586949 -1.99865e-20)
(1.35942 0.613503 6.54712e-20)
(1.318 0.608134 -7.0422e-20)
(1.25106 0.591226 -8.14003e-21)
(1.18183 0.571379 -2.04379e-19)
(1.11111 0.548163 -1.01258e-19)
(1.03923 0.519726 -2.72899e-19)
(0.96796 0.484447 6.3749e-22)
(0.909297 0.44703 -5.30128e-19)
(0.871493 0.415242 4.45743e-19)
(0.848189 0.389122 -2.70062e-19)
(0.811838 0.358468 3.24198e-19)
(0.708447 0.301921 0)
(0.516687 0.214404 -2.27498e-19)
(0.302897 0.12278 3.71262e-22)
(0.128003 0.0502563 -6.32608e-19)
(0.0205089 0.00713279 -9.24227e-20)
(-0.00820135 -0.00361661 0)
(0.233762 0.114683 0)
(1.10966 0.537849 2.30526e-20)
(1.31487 0.642347 -2.00269e-20)
(1.34846 0.669764 -6.05825e-20)
(1.30581 0.662306 -8.84828e-20)
(1.23803 0.642414 0)
(1.16755 0.619451 -9.35325e-20)
(1.09509 0.592989 -2.0964e-21)
(1.021 0.561106 5.85032e-19)
(0.947098 0.522079 -8.65729e-20)
(0.885914 0.481074 -3.82707e-19)
(0.846154 0.446455 2.32027e-19)
(0.821122 0.41803 -4.45781e-21)
(0.783428 0.384559 3.45184e-19)
(0.682751 0.324201 2.11863e-19)
(0.501545 0.232363 -4.9172e-19)
(0.299122 0.135587 5.80578e-19)
(0.131767 0.0582212 1.7168e-19)
(0.0261348 0.0108405 7.04219e-19)
(-0.00628288 -0.00305158 -1.85246e-18)
(0.231924 0.123563 -2.51623e-20)
(1.09914 0.581126 2.78613e-20)
(1.30432 0.694776 -1.34217e-20)
(1.33604 0.723116 4.86853e-20)
(1.2923 0.713797 0)
(1.22387 0.691244 -8.33085e-20)
(1.15234 0.665513 3.13871e-19)
(1.07835 0.636141 2.22529e-19)
(1.00222 0.601128 0)
(0.925789 0.558622 -1.24581e-18)
(0.86215 0.514156 1.03545e-18)
(0.820534 0.476765 0)
(0.793897 0.446013 3.15755e-19)
(0.754883 0.409595 -4.45513e-21)
(0.656372 0.345097 -6.7895e-19)
(0.484319 0.248765 2.64753e-19)
(0.292277 0.14726 0)
(0.132186 0.0653656 9.25727e-19)
(0.0296325 0.0141039 0)
(-0.00474698 -0.00249759 -8.77188e-19)
(0.230902 0.132427 3.32015e-20)
(1.08881 0.62226 4.51069e-20)
(1.29297 0.744337 -1.07952e-20)
(1.32261 0.773569 0)
(1.27793 0.762584 -7.68283e-20)
(1.20898 0.737676 0)
(1.13657 0.709494 -3.11007e-19)
(1.06121 0.677542 -1.03954e-19)
(0.983167 0.639731 1.03565e-19)
(0.904294 0.59403 -6.1622e-19)
(0.838207 0.54626 1.07046e-19)
(0.794767 0.50611 0)
(0.766625 0.472903 -6.74608e-19)
(0.726259 0.433269 4.34542e-21)
(0.629202 0.364195 0)
(0.464899 0.263131 2.48663e-21)
(0.282344 0.156943 8.49514e-19)
(0.129375 0.07085 -7.98996e-19)
(0.0306868 0.016401 2.34671e-19)
(-0.00377084 -0.00211179 0)
(0.230381 0.141183 0)
(1.07898 0.661313 6.00635e-20)
(1.28107 0.791195 2.97525e-20)
(1.30861 0.821173 -4.97968e-21)
(1.26307 0.808693 -2.67673e-20)
(1.19372 0.781708 -1.88056e-19)
(1.12056 0.751378 1.1643e-19)
(1.04396 0.717161 -1.22248e-19)
(0.964119 0.676879 4.61558e-19)
(0.882824 0.628292 -9.8567e-19)
(0.81424 0.577396 -8.01894e-21)
(0.768953 0.534453 -2.95887e-19)
(0.739315 0.498551 1.09443e-18)
(0.697512 0.455326 -5.15668e-21)
(0.601417 0.381176 -5.26919e-19)
(0.44366 0.274989 -9.35173e-19)
(0.269681 0.164391 0)
(0.123889 0.0743902 0)
(0.0298258 0.0175201 2.53212e-19)
(-0.00327527 -0.00195482 -1.46387e-19)
(0.230523 0.149969 5.31268e-20)
(1.06971 0.698187 -1.42677e-19)
(1.2689 0.835448 -3.21287e-20)
(1.29435 0.865997 0)
(1.24801 0.852181 -3.00774e-21)
(1.17835 0.82337 -1.74249e-19)
(1.10457 0.791171 2.8263e-19)
(1.02684 0.754993 4.83035e-19)
(0.945289 0.712568 6.00657e-19)
(0.861578 0.661422 -8.05861e-19)
(0.790395 0.6076 -8.90307e-19)
(0.743139 0.561793 7.91336e-19)
(0.711959 0.522901 0)
(0.668609 0.475539 -2.39908e-19)
(0.572996 0.395745 -5.69248e-19)
(0.420579 0.28408 -6.72004e-19)
(0.254685 0.169096 -7.91402e-19)
(0.116009 0.0758217 2.32999e-19)
(0.0274081 0.0175289 -1.36094e-19)
(-0.00316736 -0.00200688 5.69186e-22)
(0.230801 0.158669 0)
(1.06113 0.73333 0)
(1.2567 0.877193 4.91125e-21)
(1.28005 0.908171 0)
(1.23297 0.893139 6.37751e-20)
(1.16309 0.862721 1.20065e-19)
(1.08879 0.828904 0)
(1.01005 0.791048 5.76858e-20)
(0.926865 0.746801 1.00363e-18)
(0.840737 0.693446 -1.85237e-18)
(0.766802 0.636932 0)
(0.717364 0.588185 -5.09406e-19)
(0.684477 0.545957 -6.06755e-21)
(0.639411 0.49376 -4.69326e-21)
(0.543982 0.407628 6.08917e-19)
(0.39615 0.290124 -2.33065e-22)
(0.237895 0.170976 -1.70436e-18)
(0.106291 0.075152 5.01083e-19)
(0.0237837 0.0165152 1.47327e-19)
(-0.00329276 -0.00219367 0)
(0.231206 0.167229 -2.2811e-19)
(1.05301 0.766827 -1.06199e-19)
(1.24457 0.916515 -1.2116e-19)
(1.26587 0.947817 6.04795e-20)
(1.21815 0.931643 8.31526e-20)
(1.14812 0.899827 0)
(1.07339 0.864621 1.72471e-19)
(0.99373 0.825352 -1.28305e-19)
(0.909 0.779596 7.76871e-21)
(0.820463 0.724402 1.36312e-19)
(0.743583 0.665465 1.1532e-18)
(0.691656 0.613762 -1.7875e-19)
(0.656767 0.567799 -6.73998e-19)
(0.609773 0.50984 -2.7908e-19)
(0.51441 0.416492 3.30124e-19)
(0.37099 0.292878 1.2965e-22)
(0.21982 0.169924 4.58569e-19)
(0.0955124 0.0724919 -1.0772e-18)
(0.0195979 0.0146743 1.2674e-18)
(-0.00355534 -0.00247395 1.82059e-19)
(0.2315 0.175541 8.90385e-20)
(1.04533 0.798764 -6.14682e-20)
(1.23264 0.953514 1.22167e-20)
(1.25194 0.985066 5.53146e-20)
(1.20367 0.967806 -4.4006e-21)
(1.13355 0.934761 -2.11313e-19)
(1.05849 0.898375 5.06469e-20)
(0.97801 0.857929 -5.3537e-19)
(0.891825 0.810956 -1.10773e-18)
(0.800889 0.7543 -1.10457e-18)
(0.720876 0.693282 0)
(0.666059 0.638704 -7.8426e-19)
(0.628719 0.588561 9.70859e-19)
(0.57942 0.523654 0)
(0.484182 0.421959 -7.06747e-19)
(0.345647 0.291938 4.19404e-19)
(0.201769 0.165805 -4.92592e-19)
(0.0849374 0.068175 -5.78971e-19)
(0.0155476 0.0123882 -1.01984e-18)
(-0.00384121 -0.00279738 -7.83337e-19)
(0.232147 0.18372 -1.02599e-19)
(1.03795 0.829132 6.57283e-20)
(1.22096 0.988262 1.45432e-19)
(1.23835 1.01999 9.11415e-20)
(1.18963 1.00172 1.75922e-20)
(1.11949 0.967612 -1.15772e-19)
(1.04417 0.930218 1.68579e-19)
(0.962978 0.88882 -5.51018e-19)
(0.875427 0.840905 -6.56464e-19)
(0.782136 0.783159 1.15705e-18)
(0.698808 0.720463 2.53241e-18)
(0.640646 0.663206 0)
(0.600225 0.608432 0)
(0.547993 0.535221 -3.20815e-19)
(0.452956 0.423649 0)
(0.320302 0.286473 9.00508e-19)
(0.185049 0.157826 1.05785e-18)
(0.0765422 0.0621516 0)
(0.0128383 0.0100007 0)
(-0.00406572 -0.00308943 8.40639e-19)
(0.232462 0.191467 1.19295e-19)
(1.03089 0.857922 9.76916e-20)
(1.2096 1.02088 1.06746e-19)
(1.22517 1.05271 -9.98329e-20)
(1.1761 1.0335 4.59973e-21)
(1.10599 0.998457 1.20613e-19)
(1.03051 0.960212 -2.31923e-19)
(0.948698 0.918054 -9.39007e-22)
(0.859887 0.869451 -1.00679e-20)
(0.764299 0.810979 -9.32231e-21)
(0.677524 0.747074 1.3038e-18)
(0.615528 0.687431 0)
(0.571245 0.62766 9.81994e-19)
(0.515105 0.544763 6.84472e-19)
(0.419995 0.421406 1.64493e-18)
(0.294462 0.275241 4.84569e-19)
(0.171048 0.143384 -5.68561e-19)
(0.0744906 0.0514849 -3.32889e-19)
(0.0172668 0.00631062 0)
(-0.00232844 -0.00269672 9.02583e-19)
(0.233081 0.19923 -2.73114e-19)
(1.02411 0.885224 0)
(1.19854 1.05142 1.31778e-19)
(1.21243 1.0833 -8.91283e-20)
(1.16312 1.06324 1.69952e-20)
(1.0931 1.02738 -1.31193e-19)
(1.01755 0.988413 4.52783e-19)
(0.935208 0.945668 -4.44583e-20)
(0.845249 0.896605 0)
(0.747457 0.837736 -1.27698e-18)
(0.657165 0.773144 -2.83488e-18)
(0.590856 0.711518 1.15714e-19)
(0.54185 0.646534 1.35454e-18)
(0.480488 0.552754 0)
(0.384168 0.415704 1.10895e-18)
(0.265864 0.257291 0)
(0.157861 0.116831 0)
(0.0836582 0.022098 -3.59419e-19)
(0.0503303 -0.00910522 0)
(0.0270992 0.0104923 2.41558e-19)
(0.233344 0.206398 -3.0963e-19)
(1.01758 0.911383 0)
(1.18779 1.08009 2.24158e-19)
(1.20009 1.112 0)
(1.15067 1.0912 -1.77963e-20)
(1.08076 1.05468 0)
(1.00522 1.01513 2.26336e-20)
(0.922413 0.971998 7.57319e-20)
(0.831391 0.922728 8.20586e-20)
(0.731441 0.863814 -1.39909e-18)
(0.637546 0.799116 8.5106e-20)
(0.566387 0.736089 9.29413e-19)
(0.511632 0.665855 1.31968e-18)
(0.443255 0.559855 1.77624e-19)
(0.343591 0.408071 8.68238e-19)
(0.229641 0.233554 0)
(0.133548 0.0741516 1.19559e-18)
(0.0728405 -0.0219281 -6.91992e-19)
(0.0410467 0.0454337 7.99342e-19)
(-0.0595655 0.435821 -9.48428e-19)
(0.233585 0.213372 2.59051e-19)
(1.01101 0.936167 4.00723e-19)
(1.17727 1.10721 0)
(1.188 1.13926 9.72045e-21)
(1.13854 1.11797 6.69499e-20)
(1.06869 1.08102 1.58778e-19)
(0.993209 1.04117 1.57924e-19)
(0.909898 0.99798 0)
(0.817776 0.948906 5.46178e-19)
(0.715579 0.890517 -7.33173e-20)
(0.617754 0.82648 0)
(0.540865 0.762832 0)
(0.478643 0.687113 1.18392e-18)
(0.401039 0.566624 -5.49135e-19)
(0.295126 0.400519 -8.80415e-19)
(0.181061 0.20757 0)
(0.0774733 0.0821249 5.96661e-19)
(0.00582234 0.440642 -6.83316e-19)
(0.0314614 1.89531 -3.76483e-19)
(0.0622588 2.81112 -4.95976e-19)
(0.233603 0.219593 -1.96577e-19)
(1.00453 0.959743 -5.18606e-19)
(1.16698 1.13275 1.36072e-19)
(1.17618 1.16495 1.01081e-19)
(1.12677 1.14332 0)
(1.05699 1.10613 8.84736e-20)
(0.981717 1.06621 2.16788e-19)
(0.897855 1.02318 -3.68507e-20)
(0.804678 0.974624 8.14689e-20)
(0.700251 0.91724 1.3363e-18)
(0.598384 0.854575 1.43488e-18)
(0.515227 0.791383 1.04454e-18)
(0.443695 0.710338 1.19206e-18)
(0.355354 0.572012 -1.29142e-18)
(0.244653 0.397017 -1.3302e-18)
(0.121408 0.250634 0)
(0.04354 0.832387 0)
(0.0981882 2.55421 3.2909e-19)
(0.101065 3.2026 0)
(0.103727 3.38832 7.25719e-19)
(0.23665 0.225374 0)
(0.998717 0.982386 0)
(1.15665 1.15658 0)
(1.16439 1.18892 3.26275e-20)
(1.11499 1.16699 6.55176e-20)
(1.04544 1.12987 3.86177e-20)
(0.970643 1.09015 1.39654e-19)
(0.88623 1.04749 -3.60526e-20)
(0.792046 0.999731 6.84346e-19)
(0.685472 0.943835 -1.78609e-20)
(0.579565 0.883269 2.83918e-18)
(0.489795 0.821606 -1.20484e-19)
(0.406873 0.736422 1.4458e-19)
(0.308637 0.57395 1.87083e-19)
(0.183658 0.40982 -7.36954e-21)
(0.0993287 0.96406 3.55979e-21)
(0.138427 2.72623 -1.7419e-18)
(0.145728 3.29364 -6.45751e-19)
(0.135057 3.42573 3.26732e-19)
(0.12288 3.44764 -3.59682e-19)
(0.156588 0.177546 1.141e-19)
(0.988367 1.007 0)
(1.14599 1.17884 -2.7502e-19)
(1.15308 1.2116 -2.84858e-19)
(1.10395 1.18969 1.90431e-19)
(1.03487 1.15285 -3.0054e-20)
(0.959887 1.11303 -1.44011e-19)
(0.875104 1.07102 4.03845e-19)
(0.780021 1.02437 -5.59585e-19)
(0.671513 0.970466 0)
(0.561676 0.912743 1.39345e-18)
(0.465098 0.85327 -8.53946e-19)
(0.36945 0.768085 0)
(0.254271 0.574043 1.68995e-19)
(0.143095 0.745458 4.11058e-19)
(0.153945 2.50128 -4.79783e-19)
(0.209234 3.32291 5.30455e-19)
(0.190088 3.43787 2.87869e-19)
(0.157896 3.45944 3.17146e-19)
(0.136641 3.46973 5.1231e-19)
(0.276675 0.263583 -2.00183e-19)
(0.972247 1.01671 0)
(1.12795 1.20444 3.10216e-19)
(1.13841 1.24211 3.24043e-19)
(1.08674 1.22285 -2.31067e-19)
(1.01695 1.18642 -1.7022e-20)
(0.94096 1.14819 1.39234e-19)
(0.855684 1.10744 3.16227e-20)
(0.759312 1.06301 5.38132e-19)
(0.648103 1.01312 1.15995e-18)
(0.533052 0.961948 7.90931e-20)
(0.425945 0.907705 7.61613e-19)
(0.301245 0.807278 1.35091e-19)
(0.213143 0.923733 -1.71319e-19)
(0.227624 2.35254 -3.83312e-19)
(0.287376 3.32557 3.62069e-19)
(0.270961 3.46607 -4.09044e-19)
(0.235575 3.48815 -2.37458e-19)
(0.19911 3.51563 -1.95682e-19)
(0.148459 3.50952 -1.87065e-20)
(0.265823 0.261151 0)
(0.970101 1.03971 9.4426e-20)
(1.11965 1.22802 -6.58198e-20)
(1.12788 1.26586 -4.0605e-20)
(1.07597 1.24607 -1.70173e-19)
(1.00612 1.20984 2.75585e-20)
(0.929835 1.1718 -7.38834e-20)
(0.844362 1.13186 2.85555e-20)
(0.747463 1.08892 -5.63129e-19)
(0.63496 1.04192 -2.71473e-20)
(0.517074 0.995654 -2.53833e-18)
(0.404784 0.945498 1.08784e-19)
(0.283619 0.873059 -1.27169e-19)
(0.253697 1.48466 -1.59797e-19)
(0.327477 3.10314 3.49433e-20)
(0.346957 3.46417 8.68141e-22)
(0.306238 3.5195 6.09444e-19)
(0.269328 3.54629 2.99734e-19)
(0.220935 3.56947 -7.8148e-20)
(0.163569 3.5654 -9.12481e-20)
(0.250201 0.259268 2.41681e-19)
(0.966489 1.06528 6.52671e-19)
(1.11092 1.25364 -1.89906e-19)
(1.11672 1.29096 -1.53522e-19)
(1.06458 1.27067 0)
(0.994862 1.23447 1.01991e-19)
(0.918572 1.19668 -7.76519e-20)
(0.833172 1.15753 2.52573e-20)
(0.736066 1.11617 -6.27215e-20)
(0.622805 1.07232 -1.05825e-18)
(0.502953 1.03136 -1.17547e-18)
(0.38717 0.985014 -8.89223e-19)
(0.28647 1.00277 -9.73956e-19)
(0.323285 2.20908 9.96239e-19)
(0.41396 3.37573 8.21802e-19)
(0.39113 3.52153 0)
(0.344983 3.56608 0)
(0.306886 3.60615 -6.41551e-20)
(0.256912 3.66464 0)
(0.175933 3.641 -6.95914e-20)
(0.239803 0.261199 -3.68162e-19)
(0.960778 1.09175 -5.62536e-19)
(1.10076 1.28048 0)
(1.10421 1.31678 1.1551e-20)
(1.05193 1.29587 -2.04099e-19)
(0.982502 1.25961 1.96118e-19)
(0.906531 1.22211 -3.26396e-20)
(0.821415 1.18366 1.52628e-20)