0.490941 	1.17943 	0.00611646 	3.00279 	0
0.561075 	1.17943 	0.00611646 	3.00279 	0
0.63121 	1.17943 	0.00611646 	3.00279 	0
0.701344 	1.17943 	0.00611646 	3.00279 	0
0.771478 	1.17943 	0.00611646 	3.00279 	0
0.841613 	1.17943 	0.00611646 	3.00279 	0
0.911747 	1.17943 	0.00611646 	3.00279 	0
0.981881 	1.17943 	0.00611646 	3.00279 	0
1.05202 	1.17943 	0.00611646 	3.00279 	0
1.12215 	1.17943 	0.00611646 	3.00279 	0
1.19228 	1.17943 	0.00611646 	3.00279 	0
1.26242 	1.1533 	0.0115098 	3.00802 	0
1.33255 	1.1533 	0.0115098 	3.00802 	0
1.40269 	1.1533 	0.0115098 	3.00802 	0
1.47282 	1.1533 	0.0115098 	3.00802 	0
1.54296 	1.1533 	0.0115098 	3.00802 	0
1.61309 	1.1533 	0.0115098 	3.00802 	0
1.68323 	1.1533 	0.0115098 	3.00802 	0
1.75336 	1.1533 	0.0115098 	3.00802 	0
1.82349 	1.10345 	0.0148952 	3.02376 	4.23463e-19
1.89363 	1.10345 	0.0148952 	3.02376 	4.23463e-19
1.96376 	1.10345 	0.0148952 	3.02376 	4.23463e-19
2.0339 	1.10345 	0.0148952 	3.02376 	4.23463e-19
2.10403 	1.10345 	0.0148952 	3.02376 	4.23463e-19
2.17417 	1.10345 	0.0148952 	3.02376 	4.23463e-19
2.2443 	1.10345 	0.0148952 	3.02376 	4.23463e-19
2.31443 	1.10345 	0.0148952 	3.02376 	4.23463e-19
2.38457 	1.10345 	0.0148952 	3.02376 	4.23463e-19
2.4547 	1.10345 	0.0148952 	3.02376 	4.23463e-19
2.52484 	1.10345 	0.0148952 	3.02376 	4.23463e-19
2.59497 	1.0688 	0.00739868 	3.03691 	-6.72579e-19
2.66511 	1.0688 	0.00739868 	3.03691 	-6.72579e-19
2.73524 	1.0688 	0.00739868 	3.03691 	-6.72579e-19
2.80538 	1.0688 	0.00739868 	3.03691 	-6.72579e-19
2.87551 	1.0688 	0.00739868 	3.03691 	-6.72579e-19
2.94564 	1.0688 	0.00739868 	3.03691 	-6.72579e-19
3.01578 	1.0688 	0.00739868 	3.03691 	-6.72579e-19
3.08591 	1.0688 	0.00739868 	3.03691 	-6.72579e-19
3.15605 	1.0688 	0.00739868 	3.03691 	-6.72579e-19
3.22618 	1.0688 	0.00739868 	3.03691 	-6.72579e-19
3.29632 	1.0365 	0.0201113 	3.04337 	6.78403e-19
3.36645 	1.0365 	0.0201113 	3.04337 	6.78403e-19
3.43659 	1.0365 	0.0201113 	3.04337 	6.78403e-19
3.50672 	1.0365 	0.0201113 	3.04337 	6.78403e-19
3.57685 	1.0365 	0.0201113 	3.04337 	6.78403e-19
3.64699 	1.0365 	0.0201113 	3.04337 	6.78403e-19
3.71712 	1.0365 	0.0201113 	3.04337 	6.78403e-19
3.78726 	1.0365 	0.0201113 	3.04337 	6.78403e-19
3.85739 	1.0365 	0.0201113 	3.04337 	6.78403e-19
3.92753 	1.0365 	0.0201113 	3.04337 	6.78403e-19
3.99766 	1.0365 	0.0201113 	3.04337 	6.78403e-19
4.06779 	1.01834 	0.00368349 	3.05026 	-1.90968e-20
4.13793 	1.01834 	0.00368349 	3.05026 	-1.90968e-20
4.20806 	1.01834 	0.00368349 	3.05026 	-1.90968e-20
4.2782 	1.01834 	0.00368349 	3.05026 	-1.90968e-20
4.34833 	1.01834 	0.00368349 	3.05026 	-1.90968e-20
4.41847 	1.01834 	0.00368349 	3.05026 	-1.90968e-20
4.4886 	0.993405 	0.016519 	3.0578 	0
4.55874 	0.993405 	0.016519 	3.0578 	0
4.62887 	0.993405 	0.016519 	3.0578 	0
4.699 	0.993405 	0.016519 	3.0578 	0
4.76914 	0.993405 	0.016519 	3.0578 	0
4.83927 	0.993405 	0.016519 	3.0578 	0
4.90941 	0.993405 	0.016519 	3.0578 	0
4.97954 	0.993405 	0.016519 	3.0578 	0
5.04968 	0.993405 	0.016519 	3.0578 	0
5.11981 	0.993405 	0.016519 	3.0578 	0
5.18994 	0.970967 	0.00568299 	3.06475 	-9.04265e-21
5.26008 	0.970967 	0.00568299 	3.06475 	-9.04265e-21
5.33021 	0.970967 	0.00568299 	3.06475 	-9.04265e-21
5.40035 	0.970967 	0.00568299 	3.06475 	-9.04265e-21
5.47048 	0.970967 	0.00568299 	3.06475 	-9.04265e-21
5.54062 	0.970967 	0.00568299 	3.06475 	-9.04265e-21
5.61075 	0.970967 	0.00568299 	3.06475 	-9.04265e-21
5.68089 	0.942206 	0.0113604 	3.07458 	0
5.75102 	0.942206 	0.0113604 	3.07458 	0
5.82115 	0.942206 	0.0113604 	3.07458 	0
5.89129 	0.942206 	0.0113604 	3.07458 	0
5.96142 	0.942206 	0.0113604 	3.07458 	0
6.03156 	0.942206 	0.0113604 	3.07458 	0
6.10169 	0.942206 	0.0113604 	3.07458 	0
6.17183 	0.942206 	0.0113604 	3.07458 	0
6.24196 	0.942206 	0.0113604 	3.07458 	0
6.3121 	0.913703 	0.00705544 	3.08213 	0
6.38223 	0.913703 	0.00705544 	3.08213 	0
6.45236 	0.913703 	0.00705544 	3.08213 	0
6.5225 	0.913703 	0.00705544 	3.08213 	0
6.59263 	0.913703 	0.00705544 	3.08213 	0
6.66277 	0.913703 	0.00705544 	3.08213 	0
6.7329 	0.913703 	0.00705544 	3.08213 	0
6.80304 	0.913703 	0.00705544 	3.08213 	0
6.87317 	0.887228 	0.00621069 	3.09142 	3.04801e-19
6.9433 	0.887228 	0.00621069 	3.09142 	3.04801e-19
7.01344 	0.887228 	0.00621069 	3.09142 	3.04801e-19
7.08357 	0.887228 	0.00621069 	3.09142 	3.04801e-19
7.15371 	0.887228 	0.00621069 	3.09142 	3.04801e-19
7.22384 	0.887228 	0.00621069 	3.09142 	3.04801e-19
7.29398 	0.887228 	0.00621069 	3.09142 	3.04801e-19
7.36411 	0.887228 	0.00621069 	3.09142 	3.04801e-19
7.43425 	0.887228 	0.00621069 	3.09142 	3.04801e-19
7.50438 	0.856548 	0.00847171 	3.10006 	-2.27091e-18
7.57451 	0.856548 	0.00847171 	3.10006 	-2.27091e-18
7.64465 	0.856548 	0.00847171 	3.10006 	-2.27091e-18
7.71478 	0.856548 	0.00847171 	3.10006 	-2.27091e-18
7.78492 	0.856548 	0.00847171 	3.10006 	-2.27091e-18
7.85505 	0.856548 	0.00847171 	3.10006 	-2.27091e-18
7.92519 	0.856548 	0.00847171 	3.10006 	-2.27091e-18
7.99532 	0.856548 	0.00847171 	3.10006 	-2.27091e-18
8.06545 	0.836614 	0.00204456 	3.10478 	2.28165e-18
8.13559 	0.836614 	0.00204456 	3.10478 	2.28165e-18
8.20572 	0.836614 	0.00204456 	3.10478 	2.28165e-18
8.27586 	0.836614 	0.00204456 	3.10478 	2.28165e-18
8.34599 	0.836614 	0.00204456 	3.10478 	2.28165e-18
8.41613 	0.836614 	0.00204456 	3.10478 	2.28165e-18
8.48626 	0.836614 	0.00204456 	3.10478 	2.28165e-18
8.5564 	0.836614 	0.00204456 	3.10478 	2.28165e-18
8.62653 	0.836614 	0.00204456 	3.10478 	2.28165e-18
8.69666 	0.802858 	0.0111548 	3.11934 	2.02279e-18
8.7668 	0.802858 	0.0111548 	3.11934 	2.02279e-18
8.83693 	0.802858 	0.0111548 	3.11934 	2.02279e-18
8.90707 	0.802858 	0.0111548 	3.11934 	2.02279e-18
8.9772 	0.802858 	0.0111548 	3.11934 	2.02279e-18
9.04734 	0.802858 	0.0111548 	3.11934 	2.02279e-18
9.11747 	0.802858 	0.0111548 	3.11934 	2.02279e-18
9.18761 	0.802858 	0.0111548 	3.11934 	2.02279e-18
9.25774 	0.772553 	0.0040472 	3.119 	-1.84098e-18
9.32787 	0.772553 	0.0040472 	3.119 	-1.84098e-18
9.39801 	0.772553 	0.0040472 	3.119 	-1.84098e-18
9.46814 	0.772553 	0.0040472 	3.119 	-1.84098e-18
9.53828 	0.772553 	0.0040472 	3.119 	-1.84098e-18
9.60841 	0.772553 	0.0040472 	3.119 	-1.84098e-18
9.67855 	0.772553 	0.0040472 	3.119 	-1.84098e-18
9.74868 	0.772553 	0.0040472 	3.119 	-1.84098e-18
9.81881 	0.756881 	0.0177311 	3.12955 	-5.85452e-19
9.88895 	0.756881 	0.0177311 	3.12955 	-5.85452e-19
9.95908 	0.756881 	0.0177311 	3.12955 	-5.85452e-19
10.0292 	0.756881 	0.0177311 	3.12955 	-5.85452e-19
10.0994 	0.756881 	0.0177311 	3.12955 	-5.85452e-19
10.1695 	0.756881 	0.0177311 	3.12955 	-5.85452e-19
10.2396 	0.756881 	0.0177311 	3.12955 	-5.85452e-19
10.3098 	0.756881 	0.0177311 	3.12955 	-5.85452e-19
10.3799 	0.756881 	0.0177311 	3.12955 	-5.85452e-19
10.45 	0.756881 	0.0177311 	3.12955 	-5.85452e-19
10.5202 	0.756881 	0.0177311 	3.12955 	-5.85452e-19
10.5903 	0.756881 	0.0177311 	3.12955 	-5.85452e-19
10.6604 	0.777587 	0.0160083 	3.12561 	8.61703e-19
10.7306 	0.72568 	0.036024 	3.13954 	0
10.8007 	0.72568 	0.036024 	3.13954 	0
10.8708 	0.72568 	0.036024 	3.13954 	0
10.941 	0.72568 	0.036024 	3.13954 	0
11.0111 	0.72568 	0.036024 	3.13954 	0
11.0812 	0.72568 	0.036024 	3.13954 	0
11.1514 	0.72568 	0.036024 	3.13954 	0
11.2215 	0.72568 	0.036024 	3.13954 	0
11.2916 	0.72568 	0.036024 	3.13954 	0
11.3618 	0.72568 	0.036024 	3.13954 	0
11.4319 	0.72568 	0.036024 	3.13954 	0
11.502 	0.72568 	0.036024 	3.13954 	0
11.5722 	0.72568 	0.036024 	3.13954 	0
11.6423 	0.72568 	0.036024 	3.13954 	0
11.7124 	0.733618 	0.0229593 	3.12922 	0
11.7826 	0.673245 	0.0765278 	3.16026 	9.82499e-19
11.8527 	0.673245 	0.0765278 	3.16026 	9.82499e-19
11.9228 	0.673245 	0.0765278 	3.16026 	9.82499e-19
11.993 	0.673245 	0.0765278 	3.16026 	9.82499e-19
12.0631 	0.673245 	0.0765278 	3.16026 	9.82499e-19
12.1332 	0.673245 	0.0765278 	3.16026 	9.82499e-19
12.2034 	0.576166 	0.0689829 	3.18654 	-4.87466e-19
12.2735 	0.576166 	0.0689829 	3.18654 	-4.87466e-19
12.3437 	0.576166 	0.0689829 	3.18654 	-4.87466e-19
12.4138 	0.576166 	0.0689829 	3.18654 	-4.87466e-19
12.4839 	0.576166 	0.0689829 	3.18654 	-4.87466e-19
12.5541 	0.576166 	0.0689829 	3.18654 	-4.87466e-19
12.6242 	0.576166 	0.0689829 	3.18654 	-4.87466e-19
12.6943 	0.576166 	0.0689829 	3.18654 	-4.87466e-19
12.7645 	0.576166 	0.0689829 	3.18654 	-4.87466e-19
12.8346 	0.461913 	0.0357502 	3.17898 	4.58359e-19
12.9047 	0.448289 	0.13667 	3.22205 	-2.30785e-19
12.9749 	0.448289 	0.13667 	3.22205 	-2.30785e-19
13.045 	0.448289 	0.13667 	3.22205 	-2.30785e-19
13.1151 	0.448289 	0.13667 	3.22205 	-2.30785e-19
13.1853 	0.448289 	0.13667 	3.22205 	-2.30785e-19
13.2554 	0.448289 	0.13667 	3.22205 	-2.30785e-19
13.3255 	0.448289 	0.13667 	3.22205 	-2.30785e-19
13.3957 	0.675478 	0.142032 	3.19316 	1.51398e-18
13.4658 	0.675478 	0.142032 	3.19316 	1.51398e-18
13.5359 	0.675478 	0.142032 	3.19316 	1.51398e-18
13.6061 	0.675478 	0.142032 	3.19316 	1.51398e-18
13.6762 	0.675478 	0.142032 	3.19316 	1.51398e-18
13.7463 	0.675478 	0.142032 	3.19316 	1.51398e-18
13.8165 	0.756626 	0.113748 	2.86701 	-1.25904e-18
13.8866 	0.962939 	0.136612 	2.96125 	5.8779e-19
13.9567 	0.962939 	0.136612 	2.96125 	5.8779e-19
14.0269 	0.378367 	0.246131 	3.03446 	-1.91955e-18
14.097 	0.378367 	0.246131 	3.03446 	-1.91955e-18
14.1671 	0.378367 	0.246131 	3.03446 	-1.91955e-18
14.2373 	0.378367 	0.246131 	3.03446 	-1.91955e-18
14.3074 	0.378367 	0.246131 	3.03446 	-1.91955e-18
14.3776 	0.378367 	0.246131 	3.03446 	-1.91955e-18
14.4477 	0.378367 	0.246131 	3.03446 	-1.91955e-18
14.5178 	0.378367 	0.246131 	3.03446 	-1.91955e-18
14.588 	0.378367 	0.246131 	3.03446 	-1.91955e-18
14.6581 	0.378367 	0.246131 	3.03446 	-1.91955e-18
14.7282 	0.378367 	0.246131 	3.03446 	-1.91955e-18
14.7984 	0.378367 	0.246131 	3.03446 	-1.91955e-18
14.8685 	0.378367 	0.246131 	3.03446 	-1.91955e-18
14.9386 	0.200016 	0.340734 	3.19379 	0
15.0088 	0.200016 	0.340734 	3.19379 	0
15.0789 	0.200016 	0.340734 	3.19379 	0
15.149 	0.200016 	0.340734 	3.19379 	0
15.2192 	0.200016 	0.340734 	3.19379 	0
15.2893 	-0.308443 	0.340705 	3.42099 	-1.89657e-19
15.3594 	-0.308443 	0.340705 	3.42099 	-1.89657e-19
15.4296 	-0.308443 	0.340705 	3.42099 	-1.89657e-19
15.4997 	-0.308443 	0.340705 	3.42099 	-1.89657e-19
15.5698 	-0.308443 	0.340705 	3.42099 	-1.89657e-19
15.64 	-0.308443 	0.340705 	3.42099 	-1.89657e-19
15.7101 	-0.804119 	0.395794 	3.49203 	0
15.7802 	-0.804119 	0.395794 	3.49203 	0
15.8504 	-0.699958 	0.64806 	3.54992 	1.24177e-18
15.9205 	-0.699958 	0.64806 	3.54992 	1.24177e-18
15.9906 	-0.699958 	0.64806 	3.54992 	1.24177e-18
16.0608 	-0.699958 	0.64806 	3.54992 	1.24177e-18
16.1309 	-0.699958 	0.64806 	3.54992 	1.24177e-18
16.201 	-0.699958 	0.64806 	3.54992 	1.24177e-18
16.2712 	-0.699958 	0.64806 	3.54992 	1.24177e-18
16.3413 	-0.699958 	0.64806 	3.54992 	1.24177e-18
16.4114 	-0.699958 	0.64806 	3.54992 	1.24177e-18
16.4816 	-0.699958 	0.64806 	3.54992 	1.24177e-18
16.5517 	-0.699958 	0.64806 	3.54992 	1.24177e-18
16.6219 	-0.699958 	0.64806 	3.54992 	1.24177e-18
16.692 	-0.699958 	0.64806 	3.54992 	1.24177e-18
16.7621 	-0.699958 	0.64806 	3.54992 	1.24177e-18
16.8323 	-0.249965 	0.872858 	3.11719 	5.50075e-20
16.9024 	-0.249965 	0.872858 	3.11719 	5.50075e-20
16.9725 	-0.249965 	0.872858 	3.11719 	5.50075e-20
17.0427 	-0.249965 	0.872858 	3.11719 	5.50075e-20
17.1128 	-0.249965 	0.872858 	3.11719 	5.50075e-20
17.1829 	-0.249965 	0.872858 	3.11719 	5.50075e-20
17.2531 	-0.249965 	0.872858 	3.11719 	5.50075e-20
17.3232 	-0.249965 	0.872858 	3.11719 	5.50075e-20
17.3933 	-0.249965 	0.872858 	3.11719 	5.50075e-20
17.4635 	-0.249965 	0.872858 	3.11719 	5.50075e-20
17.5336 	-0.159293 	0.913635 	3.034 	-2.35421e-20
17.6037 	-0.159293 	0.913635 	3.034 	-2.35421e-20
17.6739 	-0.159293 	0.913635 	3.034 	-2.35421e-20
17.744 	-0.251069 	1.0425 	3.16401 	1.20199e-19
17.8141 	-0.251069 	1.0425 	3.16401 	1.20199e-19
17.8843 	-0.251069 	1.0425 	3.16401 	1.20199e-19
17.9544 	-0.251069 	1.0425 	3.16401 	1.20199e-19
18.0245 	-0.251069 	1.0425 	3.16401 	1.20199e-19
18.0947 	-0.251069 	1.0425 	3.16401 	1.20199e-19
18.1648 	-0.251069 	1.0425 	3.16401 	1.20199e-19
18.2349 	-0.251069 	1.0425 	3.16401 	1.20199e-19
18.3051 	-0.251069 	1.0425 	3.16401 	1.20199e-19
18.3752 	0.0377238 	1.00466 	2.76742 	-9.1396e-20
18.4453 	0.0377238 	1.00466 	2.76742 	-9.1396e-20
18.5155 	0.0377238 	1.00466 	2.76742 	-9.1396e-20
18.5856 	0.0377238 	1.00466 	2.76742 	-9.1396e-20
18.6557 	0.0377238 	1.00466 	2.76742 	-9.1396e-20
18.7259 	0.0377238 	1.00466 	2.76742 	-9.1396e-20
18.796 	0.0377238 	1.00466 	2.76742 	-9.1396e-20
18.8662 	0.104012 	1.04166 	2.82452 	-1.88894e-19
18.9363 	0.104012 	1.04166 	2.82452 	-1.88894e-19
19.0064 	0.104012 	1.04166 	2.82452 	-1.88894e-19
19.0766 	0.104012 	1.04166 	2.82452 	-1.88894e-19
19.1467 	0.104012 	1.04166 	2.82452 	-1.88894e-19
19.2168 	0.104012 	1.04166 	2.82452 	-1.88894e-19
19.287 	0.104012 	1.04166 	2.82452 	-1.88894e-19
19.3571 	0.104012 	1.04166 	2.82452 	-1.88894e-19
19.4272 	0.104012 	1.04166 	2.82452 	-1.88894e-19
19.4974 	0.104012 	1.04166 	2.82452 	-1.88894e-19
19.5675 	0.104012 	1.04166 	2.82452 	-1.88894e-19
19.6376 	0.104012 	1.04166 	2.82452 	-1.88894e-19
19.7078 	0.104012 	1.04166 	2.82452 	-1.88894e-19
19.7779 	0.251114 	0.990229 	2.45066 	-1.16661e-19
19.848 	0.251114 	0.990229 	2.45066 	-1.16661e-19
19.9182 	0.251114 	0.990229 	2.45066 	-1.16661e-19
19.9883 	0.251114 	0.990229 	2.45066 	-1.16661e-19
20.0584 	0.251114 	0.990229 	2.45066 	-1.16661e-19
20.1286 	0.251114 	0.990229 	2.45066 	-1.16661e-19
20.1987 	0.251114 	0.990229 	2.45066 	-1.16661e-19
20.2688 	0.24555 	0.994895 	2.44511 	3.23331e-19
20.339 	0.24555 	0.994895 	2.44511 	3.23331e-19
20.4091 	0.24555 	0.994895 	2.44511 	3.23331e-19
20.4792 	0.24555 	0.994895 	2.44511 	3.23331e-19
20.5494 	0.24555 	0.994895 	2.44511 	3.23331e-19
20.6195 	0.24555 	0.994895 	2.44511 	3.23331e-19
20.6896 	0.24555 	0.994895 	2.44511 	3.23331e-19
20.7598 	0.24555 	0.994895 	2.44511 	3.23331e-19
20.8299 	0.24555 	0.994895 	2.44511 	3.23331e-19
20.9 	0.24555 	0.994895 	2.44511 	3.23331e-19
20.9702 	0.24555 	0.994895 	2.44511 	3.23331e-19
21.0403 	0.24555 	0.994895 	2.44511 	3.23331e-19
21.1105 	0.24555 	0.994895 	2.44511 	3.23331e-19
21.1806 	0.24555 	0.994895 	2.44511 	3.23331e-19
21.2507 	0.24555 	0.994895 	2.44511 	3.23331e-19
21.3209 	0.24555 	0.994895 	2.44511 	3.23331e-19
21.391 	0.24555 	0.994895 	2.44511 	3.23331e-19
21.4611 	0.258683 	0.700208 	1.90949 	-4.33163e-19
21.5313 	0.258683 	0.700208 	1.90949 	-4.33163e-19
21.6014 	0.258683 	0.700208 	1.90949 	-4.33163e-19
21.6715 	0.152478 	0.612813 	1.41291 	-5.57295e-20
21.7417 	0.152478 	0.612813 	1.41291 	-5.57295e-20
21.8118 	0.152478 	0.612813 	1.41291 	-5.57295e-20
21.8819 	0.152478 	0.612813 	1.41291 	-5.57295e-20
21.9521 	0.152478 	0.612813 	1.41291 	-5.57295e-20
22.0222 	0.0223553 	0.931731 	2.34745 	1.24526e-19
22.0923 	0.0223553 	0.931731 	2.34745 	1.24526e-19
22.1625 	0.0223553 	0.931731 	2.34745 	1.24526e-19
22.2326 	0.0223553 	0.931731 	2.34745 	1.24526e-19
22.3027 	0.0223553 	0.931731 	2.34745 	1.24526e-19
22.3729 	0.0223553 	0.931731 	2.34745 	1.24526e-19
22.443 	0.0223553 	0.931731 	2.34745 	1.24526e-19
22.5131 	0.0223553 	0.931731 	2.34745 	1.24526e-19
22.5833 	0.0223553 	0.931731 	2.34745 	1.24526e-19
22.6534 	0.0223553 	0.931731 	2.34745 	1.24526e-19
22.7235 	0.0223553 	0.931731 	2.34745 	1.24526e-19
22.7937 	0.0223553 	0.931731 	2.34745 	1.24526e-19
22.8638 	0.0223553 	0.931731 	2.34745 	1.24526e-19
22.9339 	0.0223553 	0.931731 	2.34745 	1.24526e-19
23.0041 	0.0223553 	0.931731 	2.34745 	1.24526e-19
23.0742 	0.0223553 	0.931731 	2.34745 	1.24526e-19
23.1443 	0.0223553 	0.931731 	2.34745 	1.24526e-19
23.2145 	0.0223553 	0.931731 	2.34745 	1.24526e-19
23.2846 	0.0223553 	0.931731 	2.34745 	1.24526e-19
23.3548 	0.0223553 	0.931731 	2.34745 	1.24526e-19
23.4249 	0.0223553 	0.931731 	2.34745 	1.24526e-19
23.495 	0.209999 	0.899508 	2.3251 	-9.11651e-20
23.5652 	0.209999 	0.899508 	2.3251 	-9.11651e-20
23.6353 	0.209999 	0.899508 	2.3251 	-9.11651e-20
23.7054 	0.209999 	0.899508 	2.3251 	-9.11651e-20
23.7756 	0.209999 	0.899508 	2.3251 	-9.11651e-20
23.8457 	0.209999 	0.899508 	2.3251 	-9.11651e-20
23.9158 	0.209999 	0.899508 	2.3251 	-9.11651e-20
23.986 	0.339944 	0.837932 	2.19025 	4.16254e-21
24.0561 	0.339944 	0.837932 	2.19025 	4.16254e-21
24.1262 	0.339944 	0.837932 	2.19025 	4.16254e-21
24.1964 	0.339944 	0.837932 	2.19025 	4.16254e-21
24.2665 	0.339944 	0.837932 	2.19025 	4.16254e-21
24.3366 	0.339944 	0.837932 	2.19025 	4.16254e-21
24.4068 	0.339944 	0.837932 	2.19025 	4.16254e-21
24.4769 	0.339944 	0.837932 	2.19025 	4.16254e-21
24.547 	0.339944 	0.837932 	2.19025 	4.16254e-21
24.6172 	0.339944 	0.837932 	2.19025 	4.16254e-21
24.6873 	0.339944 	0.837932 	2.19025 	4.16254e-21
24.7574 	0.339944 	0.837932 	2.19025 	4.16254e-21
24.8276 	0.339944 	0.837932 	2.19025 	4.16254e-21
24.8977 	0.339944 	0.837932 	2.19025 	4.16254e-21
24.9678 	0.339944 	0.837932 	2.19025 	4.16254e-21
25.038 	0.339944 	0.837932 	2.19025 	4.16254e-21
25.1081 	0.339944 	0.837932 	2.19025 	4.16254e-21
25.1782 	0.287305 	0.495415 	1.35419 	0
25.2484 	0.287305 	0.495415 	1.35419 	0
25.3185 	0.287305 	0.495415 	1.35419 	0
25.3886 	0.287305 	0.495415 	1.35419 	0
25.4588 	0.287305 	0.495415 	1.35419 	0
25.5289 	0.287305 	0.495415 	1.35419 	0
25.5991 	0.287305 	0.495415 	1.35419 	0
25.6692 	0.287305 	0.495415 	1.35419 	0
25.7393 	0.287305 	0.495415 	1.35419 	0
25.8095 	0.287305 	0.495415 	1.35419 	0
25.8796 	0.287305 	0.495415 	1.35419 	0
25.9497 	0.287305 	0.495415 	1.35419 	0
26.0199 	0.287305 	0.495415 	1.35419 	0
26.09 	0.287305 	0.495415 	1.35419 	0
26.1601 	0.287305 	0.495415 	1.35419 	0
26.2303 	0.194003 	0.494659 	1.37209 	-3.25308e-19
26.3004 	0.194003 	0.494659 	1.37209 	-3.25308e-19
26.3705 	0.194003 	0.494659 	1.37209 	-3.25308e-19
26.4407 	0.194003 	0.494659 	1.37209 	-3.25308e-19
26.5108 	0.194003 	0.494659 	1.37209 	-3.25308e-19
26.5809 	0.194003 	0.494659 	1.37209 	-3.25308e-19
26.6511 	0.194003 	0.494659 	1.37209 	-3.25308e-19
26.7212 	0.194003 	0.494659 	1.37209 	-3.25308e-19
26.7913 	0.194003 	0.494659 	1.37209 	-3.25308e-19
26.8615 	0.194003 	0.494659 	1.37209 	-3.25308e-19
26.9316 	0.194003 	0.494659 	1.37209 	-3.25308e-19
27.0017 	0.194003 	0.494659 	1.37209 	-3.25308e-19
27.0719 	0.194003 	0.494659 	1.37209 	-3.25308e-19
27.142 	0.194003 	0.494659 	1.37209 	-3.25308e-19
27.2121 	0.194003 	0.494659 	1.37209 	-3.25308e-19
27.2823 	0.194003 	0.494659 	1.37209 	-3.25308e-19
27.3524 	0.136088 	0.488783 	1.37512 	3.56105e-19
27.4225 	0.136088 	0.488783 	1.37512 	3.56105e-19
27.4927 	0.136088 	0.488783 	1.37512 	3.56105e-19
27.5628 	0.136088 	0.488783 	1.37512 	3.56105e-19
27.6329 	0.136088 	0.488783 	1.37512 	3.56105e-19
27.7031 	0.136088 	0.488783 	1.37512 	3.56105e-19
27.7732 	0.136088 	0.488783 	1.37512 	3.56105e-19
27.8434 	0.136088 	0.488783 	1.37512 	3.56105e-19
27.9135 	0.136088 	0.488783 	1.37512 	3.56105e-19
27.9836 	0.136088 	0.488783 	1.37512 	3.56105e-19
28.0538 	0.136088 	0.488783 	1.37512 	3.56105e-19
28.1239 	0.136088 	0.488783 	1.37512 	3.56105e-19
28.194 	0.136088 	0.488783 	1.37512 	3.56105e-19
28.2642 	0.136088 	0.488783 	1.37512 	3.56105e-19
28.3343 	0.136088 	0.488783 	1.37512 	3.56105e-19
28.4044 	0.136088 	0.488783 	1.37512 	3.56105e-19
28.4746 	0.136088 	0.488783 	1.37512 	3.56105e-19
28.5447 	0.136088 	0.488783 	1.37512 	3.56105e-19
28.6148 	0.136088 	0.488783 	1.37512 	3.56105e-19
28.685 	0.136088 	0.488783 	1.37512 	3.56105e-19
28.7551 	0.136088 	0.488783 	1.37512 	3.56105e-19
28.8252 	0.136088 	0.488783 	1.37512 	3.56105e-19
28.8954 	0.136088 	0.488783 	1.37512 	3.56105e-19
28.9655 	0.0900424 	0.432364 	1.29244 	1.07339e-20
29.0356 	0.0900424 	0.432364 	1.29244 	1.07339e-20
29.1058 	0.0900424 	0.432364 	1.29244 	1.07339e-20
29.1759 	0.0900424 	0.432364 	1.29244 	1.07339e-20
29.246 	0.0900424 	0.432364 	1.29244 	1.07339e-20
29.3162 	0.0900424 	0.432364 	1.29244 	1.07339e-20
29.3863 	0.0900424 	0.432364 	1.29244 	1.07339e-20
29.4564 	0.0900424 	0.432364 	1.29244 	1.07339e-20
29.5266 	0.0900424 	0.432364 	1.29244 	1.07339e-20
29.5967 	0.0900424 	0.432364 	1.29244 	1.07339e-20
29.6668 	0.0900424 	0.432364 	1.29244 	1.07339e-20
29.737 	0.0900424 	0.432364 	1.29244 	1.07339e-20
29.8071 	0.0900424 	0.432364 	1.29244 	1.07339e-20
29.8773 	0.0900424 	0.432364 	1.29244 	1.07339e-20
29.9474 	0.0900424 	0.432364 	1.29244 	1.07339e-20
30.0175 	0.0900424 	0.432364 	1.29244 	1.07339e-20
30.0877 	0.0900424 	0.432364 	1.29244 	1.07339e-20
30.1578 	0.0900424 	0.432364 	1.29244 	1.07339e-20
30.2279 	0.0900424 	0.432364 	1.29244 	1.07339e-20
30.2981 	0.0900424 	0.432364 	1.29244 	1.07339e-20
30.3682 	0.0900424 	0.432364 	1.29244 	1.07339e-20
30.4383 	0.0900424 	0.432364 	1.29244 	1.07339e-20
30.5085 	0.0900424 	0.432364 	1.29244 	1.07339e-20
30.5786 	0.0900424 	0.432364 	1.29244 	1.07339e-20
30.6487 	0.0900424 	0.432364 	1.29244 	1.07339e-20
30.7189 	0.0900424 	0.432364 	1.29244 	1.07339e-20
30.789 	0.0842151 	0.367381 	1.29771 	-1.37869e-19
30.8591 	0.0842151 	0.367381 	1.29771 	-1.37869e-19
30.9293 	0.0842151 	0.367381 	1.29771 	-1.37869e-19
30.9994 	0.0842151 	0.367381 	1.29771 	-1.37869e-19
31.0695 	0.0842151 	0.367381 	1.29771 	-1.37869e-19
31.1397 	0.0842151 	0.367381 	1.29771 	-1.37869e-19
31.2098 	0.0842151 	0.367381 	1.29771 	-1.37869e-19
31.2799 	0.0842151 	0.367381 	1.29771 	-1.37869e-19
31.3501 	0.0842151 	0.367381 	1.29771 	-1.37869e-19
31.4202 	0.0842151 	0.367381 	1.29771 	-1.37869e-19
31.4903 	0.0842151 	0.367381 	1.29771 	-1.37869e-19
31.5605 	0.0842151 	0.367381 	1.29771 	-1.37869e-19
31.6306 	0.0842151 	0.367381 	1.29771 	-1.37869e-19
31.7007 	0.0842151 	0.367381 	1.29771 	-1.37869e-19
31.7709 	0.0842151 	0.367381 	1.29771 	-1.37869e-19
31.841 	0.0842151 	0.367381 	1.29771 	-1.37869e-19
31.9111 	0.0842151 	0.367381 	1.29771 	-1.37869e-19
31.9813 	0.0842151 	0.367381 	1.29771 	-1.37869e-19
32.0514 	0.0842151 	0.367381 	1.29771 	-1.37869e-19
32.1216 	0.0842151 	0.367381 	1.29771 	-1.37869e-19
32.1917 	0.0842151 	0.367381 	1.29771 	-1.37869e-19
32.2618 	0.0842151 	0.367381 	1.29771 	-1.37869e-19
32.332 	0.0842151 	0.367381 	1.29771 	-1.37869e-19
32.4021 	0.0842151 	0.367381 	1.29771 	-1.37869e-19
32.4722 	0.0842151 	0.367381 	1.29771 	-1.37869e-19
32.5424 	0.0842151 	0.367381 	1.29771 	-1.37869e-19
32.6125 	0.0842151 	0.367381 	1.29771 	-1.37869e-19
32.6826 	0.0842151 	0.367381 	1.29771 	-1.37869e-19
32.7528 	0.0842151 	0.367381 	1.29771 	-1.37869e-19
32.8229 	0.0842151 	0.367381 	1.29771 	-1.37869e-19
32.893 	0.0842151 	0.367381 	1.29771 	-1.37869e-19
32.9632 	0.0842151 	0.367381 	1.29771 	-1.37869e-19
33.0333 	0.0842151 	0.367381 	1.29771 	-1.37869e-19
33.1034 	0.0842151 	0.367381 	1.29771 	-1.37869e-19
33.1736 	0.0842151 	0.367381 	1.29771 	-1.37869e-19
33.2437 	0.0842151 	0.367381 	1.29771 	-1.37869e-19
33.3138 	0.0842151 	0.367381 	1.29771 	-1.37869e-19
33.384 	0.0842151 	0.367381 	1.29771 	-1.37869e-19
33.4541 	0.0842151 	0.367381 	1.29771 	-1.37869e-19
33.5242 	0.0842151 	0.367381 	1.29771 	-1.37869e-19
33.5944 	0.0842151 	0.367381 	1.29771 	-1.37869e-19
33.6645 	0.0842151 	0.367381 	1.29771 	-1.37869e-19
33.7346 	0.0439569 	0.365482 	1.36874 	7.53005e-20
33.8048 	0.0439569 	0.365482 	1.36874 	7.53005e-20
33.8749 	0.0439569 	0.365482 	1.36874 	7.53005e-20
33.945 	0.0439569 	0.365482 	1.36874 	7.53005e-20
34.0152 	0.0439569 	0.365482 	1.36874 	7.53005e-20
34.0853 	0.0439569 	0.365482 	1.36874 	7.53005e-20
34.1554 	0.0399168 	0.273553 	1.32268 	-1.4234e-19
34.2256 	0.0399168 	0.273553 	1.32268 	-1.4234e-19
34.2957 	0.0399168 	0.273553 	1.32268 	-1.4234e-19
34.3659 	0.0399168 	0.273553 	1.32268 	-1.4234e-19
34.436 	0.0399168 	0.273553 	1.32268 	-1.4234e-19
34.5061 	0.0399168 	0.273553 	1.32268 	-1.4234e-19
34.5763 	0.0399168 	0.273553 	1.32268 	-1.4234e-19
34.6464 	0.0399168 	0.273553 	1.32268 	-1.4234e-19
34.7165 	0.243217 	0.262305 	1.61603 	1.4322e-19
34.7867 	0.243217 	0.262305 	1.61603 	1.4322e-19
34.8568 	0.243217 	0.262305 	1.61603 	1.4322e-19
34.9269 	0.243217 	0.262305 	1.61603 	1.4322e-19
34.9971 	0.243217 	0.262305 	1.61603 	1.4322e-19
35.0672 	0.243217 	0.262305 	1.61603 	1.4322e-19
35.1373 	0.243217 	0.262305 	1.61603 	1.4322e-19
35.2075 	0.243217 	0.262305 	1.61603 	1.4322e-19
35.2776 	0.243217 	0.262305 	1.61603 	1.4322e-19
35.3477 	0.243217 	0.262305 	1.61603 	1.4322e-19
35.4179 	0.243217 	0.262305 	1.61603 	1.4322e-19
35.488 	0.243217 	0.262305 	1.61603 	1.4322e-19
35.5581 	0.243217 	0.262305 	1.61603 	1.4322e-19
35.6283 	0.243217 	0.262305 	1.61603 	1.4322e-19
35.6984 	0.243217 	0.262305 	1.61603 	1.4322e-19
35.7685 	0.243217 	0.262305 	1.61603 	1.4322e-19
35.8387 	0.243217 	0.262305 	1.61603 	1.4322e-19
35.9088 	0.243217 	0.262305 	1.61603 	1.4322e-19
35.9789 	0.243217 	0.262305 	1.61603 	1.4322e-19
36.0491 	0.21802 	0.241191 	1.57591 	0
36.1192 	0.21802 	0.241191 	1.57591 	0
36.1893 	0.21802 	0.241191 	1.57591 	0
36.2595 	0.21802 	0.241191 	1.57591 	0
36.3296 	0.21802 	0.241191 	1.57591 	0
36.3997 	0.21802 	0.241191 	1.57591 	0
36.4699 	0.21802 	0.241191 	1.57591 	0
36.54 	0.21802 	0.241191 	1.57591 	0
36.6102 	0.21802 	0.241191 	1.57591 	0
36.6803 	0.21802 	0.241191 	1.57591 	0
36.7504 	0.21802 	0.241191 	1.57591 	0
36.8206 	0.21802 	0.241191 	1.57591 	0
36.8907 	0.0915287 	0.188033 	1.44835 	9.98422e-20
36.9608 	0.0915287 	0.188033 	1.44835 	9.98422e-20
37.031 	0.0915287 	0.188033 	1.44835 	9.98422e-20
37.1011 	0.0915287 	0.188033 	1.44835 	9.98422e-20
37.1712 	0.0915287 	0.188033 	1.44835 	9.98422e-20
37.2414 	0.0915287 	0.188033 	1.44835 	9.98422e-20
37.3115 	0.0915287 	0.188033 	1.44835 	9.98422e-20
37.3816 	0.0915287 	0.188033 	1.44835 	9.98422e-20
37.4518 	0.0915287 	0.188033 	1.44835 	9.98422e-20
37.5219 	0.0915287 	0.188033 	1.44835 	9.98422e-20
37.592 	0.0915287 	0.188033 	1.44835 	9.98422e-20
37.6622 	0.0915287 	0.188033 	1.44835 	9.98422e-20
37.7323 	0.0915287 	0.188033 	1.44835 	9.98422e-20
37.8024 	0.0915287 	0.188033 	1.44835 	9.98422e-20
37.8726 	0.0915287 	0.188033 	1.44835 	9.98422e-20
37.9427 	0.0915287 	0.188033 	1.44835 	9.98422e-20
38.0128 	0.0915287 	0.188033 	1.44835 	9.98422e-20
38.083 	0.0915287 	0.188033 	1.44835 	9.98422e-20
38.1531 	0.0915287 	0.188033 	1.44835 	9.98422e-20
38.2232 	0.115196 	0.132552 	1.59216 	-1.14506e-19
38.2934 	0.115196 	0.132552 	1.59216 	-1.14506e-19
38.3635 	0.115196 	0.132552 	1.59216 	-1.14506e-19
38.4336 	0.115196 	0.132552 	1.59216 	-1.14506e-19
38.5038 	0.115196 	0.132552 	1.59216 	-1.14506e-19
38.5739 	0.115196 	0.132552 	1.59216 	-1.14506e-19
38.644 	0.115196 	0.132552 	1.59216 	-1.14506e-19
38.7142 	0.115196 	0.132552 	1.59216 	-1.14506e-19
38.7843 	0.115196 	0.132552 	1.59216 	-1.14506e-19
38.8545 	0.115196 	0.132552 	1.59216 	-1.14506e-19
38.9246 	0.115196 	0.132552 	1.59216 	-1.14506e-19
38.9947 	0.115196 	0.132552 	1.59216 	-1.14506e-19
39.0649 	0.115196 	0.132552 	1.59216 	-1.14506e-19
39.135 	0.115196 	0.132552 	1.59216 	-1.14506e-19
39.2051 	0.0771935 	0.116504 	1.56378 	0
39.2753 	0.0771935 	0.116504 	1.56378 	0
39.3454 	0.0771935 	0.116504 	1.56378 	0
39.4155 	0.0771935 	0.116504 	1.56378 	0
39.4857 	0.0771935 	0.116504 	1.56378 	0
39.5558 	0.0771935 	0.116504 	1.56378 	0
39.6259 	0.0771935 	0.116504 	1.56378 	0
39.6961 	0.0771935 	0.116504 	1.56378 	0
39.7662 	0.0771935 	0.116504 	1.56378 	0
39.8363 	0.0771935 	0.116504 	1.56378 	0
39.9065 	0.0771935 	0.116504 	1.56378 	0
39.9766 	0.0771935 	0.116504 	1.56378 	0
40.0467 	0.0771935 	0.116504 	1.56378 	0
40.1169 	0.0771935 	0.116504 	1.56378 	0
40.187 	0.0771935 	0.116504 	1.56378 	0
40.2571 	0.0771935 	0.116504 	1.56378 	0
40.3273 	0.0771935 	0.116504 	1.56378 	0
40.3974 	0.0771935 	0.116504 	1.56378 	0
40.4675 	0.0771935 	0.116504 	1.56378 	0
40.5377 	0.0771935 	0.116504 	1.56378 	0
40.6078 	0.0771935 	0.116504 	1.56378 	0
40.6779 	0.0626146 	0.111322 	1.50239 	-3.63039e-20
40.7481 	0.0626146 	0.111322 	1.50239 	-3.63039e-20
40.8182 	0.0626146 	0.111322 	1.50239 	-3.63039e-20
40.8883 	0.0626146 	0.111322 	1.50239 	-3.63039e-20
40.9585 	0.0626146 	0.111322 	1.50239 	-3.63039e-20
41.0286 	0.0626146 	0.111322 	1.50239 	-3.63039e-20
41.0988 	0.0626146 	0.111322 	1.50239 	-3.63039e-20
41.1689 	0.0626146 	0.111322 	1.50239 	-3.63039e-20
41.239 	0.0624149 	0.0863438 	1.52129 	6.81203e-20
41.3092 	0.0624149 	0.0863438 	1.52129 	6.81203e-20
41.3793 	0.0624149 	0.0863438 	1.52129 	6.81203e-20
41.4494 	0.0624149 	0.0863438 	1.52129 	6.81203e-20
41.5196 	0.0624149 	0.0863438 	1.52129 	6.81203e-20
41.5897 	0.0624149 	0.0863438 	1.52129 	6.81203e-20
41.6598 	0.0624149 	0.0863438 	1.52129 	6.81203e-20
41.73 	0.0624149 	0.0863438 	1.52129 	6.81203e-20
41.8001 	0.0624149 	0.0863438 	1.52129 	6.81203e-20
41.8702 	0.0624149 	0.0863438 	1.52129 	6.81203e-20
41.9404 	0.0624149 	0.0863438 	1.52129 	6.81203e-20
42.0105 	0.0624149 	0.0863438 	1.52129 	6.81203e-20
42.0806 	0.0624149 	0.0863438 	1.52129 	6.81203e-20
42.1508 	0.0624149 	0.0863438 	1.52129 	6.81203e-20
42.2209 	0.0624149 	0.0863438 	1.52129 	6.81203e-20
42.291 	0.0624149 	0.0863438 	1.52129 	6.81203e-20
42.3612 	0.0624149 	0.0863438 	1.52129 	6.81203e-20
42.4313 	0.0624149 	0.0863438 	1.52129 	6.81203e-20
42.5014 	0.0624149 	0.0863438 	1.52129 	6.81203e-20
42.5716 	0.0624149 	0.0863438 	1.52129 	6.81203e-20
42.6417 	0.0624149 	0.0863438 	1.52129 	6.81203e-20
42.7118 	0.0513183 	0.0866635 	1.50252 	0
42.782 	0.0513183 	0.0866635 	1.50252 	0
42.8521 	0.0513183 	0.0866635 	1.50252 	0
42.9222 	0.0513183 	0.0866635 	1.50252 	0
42.9924 	0.0695011 	0.0460755 	1.56987 	0
43.0625 	0.0695011 	0.0460755 	1.56987 	0
43.1327 	0.0695011 	0.0460755 	1.56987 	0
43.2028 	0.0695011 	0.0460755 	1.56987 	0
43.2729 	0.0695011 	0.0460755 	1.56987 	0
43.3431 	0.0695011 	0.0460755 	1.56987 	0
43.4132 	0.0695011 	0.0460755 	1.56987 	0
43.4833 	0.0695011 	0.0460755 	1.56987 	0
43.5535 	0.0695011 	0.0460755 	1.56987 	0
43.6236 	0.0695011 	0.0460755 	1.56987 	0
43.6937 	0.0695011 	0.0460755 	1.56987 	0
43.7639 	0.0695011 	0.0460755 	1.56987 	0