0.490941 	1.70868 	0.00534599 	3.00066 	-5.28077e-20
0.561075 	1.70868 	0.00534599 	3.00066 	-5.28077e-20
0.63121 	1.70868 	0.00534599 	3.00066 	-5.28077e-20
0.701344 	1.70868 	0.00534599 	3.00066 	-5.28077e-20
0.771478 	1.70868 	0.00534599 	3.00066 	-5.28077e-20
0.841613 	1.70868 	0.00534599 	3.00066 	-5.28077e-20
0.911747 	1.70868 	0.00534599 	3.00066 	-5.28077e-20
0.981881 	1.70868 	0.00534599 	3.00066 	-5.28077e-20
1.05202 	1.70868 	0.00534599 	3.00066 	-5.28077e-20
1.12215 	1.70868 	0.00534599 	3.00066 	-5.28077e-20
1.19228 	1.70868 	0.00534599 	3.00066 	-5.28077e-20
1.26242 	1.70868 	0.00534599 	3.00066 	-5.28077e-20
1.33255 	1.66922 	0.0145942 	3.01414 	-5.40269e-20
1.40269 	1.66922 	0.0145942 	3.01414 	-5.40269e-20
1.47282 	1.66922 	0.0145942 	3.01414 	-5.40269e-20
1.54296 	1.66922 	0.0145942 	3.01414 	-5.40269e-20
1.61309 	1.66922 	0.0145942 	3.01414 	-5.40269e-20
1.68323 	1.66922 	0.0145942 	3.01414 	-5.40269e-20
1.75336 	1.66922 	0.0145942 	3.01414 	-5.40269e-20
1.82349 	1.66922 	0.0145942 	3.01414 	-5.40269e-20
1.89363 	1.66922 	0.0145942 	3.01414 	-5.40269e-20
1.96376 	1.66922 	0.0145942 	3.01414 	-5.40269e-20
2.0339 	1.66922 	0.0145942 	3.01414 	-5.40269e-20
2.10403 	1.66922 	0.0145942 	3.01414 	-5.40269e-20
2.17417 	1.60851 	0.013704 	3.0322 	1.12557e-19
2.2443 	1.60851 	0.013704 	3.0322 	1.12557e-19
2.31443 	1.60851 	0.013704 	3.0322 	1.12557e-19
2.38457 	1.60851 	0.013704 	3.0322 	1.12557e-19
2.4547 	1.60851 	0.013704 	3.0322 	1.12557e-19
2.52484 	1.60851 	0.013704 	3.0322 	1.12557e-19
2.59497 	1.60851 	0.013704 	3.0322 	1.12557e-19
2.66511 	1.60851 	0.013704 	3.0322 	1.12557e-19
2.73524 	1.60851 	0.013704 	3.0322 	1.12557e-19
2.80538 	1.60851 	0.013704 	3.0322 	1.12557e-19
2.87551 	1.60851 	0.013704 	3.0322 	1.12557e-19
2.94564 	1.60851 	0.013704 	3.0322 	1.12557e-19
3.01578 	1.53457 	0.0169235 	3.05856 	-1.30671e-20
3.08591 	1.53457 	0.0169235 	3.05856 	-1.30671e-20
3.15605 	1.53457 	0.0169235 	3.05856 	-1.30671e-20
3.22618 	1.53457 	0.0169235 	3.05856 	-1.30671e-20
3.29632 	1.53457 	0.0169235 	3.05856 	-1.30671e-20
3.36645 	1.53457 	0.0169235 	3.05856 	-1.30671e-20
3.43659 	1.53457 	0.0169235 	3.05856 	-1.30671e-20
3.50672 	1.53457 	0.0169235 	3.05856 	-1.30671e-20
3.57685 	1.53457 	0.0169235 	3.05856 	-1.30671e-20
3.64699 	1.53457 	0.0169235 	3.05856 	-1.30671e-20
3.71712 	1.53457 	0.0169235 	3.05856 	-1.30671e-20
3.78726 	1.52739 	0.00707605 	3.05571 	2.55998e-20
3.85739 	1.44839 	-0.00074017 	3.08395 	-1.88435e-19
3.92753 	1.44839 	-0.00074017 	3.08395 	-1.88435e-19
3.99766 	1.44839 	-0.00074017 	3.08395 	-1.88435e-19
4.06779 	1.44839 	-0.00074017 	3.08395 	-1.88435e-19
4.13793 	1.44839 	-0.00074017 	3.08395 	-1.88435e-19
4.20806 	1.44839 	-0.00074017 	3.08395 	-1.88435e-19
4.2782 	1.44839 	-0.00074017 	3.08395 	-1.88435e-19
4.34833 	1.44839 	-0.00074017 	3.08395 	-1.88435e-19
4.41847 	1.44839 	-0.00074017 	3.08395 	-1.88435e-19
4.4886 	1.44839 	-0.00074017 	3.08395 	-1.88435e-19
4.55874 	1.44839 	-0.00074017 	3.08395 	-1.88435e-19
4.62887 	1.44839 	-0.00074017 	3.08395 	-1.88435e-19
4.699 	1.44839 	-0.00074017 	3.08395 	-1.88435e-19
4.76914 	1.36968 	0.0055088 	3.10685 	3.66513e-19
4.83927 	1.36968 	0.0055088 	3.10685 	3.66513e-19
4.90941 	1.36968 	0.0055088 	3.10685 	3.66513e-19
4.97954 	1.36968 	0.0055088 	3.10685 	3.66513e-19
5.04968 	1.36968 	0.0055088 	3.10685 	3.66513e-19
5.11981 	1.36968 	0.0055088 	3.10685 	3.66513e-19
5.18994 	1.36968 	0.0055088 	3.10685 	3.66513e-19
5.26008 	1.36968 	0.0055088 	3.10685 	3.66513e-19
5.33021 	1.36968 	0.0055088 	3.10685 	3.66513e-19
5.40035 	1.36968 	0.0055088 	3.10685 	3.66513e-19
5.47048 	1.36968 	0.0055088 	3.10685 	3.66513e-19
5.54062 	1.36968 	0.0055088 	3.10685 	3.66513e-19
5.61075 	1.29506 	-0.00206021 	3.13335 	-1.77852e-19
5.68089 	1.29506 	-0.00206021 	3.13335 	-1.77852e-19
5.75102 	1.29506 	-0.00206021 	3.13335 	-1.77852e-19
5.82115 	1.29506 	-0.00206021 	3.13335 	-1.77852e-19
5.89129 	1.29506 	-0.00206021 	3.13335 	-1.77852e-19
5.96142 	1.29506 	-0.00206021 	3.13335 	-1.77852e-19
6.03156 	1.29506 	-0.00206021 	3.13335 	-1.77852e-19
6.10169 	1.29506 	-0.00206021 	3.13335 	-1.77852e-19
6.17183 	1.29506 	-0.00206021 	3.13335 	-1.77852e-19
6.24196 	1.29506 	-0.00206021 	3.13335 	-1.77852e-19
6.3121 	1.29506 	-0.00206021 	3.13335 	-1.77852e-19
6.38223 	1.29506 	-0.00206021 	3.13335 	-1.77852e-19
6.45236 	1.22383 	0.00517675 	3.15351 	0
6.5225 	1.22383 	0.00517675 	3.15351 	0
6.59263 	1.22383 	0.00517675 	3.15351 	0
6.66277 	1.22383 	0.00517675 	3.15351 	0
6.7329 	1.22383 	0.00517675 	3.15351 	0
6.80304 	1.22383 	0.00517675 	3.15351 	0
6.87317 	1.22383 	0.00517675 	3.15351 	0
6.9433 	1.22383 	0.00517675 	3.15351 	0
7.01344 	1.22383 	0.00517675 	3.15351 	0
7.08357 	1.22383 	0.00517675 	3.15351 	0
7.15371 	1.22383 	0.00517675 	3.15351 	0
7.22384 	1.22383 	0.00517675 	3.15351 	0
7.29398 	1.15583 	-0.00136598 	3.17761 	0
7.36411 	1.15583 	-0.00136598 	3.17761 	0
7.43425 	1.15583 	-0.00136598 	3.17761 	0
7.50438 	1.15583 	-0.00136598 	3.17761 	0
7.57451 	1.15583 	-0.00136598 	3.17761 	0
7.64465 	1.15583 	-0.00136598 	3.17761 	0
7.71478 	1.15583 	-0.00136598 	3.17761 	0
7.78492 	1.15583 	-0.00136598 	3.17761 	0
7.85505 	1.15583 	-0.00136598 	3.17761 	0
7.92519 	1.15583 	-0.00136598 	3.17761 	0
7.99532 	1.15583 	-0.00136598 	3.17761 	0
8.06545 	1.15583 	-0.00136598 	3.17761 	0
8.13559 	1.15583 	-0.00136598 	3.17761 	0
8.20572 	1.08866 	0.007245 	3.19621 	3.62441e-22
8.27586 	1.08866 	0.007245 	3.19621 	3.62441e-22
8.34599 	1.08866 	0.007245 	3.19621 	3.62441e-22
8.41613 	1.08866 	0.007245 	3.19621 	3.62441e-22
8.48626 	1.08866 	0.007245 	3.19621 	3.62441e-22
8.5564 	1.08866 	0.007245 	3.19621 	3.62441e-22
8.62653 	1.08866 	0.007245 	3.19621 	3.62441e-22
8.69666 	1.08866 	0.007245 	3.19621 	3.62441e-22
8.7668 	1.08866 	0.007245 	3.19621 	3.62441e-22
8.83693 	1.08866 	0.007245 	3.19621 	3.62441e-22
8.90707 	1.08866 	0.007245 	3.19621 	3.62441e-22
8.9772 	1.08866 	0.007245 	3.19621 	3.62441e-22
9.04734 	1.02217 	0.00292825 	3.21954 	2.63913e-19
9.11747 	1.02217 	0.00292825 	3.21954 	2.63913e-19
9.18761 	1.02217 	0.00292825 	3.21954 	2.63913e-19
9.25774 	1.02217 	0.00292825 	3.21954 	2.63913e-19
9.32787 	1.02217 	0.00292825 	3.21954 	2.63913e-19
9.39801 	1.02217 	0.00292825 	3.21954 	2.63913e-19
9.46814 	1.02217 	0.00292825 	3.21954 	2.63913e-19
9.53828 	1.02217 	0.00292825 	3.21954 	2.63913e-19
9.60841 	1.02217 	0.00292825 	3.21954 	2.63913e-19
9.67855 	1.02217 	0.00292825 	3.21954 	2.63913e-19
9.74868 	1.02217 	0.00292825 	3.21954 	2.63913e-19
9.81881 	1.02217 	0.00292825 	3.21954 	2.63913e-19
9.88895 	1.02217 	0.00292825 	3.21954 	2.63913e-19
9.95908 	0.954904 	0.0159467 	3.23798 	-2.41791e-21
10.0292 	0.954904 	0.0159467 	3.23798 	-2.41791e-21
10.0994 	0.954904 	0.0159467 	3.23798 	-2.41791e-21
10.1695 	0.954904 	0.0159467 	3.23798 	-2.41791e-21
10.2396 	0.954904 	0.0159467 	3.23798 	-2.41791e-21
10.3098 	0.954904 	0.0159467 	3.23798 	-2.41791e-21
10.3799 	0.954904 	0.0159467 	3.23798 	-2.41791e-21
10.45 	0.954904 	0.0159467 	3.23798 	-2.41791e-21
10.5202 	0.954904 	0.0159467 	3.23798 	-2.41791e-21
10.5903 	0.954904 	0.0159467 	3.23798 	-2.41791e-21
10.6604 	0.954904 	0.0159467 	3.23798 	-2.41791e-21
10.7306 	0.954904 	0.0159467 	3.23798 	-2.41791e-21
10.8007 	0.887205 	0.0207563 	3.26126 	-2.59358e-19
10.8708 	0.887205 	0.0207563 	3.26126 	-2.59358e-19
10.941 	0.887205 	0.0207563 	3.26126 	-2.59358e-19
11.0111 	0.887205 	0.0207563 	3.26126 	-2.59358e-19
11.0812 	0.887205 	0.0207563 	3.26126 	-2.59358e-19
11.1514 	0.887205 	0.0207563 	3.26126 	-2.59358e-19
11.2215 	0.887205 	0.0207563 	3.26126 	-2.59358e-19
11.2916 	0.887205 	0.0207563 	3.26126 	-2.59358e-19
11.3618 	0.887205 	0.0207563 	3.26126 	-2.59358e-19
11.4319 	0.887205 	0.0207563 	3.26126 	-2.59358e-19
11.502 	0.887205 	0.0207563 	3.26126 	-2.59358e-19
11.5722 	0.887205 	0.0207563 	3.26126 	-2.59358e-19
11.6423 	0.887205 	0.0207563 	3.26126 	-2.59358e-19
11.7124 	0.815115 	0.0498911 	3.28149 	-3.99507e-19
11.7826 	0.815115 	0.0498911 	3.28149 	-3.99507e-19
11.8527 	0.815115 	0.0498911 	3.28149 	-3.99507e-19
11.9228 	0.815115 	0.0498911 	3.28149 	-3.99507e-19
11.993 	0.815115 	0.0498911 	3.28149 	-3.99507e-19
12.0631 	0.815115 	0.0498911 	3.28149 	-3.99507e-19
12.1332 	0.815115 	0.0498911 	3.28149 	-3.99507e-19
12.2034 	0.815115 	0.0498911 	3.28149 	-3.99507e-19
12.2735 	0.815115 	0.0498911 	3.28149 	-3.99507e-19
12.3437 	0.815115 	0.0498911 	3.28149 	-3.99507e-19
12.4138 	0.815115 	0.0498911 	3.28149 	-3.99507e-19
12.4839 	0.815115 	0.0498911 	3.28149 	-3.99507e-19
12.5541 	0.815115 	0.0498911 	3.28149 	-3.99507e-19
12.6242 	0.73537 	0.0744994 	3.30644 	7.68128e-19
12.6943 	0.73537 	0.0744994 	3.30644 	7.68128e-19
12.7645 	0.73537 	0.0744994 	3.30644 	7.68128e-19
12.8346 	0.73537 	0.0744994 	3.30644 	7.68128e-19
12.9047 	0.73537 	0.0744994 	3.30644 	7.68128e-19
12.9749 	0.73537 	0.0744994 	3.30644 	7.68128e-19
13.045 	0.73537 	0.0744994 	3.30644 	7.68128e-19
13.1151 	0.73537 	0.0744994 	3.30644 	7.68128e-19
13.1853 	0.73537 	0.0744994 	3.30644 	7.68128e-19
13.2554 	0.73537 	0.0744994 	3.30644 	7.68128e-19
13.3255 	0.73537 	0.0744994 	3.30644 	7.68128e-19
13.3957 	0.73537 	0.0744994 	3.30644 	7.68128e-19
13.4658 	0.73537 	0.0744994 	3.30644 	7.68128e-19
13.5359 	0.636006 	0.146627 	3.34003 	-3.70507e-19
13.6061 	0.636006 	0.146627 	3.34003 	-3.70507e-19
13.6762 	0.636006 	0.146627 	3.34003 	-3.70507e-19
13.7463 	0.636006 	0.146627 	3.34003 	-3.70507e-19
13.8165 	0.636006 	0.146627 	3.34003 	-3.70507e-19
13.8866 	0.636006 	0.146627 	3.34003 	-3.70507e-19
13.9567 	0.636006 	0.146627 	3.34003 	-3.70507e-19
14.0269 	0.636006 	0.146627 	3.34003 	-3.70507e-19
14.097 	0.636006 	0.146627 	3.34003 	-3.70507e-19
14.1671 	0.636006 	0.146627 	3.34003 	-3.70507e-19
14.2373 	0.636006 	0.146627 	3.34003 	-3.70507e-19
14.3074 	0.636006 	0.146627 	3.34003 	-3.70507e-19
14.3776 	0.544332 	0.170229 	3.35712 	0
14.4477 	0.346144 	0.170072 	3.41462 	3.48103e-19
14.5178 	0.346144 	0.170072 	3.41462 	3.48103e-19
14.588 	0.346144 	0.170072 	3.41462 	3.48103e-19
14.6581 	0.346144 	0.170072 	3.41462 	3.48103e-19
14.7282 	0.346144 	0.170072 	3.41462 	3.48103e-19
14.7984 	0.346144 	0.170072 	3.41462 	3.48103e-19
14.8685 	0.375283 	0.194435 	3.40441 	-7.05872e-19
14.9386 	0.375283 	0.194435 	3.40441 	-7.05872e-19
15.0088 	0.375283 	0.194435 	3.40441 	-7.05872e-19
15.0789 	0.375283 	0.194435 	3.40441 	-7.05872e-19
15.149 	0.375283 	0.194435 	3.40441 	-7.05872e-19
15.2192 	0.139623 	0.259636 	3.47055 	3.38392e-19
15.2893 	0.139623 	0.259636 	3.47055 	3.38392e-19
15.3594 	0.139623 	0.259636 	3.47055 	3.38392e-19
15.4296 	0.271123 	0.327836 	3.42493 	5.11201e-20
15.4997 	0.271123 	0.327836 	3.42493 	5.11201e-20
15.5698 	0.271123 	0.327836 	3.42493 	5.11201e-20
15.64 	0.271123 	0.327836 	3.42493 	5.11201e-20
15.7101 	0.271123 	0.327836 	3.42493 	5.11201e-20
15.7802 	0.271123 	0.327836 	3.42493 	5.11201e-20
15.8504 	0.271123 	0.327836 	3.42493 	5.11201e-20
15.9205 	0.0187557 	0.332911 	3.52388 	9.1141e-20
15.9906 	0.0187557 	0.332911 	3.52388 	9.1141e-20
16.0608 	0.0187557 	0.332911 	3.52388 	9.1141e-20
16.1309 	0.233073 	0.418721 	3.43473 	2.07286e-19
16.201 	0.233073 	0.418721 	3.43473 	2.07286e-19
16.2712 	0.233073 	0.418721 	3.43473 	2.07286e-19
16.3413 	0.233073 	0.418721 	3.43473 	2.07286e-19
16.4114 	0.233073 	0.418721 	3.43473 	2.07286e-19
16.4816 	0.233073 	0.418721 	3.43473 	2.07286e-19
16.5517 	0.233073 	0.418721 	3.43473 	2.07286e-19
16.6219 	0.0501222 	0.518067 	3.5106 	0
16.692 	0.0501222 	0.518067 	3.5106 	0
16.7621 	0.0501222 	0.518067 	3.5106 	0
16.8323 	0.0501222 	0.518067 	3.5106 	0
16.9024 	0.0501222 	0.518067 	3.5106 	0
16.9725 	0.282143 	0.52703 	3.41514 	1.96189e-19
17.0427 	0.282143 	0.52703 	3.41514 	1.96189e-19
17.1128 	0.282143 	0.52703 	3.41514 	1.96189e-19
17.1829 	0.282143 	0.52703 	3.41514 	1.96189e-19
17.2531 	0.131011 	0.610694 	3.46597 	1.44477e-19
17.3232 	0.131011 	0.610694 	3.46597 	1.44477e-19
17.3933 	0.131011 	0.610694 	3.46597 	1.44477e-19
17.4635 	0.131011 	0.610694 	3.46597 	1.44477e-19
17.5336 	0.131011 	0.610694 	3.46597 	1.44477e-19
17.6037 	0.131011 	0.610694 	3.46597 	1.44477e-19
17.6739 	0.131011 	0.610694 	3.46597 	1.44477e-19
17.744 	0.131011 	0.610694 	3.46597 	1.44477e-19
17.8141 	0.131011 	0.610694 	3.46597 	1.44477e-19
17.8843 	0.131011 	0.610694 	3.46597 	1.44477e-19
17.9544 	0.207621 	0.626615 	3.38801 	0
18.0245 	0.207621 	0.626615 	3.38801 	0
18.0947 	0.207621 	0.626615 	3.38801 	0
18.1648 	0.207621 	0.626615 	3.38801 	0
18.2349 	0.207621 	0.626615 	3.38801 	0
18.3051 	0.207621 	0.626615 	3.38801 	0
18.3752 	0.207621 	0.626615 	3.38801 	0
18.4453 	0.207621 	0.626615 	3.38801 	0
18.5155 	0.207621 	0.626615 	3.38801 	0
18.5856 	0.114132 	0.717134 	3.42898 	0
18.6557 	0.114132 	0.717134 	3.42898 	0
18.7259 	0.114132 	0.717134 	3.42898 	0
18.796 	0.114132 	0.717134 	3.42898 	0
18.8662 	0.114132 	0.717134 	3.42898 	0
18.9363 	0.114132 	0.717134 	3.42898 	0
19.0064 	0.114132 	0.717134 	3.42898 	0
19.0766 	0.114132 	0.717134 	3.42898 	0
19.1467 	0.114132 	0.717134 	3.42898 	0
19.2168 	0.0645278 	0.763159 	3.41009 	2.78999e-20
19.287 	0.291232 	0.688823 	3.21356 	-5.67909e-20
19.3571 	0.291232 	0.688823 	3.21356 	-5.67909e-20
19.4272 	0.291232 	0.688823 	3.21356 	-5.67909e-20
19.4974 	0.291232 	0.688823 	3.21356 	-5.67909e-20
19.5675 	0.291232 	0.688823 	3.21356 	-5.67909e-20
19.6376 	0.291232 	0.688823 	3.21356 	-5.67909e-20
19.7078 	0.291232 	0.688823 	3.21356 	-5.67909e-20
19.7779 	0.291232 	0.688823 	3.21356 	-5.67909e-20
19.848 	0.291232 	0.688823 	3.21356 	-5.67909e-20
19.9182 	0.236737 	0.750064 	3.28425 	-2.14895e-19
19.9883 	0.236737 	0.750064 	3.28425 	-2.14895e-19
20.0584 	0.236737 	0.750064 	3.28425 	-2.14895e-19
20.1286 	0.236737 	0.750064 	3.28425 	-2.14895e-19
20.1987 	0.236737 	0.750064 	3.28425 	-2.14895e-19
20.2688 	0.236737 	0.750064 	3.28425 	-2.14895e-19
20.339 	0.236737 	0.750064 	3.28425 	-2.14895e-19
20.4091 	0.236737 	0.750064 	3.28425 	-2.14895e-19
20.4792 	0.236737 	0.750064 	3.28425 	-2.14895e-19
20.5494 	0.236737 	0.750064 	3.28425 	-2.14895e-19
20.6195 	0.175308 	0.801298 	3.31563 	1.38186e-20
20.6896 	0.175308 	0.801298 	3.31563 	1.38186e-20
20.7598 	0.175308 	0.801298 	3.31563 	1.38186e-20
20.8299 	0.175308 	0.801298 	3.31563 	1.38186e-20
20.9 	0.256517 	0.697737 	2.76798 	-2.95907e-19
20.9702 	0.256517 	0.697737 	2.76798 	-2.95907e-19
21.0403 	0.256517 	0.697737 	2.76798 	-2.95907e-19
21.1105 	0.256517 	0.697737 	2.76798 	-2.95907e-19
21.1806 	0.256517 	0.697737 	2.76798 	-2.95907e-19
21.2507 	0.256517 	0.697737 	2.76798 	-2.95907e-19
21.3209 	0.215331 	0.747799 	2.94861 	0
21.391 	0.215331 	0.747799 	2.94861 	0
21.4611 	0.215331 	0.747799 	2.94861 	0
21.5313 	0.215331 	0.747799 	2.94861 	0
21.6014 	0.215331 	0.747799 	2.94861 	0
21.6715 	0.215331 	0.747799 	2.94861 	0
21.7417 	0.215331 	0.747799 	2.94861 	0
21.8118 	0.215331 	0.747799 	2.94861 	0
21.8819 	0.215331 	0.747799 	2.94861 	0
21.9521 	0.215331 	0.747799 	2.94861 	0
22.0222 	0.215331 	0.747799 	2.94861 	0
22.0923 	0.172216 	0.797142 	3.07297 	-1.10811e-19
22.1625 	0.172216 	0.797142 	3.07297 	-1.10811e-19
22.2326 	0.172216 	0.797142 	3.07297 	-1.10811e-19
22.3027 	0.172216 	0.797142 	3.07297 	-1.10811e-19
22.3729 	0.172216 	0.797142 	3.07297 	-1.10811e-19
22.443 	0.172216 	0.797142 	3.07297 	-1.10811e-19
22.5131 	0.172216 	0.797142 	3.07297 	-1.10811e-19
22.5833 	0.172216 	0.797142 	3.07297 	-1.10811e-19
22.6534 	0.172216 	0.797142 	3.07297 	-1.10811e-19
22.7235 	0.172216 	0.797142 	3.07297 	-1.10811e-19
22.7937 	0.172216 	0.797142 	3.07297 	-1.10811e-19
22.8638 	0.12041 	0.835872 	3.13991 	1.74833e-19
22.9339 	0.12041 	0.835872 	3.13991 	1.74833e-19
23.0041 	0.12041 	0.835872 	3.13991 	1.74833e-19
23.0742 	0.128304 	0.683943 	2.26714 	7.02346e-20
23.1443 	0.128304 	0.683943 	2.26714 	7.02346e-20
23.2145 	0.128304 	0.683943 	2.26714 	7.02346e-20
23.2846 	0.128304 	0.683943 	2.26714 	7.02346e-20
23.3548 	0.128304 	0.683943 	2.26714 	7.02346e-20
23.4249 	0.128304 	0.683943 	2.26714 	7.02346e-20
23.495 	0.128304 	0.683943 	2.26714 	7.02346e-20
23.5652 	0.128304 	0.683943 	2.26714 	7.02346e-20
23.6353 	0.128304 	0.683943 	2.26714 	7.02346e-20
23.7054 	0.0803119 	0.723708 	2.4479 	-2.5156e-21
23.7756 	0.0803119 	0.723708 	2.4479 	-2.5156e-21
23.8457 	0.0803119 	0.723708 	2.4479 	-2.5156e-21
23.9158 	0.0803119 	0.723708 	2.4479 	-2.5156e-21
23.986 	0.0803119 	0.723708 	2.4479 	-2.5156e-21
24.0561 	0.0803119 	0.723708 	2.4479 	-2.5156e-21
24.1262 	0.0803119 	0.723708 	2.4479 	-2.5156e-21
24.1964 	0.0803119 	0.723708 	2.4479 	-2.5156e-21
24.2665 	0.0803119 	0.723708 	2.4479 	-2.5156e-21
24.3366 	0.0803119 	0.723708 	2.4479 	-2.5156e-21
24.4068 	0.0803119 	0.723708 	2.4479 	-2.5156e-21
24.4769 	0.0803119 	0.723708 	2.4479 	-2.5156e-21
24.547 	0.0803119 	0.723708 	2.4479 	-2.5156e-21
24.6172 	0.036843 	0.765771 	2.60237 	4.54449e-20
24.6873 	0.036843 	0.765771 	2.60237 	4.54449e-20
24.7574 	0.036843 	0.765771 	2.60237 	4.54449e-20
24.8276 	0.036843 	0.765771 	2.60237 	4.54449e-20
24.8977 	0.036843 	0.765771 	2.60237 	4.54449e-20
24.9678 	0.036843 	0.765771 	2.60237 	4.54449e-20
25.038 	0.036843 	0.765771 	2.60237 	4.54449e-20
25.1081 	0.036843 	0.765771 	2.60237 	4.54449e-20
25.1782 	0.036843 	0.765771 	2.60237 	4.54449e-20
25.2484 	0.036843 	0.765771 	2.60237 	4.54449e-20
25.3185 	0.036843 	0.765771 	2.60237 	4.54449e-20
25.3886 	0.036843 	0.765771 	2.60237 	4.54449e-20
25.4588 	-0.00353893 	0.798521 	2.72354 	-2.37408e-21
25.5289 	-0.00353893 	0.798521 	2.72354 	-2.37408e-21
25.5991 	-0.00353893 	0.798521 	2.72354 	-2.37408e-21
25.6692 	-0.00353893 	0.798521 	2.72354 	-2.37408e-21
25.7393 	-0.00353893 	0.798521 	2.72354 	-2.37408e-21
25.8095 	-0.00353893 	0.798521 	2.72354 	-2.37408e-21
25.8796 	-0.00353893 	0.798521 	2.72354 	-2.37408e-21
25.9497 	-0.00353893 	0.798521 	2.72354 	-2.37408e-21
26.0199 	-0.00353893 	0.798521 	2.72354 	-2.37408e-21
26.09 	-0.0070491 	0.608428 	1.77253 	-1.03924e-20
26.1601 	-0.0070491 	0.608428 	1.77253 	-1.03924e-20
26.2303 	-0.0070491 	0.608428 	1.77253 	-1.03924e-20
26.3004 	-0.0070491 	0.608428 	1.77253 	-1.03924e-20
26.3705 	-0.0070491 	0.608428 	1.77253 	-1.03924e-20
26.4407 	-0.0523451 	0.621433 	1.85687 	-2.1549e-20
26.5108 	-0.0523451 	0.621433 	1.85687 	-2.1549e-20
26.5809 	-0.0523451 	0.621433 	1.85687 	-2.1549e-20
26.6511 	-0.0523451 	0.621433 	1.85687 	-2.1549e-20
26.7212 	-0.0523451 	0.621433 	1.85687 	-2.1549e-20
26.7913 	-0.0523451 	0.621433 	1.85687 	-2.1549e-20
26.8615 	-0.0523451 	0.621433 	1.85687 	-2.1549e-20
26.9316 	-0.0523451 	0.621433 	1.85687 	-2.1549e-20
27.0017 	-0.0523451 	0.621433 	1.85687 	-2.1549e-20
27.0719 	-0.0523451 	0.621433 	1.85687 	-2.1549e-20
27.142 	-0.0523451 	0.621433 	1.85687 	-2.1549e-20
27.2121 	-0.0523451 	0.621433 	1.85687 	-2.1549e-20
27.2823 	-0.0523451 	0.621433 	1.85687 	-2.1549e-20
27.3524 	-0.0966655 	0.630037 	1.93119 	0
27.4225 	-0.0966655 	0.630037 	1.93119 	0
27.4927 	-0.0966655 	0.630037 	1.93119 	0
27.5628 	-0.0966655 	0.630037 	1.93119 	0
27.6329 	-0.0966655 	0.630037 	1.93119 	0
27.7031 	-0.0966655 	0.630037 	1.93119 	0
27.7732 	-0.0966655 	0.630037 	1.93119 	0
27.8434 	-0.0966655 	0.630037 	1.93119 	0
27.9135 	-0.0966655 	0.630037 	1.93119 	0
27.9836 	-0.0966655 	0.630037 	1.93119 	0
28.0538 	-0.0966655 	0.630037 	1.93119 	0
28.1239 	-0.0966655 	0.630037 	1.93119 	0
28.194 	-0.0966655 	0.630037 	1.93119 	0
28.2642 	-0.0966655 	0.630037 	1.93119 	0
28.3343 	-0.0966655 	0.630037 	1.93119 	0
28.4044 	-0.137552 	0.634953 	1.99456 	0
28.4746 	-0.137552 	0.634953 	1.99456 	0
28.5447 	-0.137552 	0.634953 	1.99456 	0
28.6148 	-0.137552 	0.634953 	1.99456 	0
28.685 	-0.137552 	0.634953 	1.99456 	0
28.7551 	-0.137552 	0.634953 	1.99456 	0
28.8252 	-0.137552 	0.634953 	1.99456 	0
28.8954 	-0.137552 	0.634953 	1.99456 	0
28.9655 	-0.137552 	0.634953 	1.99456 	0
29.0356 	-0.137552 	0.634953 	1.99456 	0
29.1058 	-0.137552 	0.634953 	1.99456 	0
29.1759 	-0.137552 	0.634953 	1.99456 	0
29.246 	-0.137552 	0.634953 	1.99456 	0
29.3162 	-0.137552 	0.634953 	1.99456 	0
29.3863 	-0.137552 	0.634953 	1.99456 	0
29.4564 	-0.174045 	0.62859 	2.02741 	-7.99071e-20
29.5266 	-0.174045 	0.62859 	2.02741 	-7.99071e-20
29.5967 	-0.174045 	0.62859 	2.02741 	-7.99071e-20
29.6668 	-0.174045 	0.62859 	2.02741 	-7.99071e-20
29.737 	-0.174045 	0.62859 	2.02741 	-7.99071e-20
29.8071 	-0.174045 	0.62859 	2.02741 	-7.99071e-20
29.8773 	-0.174045 	0.62859 	2.02741 	-7.99071e-20
29.9474 	-0.174045 	0.62859 	2.02741 	-7.99071e-20
30.0175 	-0.174045 	0.62859 	2.02741 	-7.99071e-20
30.0877 	-0.174045 	0.62859 	2.02741 	-7.99071e-20
30.1578 	-0.174045 	0.62859 	2.02741 	-7.99071e-20
30.2279 	-0.174045 	0.62859 	2.02741 	-7.99071e-20
30.2981 	-0.174045 	0.62859 	2.02741 	-7.99071e-20
30.3682 	-0.174045 	0.62859 	2.02741 	-7.99071e-20
30.4383 	-0.174045 	0.62859 	2.02741 	-7.99071e-20
30.5085 	-0.174045 	0.62859 	2.02741 	-7.99071e-20
30.5786 	-0.204614 	0.616836 	2.03508 	-1.85943e-21
30.6487 	-0.204614 	0.616836 	2.03508 	-1.85943e-21
30.7189 	-0.204614 	0.616836 	2.03508 	-1.85943e-21
30.789 	-0.204614 	0.616836 	2.03508 	-1.85943e-21
30.8591 	-0.204614 	0.616836 	2.03508 	-1.85943e-21
30.9293 	-0.204614 	0.616836 	2.03508 	-1.85943e-21
30.9994 	-0.204614 	0.616836 	2.03508 	-1.85943e-21
31.0695 	-0.204614 	0.616836 	2.03508 	-1.85943e-21
31.1397 	-0.204614 	0.616836 	2.03508 	-1.85943e-21
31.2098 	-0.204614 	0.616836 	2.03508 	-1.85943e-21
31.2799 	-0.204614 	0.616836 	2.03508 	-1.85943e-21
31.3501 	-0.204614 	0.616836 	2.03508 	-1.85943e-21
31.4202 	-0.204614 	0.616836 	2.03508 	-1.85943e-21
31.4903 	-0.204614 	0.616836 	2.03508 	-1.85943e-21
31.5605 	-0.25831 	0.513134 	1.66339 	-1.61442e-19
31.6306 	-0.25831 	0.513134 	1.66339 	-1.61442e-19
31.7007 	-0.277569 	0.494717 	1.67412 	9.94724e-20
31.7709 	-0.277569 	0.494717 	1.67412 	9.94724e-20
31.841 	-0.277569 	0.494717 	1.67412 	9.94724e-20
31.9111 	-0.277569 	0.494717 	1.67412 	9.94724e-20
31.9813 	-0.277569 	0.494717 	1.67412 	9.94724e-20
32.0514 	-0.277569 	0.494717 	1.67412 	9.94724e-20
32.1216 	-0.277569 	0.494717 	1.67412 	9.94724e-20
32.1917 	-0.277569 	0.494717 	1.67412 	9.94724e-20
32.2618 	-0.277569 	0.494717 	1.67412 	9.94724e-20
32.332 	-0.277569 	0.494717 	1.67412 	9.94724e-20
32.4021 	-0.277569 	0.494717 	1.67412 	9.94724e-20
32.4722 	-0.277569 	0.494717 	1.67412 	9.94724e-20
32.5424 	-0.277569 	0.494717 	1.67412 	9.94724e-20
32.6125 	-0.277569 	0.494717 	1.67412 	9.94724e-20
32.6826 	-0.277569 	0.494717 	1.67412 	9.94724e-20
32.7528 	-0.277569 	0.494717 	1.67412 	9.94724e-20
32.8229 	-0.277569 	0.494717 	1.67412 	9.94724e-20
32.893 	-0.277569 	0.494717 	1.67412 	9.94724e-20
32.9632 	-0.285689 	0.476071 	1.67767 	2.76248e-20
33.0333 	-0.285689 	0.476071 	1.67767 	2.76248e-20
33.1034 	-0.285689 	0.476071 	1.67767 	2.76248e-20
33.1736 	-0.285689 	0.476071 	1.67767 	2.76248e-20
33.2437 	-0.285689 	0.476071 	1.67767 	2.76248e-20
33.3138 	-0.285689 	0.476071 	1.67767 	2.76248e-20
33.384 	-0.285689 	0.476071 	1.67767 	2.76248e-20
33.4541 	-0.285689 	0.476071 	1.67767 	2.76248e-20
33.5242 	-0.285689 	0.476071 	1.67767 	2.76248e-20
33.5944 	-0.285689 	0.476071 	1.67767 	2.76248e-20
33.6645 	-0.285689 	0.476071 	1.67767 	2.76248e-20
33.7346 	-0.285689 	0.476071 	1.67767 	2.76248e-20
33.8048 	-0.285689 	0.476071 	1.67767 	2.76248e-20
33.8749 	-0.285689 	0.476071 	1.67767 	2.76248e-20
33.945 	-0.285689 	0.476071 	1.67767 	2.76248e-20
34.0152 	-0.285689 	0.476071 	1.67767 	2.76248e-20
34.0853 	-0.285689 	0.476071 	1.67767 	2.76248e-20
34.1554 	-0.285689 	0.476071 	1.67767 	2.76248e-20
34.2256 	-0.280001 	0.450407 	1.66996 	-2.18522e-20
34.2957 	-0.280001 	0.450407 	1.66996 	-2.18522e-20
34.3659 	-0.280001 	0.450407 	1.66996 	-2.18522e-20
34.436 	-0.280001 	0.450407 	1.66996 	-2.18522e-20
34.5061 	-0.280001 	0.450407 	1.66996 	-2.18522e-20
34.5763 	-0.280001 	0.450407 	1.66996 	-2.18522e-20
34.6464 	-0.280001 	0.450407 	1.66996 	-2.18522e-20
34.7165 	-0.280001 	0.450407 	1.66996 	-2.18522e-20
34.7867 	-0.280001 	0.450407 	1.66996 	-2.18522e-20
34.8568 	-0.280001 	0.450407 	1.66996 	-2.18522e-20
34.9269 	-0.280001 	0.450407 	1.66996 	-2.18522e-20
34.9971 	-0.280001 	0.450407 	1.66996 	-2.18522e-20
35.0672 	-0.280001 	0.450407 	1.66996 	-2.18522e-20
35.1373 	-0.280001 	0.450407 	1.66996 	-2.18522e-20
35.2075 	-0.280001 	0.450407 	1.66996 	-2.18522e-20
35.2776 	-0.280001 	0.450407 	1.66996 	-2.18522e-20
35.3477 	-0.280001 	0.450407 	1.66996 	-2.18522e-20
35.4179 	-0.280001 	0.450407 	1.66996 	-2.18522e-20
35.488 	-0.280001 	0.450407 	1.66996 	-2.18522e-20
35.5581 	-0.280001 	0.450407 	1.66996 	-2.18522e-20
35.6283 	-0.256516 	0.424127 	1.65417 	-5.80572e-21
35.6984 	-0.256516 	0.424127 	1.65417 	-5.80572e-21
35.7685 	-0.256516 	0.424127 	1.65417 	-5.80572e-21
35.8387 	-0.256516 	0.424127 	1.65417 	-5.80572e-21
35.9088 	-0.256516 	0.424127 	1.65417 	-5.80572e-21
35.9789 	-0.256516 	0.424127 	1.65417 	-5.80572e-21
36.0491 	-0.256516 	0.424127 	1.65417 	-5.80572e-21
36.1192 	-0.256516 	0.424127 	1.65417 	-5.80572e-21
36.1893 	-0.256516 	0.424127 	1.65417 	-5.80572e-21
36.2595 	-0.256516 	0.424127 	1.65417 	-5.80572e-21
36.3296 	-0.256516 	0.424127 	1.65417 	-5.80572e-21
36.3997 	-0.256516 	0.424127 	1.65417 	-5.80572e-21
36.4699 	-0.256516 	0.424127 	1.65417 	-5.80572e-21
36.54 	-0.256516 	0.424127 	1.65417 	-5.80572e-21
36.6102 	-0.256516 	0.424127 	1.65417 	-5.80572e-21
36.6803 	-0.256516 	0.424127 	1.65417 	-5.80572e-21
36.7504 	-0.256516 	0.424127 	1.65417 	-5.80572e-21
36.8206 	-0.256516 	0.424127 	1.65417 	-5.80572e-21
36.8907 	-0.256516 	0.424127 	1.65417 	-5.80572e-21
36.9608 	-0.256516 	0.424127 	1.65417 	-5.80572e-21
37.031 	-0.256516 	0.424127 	1.65417 	-5.80572e-21
37.1011 	-0.225578 	0.385207 	1.6355 	0
37.1712 	-0.225578 	0.385207 	1.6355 	0
37.2414 	-0.225578 	0.385207 	1.6355 	0
37.3115 	-0.225578 	0.385207 	1.6355 	0
37.3816 	-0.225578 	0.385207 	1.6355 	0
37.4518 	-0.225578 	0.385207 	1.6355 	0
37.5219 	-0.225578 	0.385207 	1.6355 	0
37.592 	-0.225578 	0.385207 	1.6355 	0
37.6622 	-0.225578 	0.385207 	1.6355 	0
37.7323 	-0.225578 	0.385207 	1.6355 	0
37.8024 	-0.225578 	0.385207 	1.6355 	0
37.8726 	-0.225578 	0.385207 	1.6355 	0
37.9427 	-0.225578 	0.385207 	1.6355 	0
38.0128 	-0.225578 	0.385207 	1.6355 	0
38.083 	-0.225578 	0.385207 	1.6355 	0
38.1531 	-0.225578 	0.385207 	1.6355 	0
38.2232 	-0.225578 	0.385207 	1.6355 	0
38.2934 	-0.200114 	0.339185 	1.62061 	0
38.3635 	-0.200114 	0.339185 	1.62061 	0
38.4336 	-0.200114 	0.339185 	1.62061 	0
38.5038 	-0.200114 	0.339185 	1.62061 	0
38.5739 	-0.200114 	0.339185 	1.62061 	0
38.644 	-0.200114 	0.339185 	1.62061 	0
38.7142 	-0.200114 	0.339185 	1.62061 	0
38.7843 	-0.200114 	0.339185 	1.62061 	0
38.8545 	-0.200114 	0.339185 	1.62061 	0
38.9246 	-0.200114 	0.339185 	1.62061 	0
38.9947 	-0.200114 	0.339185 	1.62061 	0
39.0649 	-0.200114 	0.339185 	1.62061 	0
39.135 	-0.200114 	0.339185 	1.62061 	0
39.2051 	-0.200114 	0.339185 	1.62061 	0
39.2753 	-0.200114 	0.339185 	1.62061 	0
39.3454 	-0.200114 	0.339185 	1.62061 	0
39.4155 	-0.200114 	0.339185 	1.62061 	0
39.4857 	-0.200114 	0.339185 	1.62061 	0
39.5558 	-0.184554 	0.287962 	1.61243 	0
39.6259 	-0.184554 	0.287962 	1.61243 	0
39.6961 	-0.184554 	0.287962 	1.61243 	0
39.7662 	-0.184554 	0.287962 	1.61243 	0
39.8363 	-0.184554 	0.287962 	1.61243 	0
39.9065 	-0.184554 	0.287962 	1.61243 	0
39.9766 	-0.184554 	0.287962 	1.61243 	0
40.0467 	-0.184554 	0.287962 	1.61243 	0
40.1169 	-0.184554 	0.287962 	1.61243 	0
40.187 	-0.184554 	0.287962 	1.61243 	0
40.2571 	-0.184554 	0.287962 	1.61243 	0
40.3273 	-0.184554 	0.287962 	1.61243 	0
40.3974 	-0.184554 	0.287962 	1.61243 	0
40.4675 	-0.184554 	0.287962 	1.61243 	0
40.5377 	-0.184554 	0.287962 	1.61243 	0
40.6078 	-0.184554 	0.287962 	1.61243 	0
40.6779 	-0.184554 	0.287962 	1.61243 	0
40.7481 	-0.182071 	0.234704 	1.61295 	0
40.8182 	-0.182071 	0.234704 	1.61295 	0
40.8883 	-0.182071 	0.234704 	1.61295 	0
40.9585 	-0.182071 	0.234704 	1.61295 	0
41.0286 	-0.182071 	0.234704 	1.61295 	0
41.0988 	-0.182071 	0.234704 	1.61295 	0
41.1689 	-0.182071 	0.234704 	1.61295 	0
41.239 	-0.182071 	0.234704 	1.61295 	0
41.3092 	-0.182071 	0.234704 	1.61295 	0
41.3793 	-0.182071 	0.234704 	1.61295 	0
41.4494 	-0.182071 	0.234704 	1.61295 	0
41.5196 	-0.182071 	0.234704 	1.61295 	0
41.5897 	-0.182071 	0.234704 	1.61295 	0
41.6598 	-0.182071 	0.234704 	1.61295 	0
41.73 	-0.182071 	0.234704 	1.61295 	0
41.8001 	-0.182071 	0.234704 	1.61295 	0
41.8702 	-0.182071 	0.234704 	1.61295 	0
41.9404 	-0.182071 	0.234704 	1.61295 	0
42.0105 	-0.190389 	0.184498 	1.61903 	0
42.0806 	-0.190389 	0.184498 	1.61903 	0
42.1508 	-0.190389 	0.184498 	1.61903 	0
42.2209 	-0.190389 	0.184498 	1.61903 	0
42.291 	-0.190389 	0.184498 	1.61903 	0
42.3612 	-0.190389 	0.184498 	1.61903 	0
42.4313 	-0.190389 	0.184498 	1.61903 	0
42.5014 	-0.190389 	0.184498 	1.61903 	0
42.5716 	-0.190389 	0.184498 	1.61903 	0
42.6417 	-0.190389 	0.184498 	1.61903 	0
42.7118 	-0.190389 	0.184498 	1.61903 	0
42.782 	-0.190389 	0.184498 	1.61903 	0
42.8521 	-0.190389 	0.184498 	1.61903 	0
42.9222 	-0.190389 	0.184498 	1.61903 	0
42.9924 	-0.190389 	0.184498 	1.61903 	0
43.0625 	-0.190389 	0.184498 	1.61903 	0
43.1327 	-0.190389 	0.184498 	1.61903 	0
43.2028 	-0.204554 	0.137486 	1.62796 	0
43.2729 	-0.204554 	0.137486 	1.62796 	0
43.3431 	-0.204554 	0.137486 	1.62796 	0
43.4132 	-0.204554 	0.137486 	1.62796 	0
43.4833 	-0.204554 	0.137486 	1.62796 	0
43.5535 	-0.204554 	0.137486 	1.62796 	0
43.6236 	-0.204554 	0.137486 	1.62796 	0
43.6937 	-0.204554 	0.137486 	1.62796 	0
43.7639 	-0.204554 	0.137486 	1.62796 	0
43.834 	-0.204554 	0.137486 	1.62796 	0
43.9041 	-0.204554 	0.137486 	1.62796 	0
43.9743 	-0.204554 	0.137486 	1.62796 	0
44.0444 	-0.204554 	0.137486 	1.62796 	0
44.1145 	-0.204554 	0.137486 	1.62796 	0
44.1847 	-0.204554 	0.137486 	1.62796 	0
44.2548 	-0.204554 	0.137486 	1.62796 	0
44.3249 	-0.204554 	0.137486 	1.62796 	0
44.3951 	-0.204554 	0.137486 	1.62796 	0