0.490941 	1.70289 	0.0053123 	3.00067 	-5.26361e-20
0.561075 	1.70289 	0.0053123 	3.00067 	-5.26361e-20
0.63121 	1.70289 	0.0053123 	3.00067 	-5.26361e-20
0.701344 	1.70289 	0.0053123 	3.00067 	-5.26361e-20
0.771478 	1.70289 	0.0053123 	3.00067 	-5.26361e-20
0.841613 	1.70289 	0.0053123 	3.00067 	-5.26361e-20
0.911747 	1.70289 	0.0053123 	3.00067 	-5.26361e-20
0.981881 	1.70289 	0.0053123 	3.00067 	-5.26361e-20
1.05202 	1.70289 	0.0053123 	3.00067 	-5.26361e-20
1.12215 	1.70289 	0.0053123 	3.00067 	-5.26361e-20
1.19228 	1.70289 	0.0053123 	3.00067 	-5.26361e-20
1.26242 	1.70289 	0.0053123 	3.00067 	-5.26361e-20
1.33255 	1.66342 	0.0146371 	3.0141 	-5.38404e-20
1.40269 	1.66342 	0.0146371 	3.0141 	-5.38404e-20
1.47282 	1.66342 	0.0146371 	3.0141 	-5.38404e-20
1.54296 	1.66342 	0.0146371 	3.0141 	-5.38404e-20
1.61309 	1.66342 	0.0146371 	3.0141 	-5.38404e-20
1.68323 	1.66342 	0.0146371 	3.0141 	-5.38404e-20
1.75336 	1.66342 	0.0146371 	3.0141 	-5.38404e-20
1.82349 	1.66342 	0.0146371 	3.0141 	-5.38404e-20
1.89363 	1.66342 	0.0146371 	3.0141 	-5.38404e-20
1.96376 	1.66342 	0.0146371 	3.0141 	-5.38404e-20
2.0339 	1.66342 	0.0146371 	3.0141 	-5.38404e-20
2.10403 	1.66342 	0.0146371 	3.0141 	-5.38404e-20
2.17417 	1.60272 	0.013668 	3.03225 	1.1216e-19
2.2443 	1.60272 	0.013668 	3.03225 	1.1216e-19
2.31443 	1.60272 	0.013668 	3.03225 	1.1216e-19
2.38457 	1.60272 	0.013668 	3.03225 	1.1216e-19
2.4547 	1.60272 	0.013668 	3.03225 	1.1216e-19
2.52484 	1.60272 	0.013668 	3.03225 	1.1216e-19
2.59497 	1.60272 	0.013668 	3.03225 	1.1216e-19
2.66511 	1.60272 	0.013668 	3.03225 	1.1216e-19
2.73524 	1.60272 	0.013668 	3.03225 	1.1216e-19
2.80538 	1.60272 	0.013668 	3.03225 	1.1216e-19
2.87551 	1.60272 	0.013668 	3.03225 	1.1216e-19
2.94564 	1.60272 	0.013668 	3.03225 	1.1216e-19
3.01578 	1.52879 	0.0169641 	3.0585 	-1.30177e-20
3.08591 	1.52879 	0.0169641 	3.0585 	-1.30177e-20
3.15605 	1.52879 	0.0169641 	3.0585 	-1.30177e-20
3.22618 	1.52879 	0.0169641 	3.0585 	-1.30177e-20
3.29632 	1.52879 	0.0169641 	3.0585 	-1.30177e-20
3.36645 	1.52879 	0.0169641 	3.0585 	-1.30177e-20
3.43659 	1.52879 	0.0169641 	3.0585 	-1.30177e-20
3.50672 	1.52879 	0.0169641 	3.0585 	-1.30177e-20
3.57685 	1.52879 	0.0169641 	3.0585 	-1.30177e-20
3.64699 	1.52879 	0.0169641 	3.0585 	-1.30177e-20
3.71712 	1.52879 	0.0169641 	3.0585 	-1.30177e-20
3.78726 	1.52161 	0.00706348 	3.05574 	2.55032e-20
3.85739 	1.44261 	-0.000733161 	3.0839 	-1.87662e-19
3.92753 	1.44261 	-0.000733161 	3.0839 	-1.87662e-19
3.99766 	1.44261 	-0.000733161 	3.0839 	-1.87662e-19
4.06779 	1.44261 	-0.000733161 	3.0839 	-1.87662e-19
4.13793 	1.44261 	-0.000733161 	3.0839 	-1.87662e-19
4.20806 	1.44261 	-0.000733161 	3.0839 	-1.87662e-19
4.2782 	1.44261 	-0.000733161 	3.0839 	-1.87662e-19
4.34833 	1.44261 	-0.000733161 	3.0839 	-1.87662e-19
4.41847 	1.44261 	-0.000733161 	3.0839 	-1.87662e-19
4.4886 	1.44261 	-0.000733161 	3.0839 	-1.87662e-19
4.55874 	1.44261 	-0.000733161 	3.0839 	-1.87662e-19
4.62887 	1.44261 	-0.000733161 	3.0839 	-1.87662e-19
4.699 	1.44261 	-0.000733161 	3.0839 	-1.87662e-19
4.76914 	1.36391 	0.00549335 	3.10689 	3.64968e-19
4.83927 	1.36391 	0.00549335 	3.10689 	3.64968e-19
4.90941 	1.36391 	0.00549335 	3.10689 	3.64968e-19
4.97954 	1.36391 	0.00549335 	3.10689 	3.64968e-19
5.04968 	1.36391 	0.00549335 	3.10689 	3.64968e-19
5.11981 	1.36391 	0.00549335 	3.10689 	3.64968e-19
5.18994 	1.36391 	0.00549335 	3.10689 	3.64968e-19
5.26008 	1.36391 	0.00549335 	3.10689 	3.64968e-19
5.33021 	1.36391 	0.00549335 	3.10689 	3.64968e-19
5.40035 	1.36391 	0.00549335 	3.10689 	3.64968e-19
5.47048 	1.36391 	0.00549335 	3.10689 	3.64968e-19
5.54062 	1.36391 	0.00549335 	3.10689 	3.64968e-19
5.61075 	1.28927 	-0.0020512 	3.1333 	-1.77079e-19
5.68089 	1.28927 	-0.0020512 	3.1333 	-1.77079e-19
5.75102 	1.28927 	-0.0020512 	3.1333 	-1.77079e-19
5.82115 	1.28927 	-0.0020512 	3.1333 	-1.77079e-19
5.89129 	1.28927 	-0.0020512 	3.1333 	-1.77079e-19
5.96142 	1.28927 	-0.0020512 	3.1333 	-1.77079e-19
6.03156 	1.28927 	-0.0020512 	3.1333 	-1.77079e-19
6.10169 	1.28927 	-0.0020512 	3.1333 	-1.77079e-19
6.17183 	1.28927 	-0.0020512 	3.1333 	-1.77079e-19
6.24196 	1.28927 	-0.0020512 	3.1333 	-1.77079e-19
6.3121 	1.28927 	-0.0020512 	3.1333 	-1.77079e-19
6.38223 	1.28927 	-0.0020512 	3.1333 	-1.77079e-19
6.45236 	1.21804 	0.00514949 	3.15356 	0
6.5225 	1.21804 	0.00514949 	3.15356 	0
6.59263 	1.21804 	0.00514949 	3.15356 	0
6.66277 	1.21804 	0.00514949 	3.15356 	0
6.7329 	1.21804 	0.00514949 	3.15356 	0
6.80304 	1.21804 	0.00514949 	3.15356 	0
6.87317 	1.21804 	0.00514949 	3.15356 	0
6.9433 	1.21804 	0.00514949 	3.15356 	0
7.01344 	1.21804 	0.00514949 	3.15356 	0
7.08357 	1.21804 	0.00514949 	3.15356 	0
7.15371 	1.21804 	0.00514949 	3.15356 	0
7.22384 	1.21804 	0.00514949 	3.15356 	0
7.29398 	1.15002 	-0.00137271 	3.17756 	0
7.36411 	1.15002 	-0.00137271 	3.17756 	0
7.43425 	1.15002 	-0.00137271 	3.17756 	0
7.50438 	1.15002 	-0.00137271 	3.17756 	0
7.57451 	1.15002 	-0.00137271 	3.17756 	0
7.64465 	1.15002 	-0.00137271 	3.17756 	0
7.71478 	1.15002 	-0.00137271 	3.17756 	0
7.78492 	1.15002 	-0.00137271 	3.17756 	0
7.85505 	1.15002 	-0.00137271 	3.17756 	0
7.92519 	1.15002 	-0.00137271 	3.17756 	0
7.99532 	1.15002 	-0.00137271 	3.17756 	0
8.06545 	1.15002 	-0.00137271 	3.17756 	0
8.13559 	1.15002 	-0.00137271 	3.17756 	0
8.20572 	1.08284 	0.00717427 	3.19628 	3.61589e-22
8.27586 	1.08284 	0.00717427 	3.19628 	3.61589e-22
8.34599 	1.08284 	0.00717427 	3.19628 	3.61589e-22
8.41613 	1.08284 	0.00717427 	3.19628 	3.61589e-22
8.48626 	1.08284 	0.00717427 	3.19628 	3.61589e-22
8.5564 	1.08284 	0.00717427 	3.19628 	3.61589e-22
8.62653 	1.08284 	0.00717427 	3.19628 	3.61589e-22
8.69666 	1.08284 	0.00717427 	3.19628 	3.61589e-22
8.7668 	1.08284 	0.00717427 	3.19628 	3.61589e-22
8.83693 	1.08284 	0.00717427 	3.19628 	3.61589e-22
8.90707 	1.08284 	0.00717427 	3.19628 	3.61589e-22
8.9772 	1.08284 	0.00717427 	3.19628 	3.61589e-22
9.04734 	1.01635 	0.0028548 	3.21948 	2.62358e-19
9.11747 	1.01635 	0.0028548 	3.21948 	2.62358e-19
9.18761 	1.01635 	0.0028548 	3.21948 	2.62358e-19
9.25774 	1.01635 	0.0028548 	3.21948 	2.62358e-19
9.32787 	1.01635 	0.0028548 	3.21948 	2.62358e-19
9.39801 	1.01635 	0.0028548 	3.21948 	2.62358e-19
9.46814 	1.01635 	0.0028548 	3.21948 	2.62358e-19
9.53828 	1.01635 	0.0028548 	3.21948 	2.62358e-19
9.60841 	1.01635 	0.0028548 	3.21948 	2.62358e-19
9.67855 	1.01635 	0.0028548 	3.21948 	2.62358e-19
9.74868 	1.01635 	0.0028548 	3.21948 	2.62358e-19
9.81881 	1.01635 	0.0028548 	3.21948 	2.62358e-19
9.88895 	1.01635 	0.0028548 	3.21948 	2.62358e-19
9.95908 	0.949084 	0.0157343 	3.23805 	-2.50632e-21
10.0292 	0.949084 	0.0157343 	3.23805 	-2.50632e-21
10.0994 	0.949084 	0.0157343 	3.23805 	-2.50632e-21
10.1695 	0.949084 	0.0157343 	3.23805 	-2.50632e-21
10.2396 	0.949084 	0.0157343 	3.23805 	-2.50632e-21
10.3098 	0.949084 	0.0157343 	3.23805 	-2.50632e-21
10.3799 	0.949084 	0.0157343 	3.23805 	-2.50632e-21
10.45 	0.949084 	0.0157343 	3.23805 	-2.50632e-21
10.5202 	0.949084 	0.0157343 	3.23805 	-2.50632e-21
10.5903 	0.949084 	0.0157343 	3.23805 	-2.50632e-21
10.6604 	0.949084 	0.0157343 	3.23805 	-2.50632e-21
10.7306 	0.949084 	0.0157343 	3.23805 	-2.50632e-21
10.8007 	0.881428 	0.020432 	3.26118 	-2.57735e-19
10.8708 	0.881428 	0.020432 	3.26118 	-2.57735e-19
10.941 	0.881428 	0.020432 	3.26118 	-2.57735e-19
11.0111 	0.881428 	0.020432 	3.26118 	-2.57735e-19
11.0812 	0.881428 	0.020432 	3.26118 	-2.57735e-19
11.1514 	0.881428 	0.020432 	3.26118 	-2.57735e-19
11.2215 	0.881428 	0.020432 	3.26118 	-2.57735e-19
11.2916 	0.881428 	0.020432 	3.26118 	-2.57735e-19
11.3618 	0.881428 	0.020432 	3.26118 	-2.57735e-19
11.4319 	0.881428 	0.020432 	3.26118 	-2.57735e-19
11.502 	0.881428 	0.020432 	3.26118 	-2.57735e-19
11.5722 	0.881428 	0.020432 	3.26118 	-2.57735e-19
11.6423 	0.881428 	0.020432 	3.26118 	-2.57735e-19
11.7124 	0.809559 	0.0492896 	3.28148 	-3.96794e-19
11.7826 	0.809559 	0.0492896 	3.28148 	-3.96794e-19
11.8527 	0.809559 	0.0492896 	3.28148 	-3.96794e-19
11.9228 	0.809559 	0.0492896 	3.28148 	-3.96794e-19
11.993 	0.809559 	0.0492896 	3.28148 	-3.96794e-19
12.0631 	0.809559 	0.0492896 	3.28148 	-3.96794e-19
12.1332 	0.809559 	0.0492896 	3.28148 	-3.96794e-19
12.2034 	0.809559 	0.0492896 	3.28148 	-3.96794e-19
12.2735 	0.809559 	0.0492896 	3.28148 	-3.96794e-19
12.3437 	0.809559 	0.0492896 	3.28148 	-3.96794e-19
12.4138 	0.809559 	0.0492896 	3.28148 	-3.96794e-19
12.4839 	0.809559 	0.0492896 	3.28148 	-3.96794e-19
12.5541 	0.809559 	0.0492896 	3.28148 	-3.96794e-19
12.6242 	0.730329 	0.0737431 	3.30613 	7.62924e-19
12.6943 	0.730329 	0.0737431 	3.30613 	7.62924e-19
12.7645 	0.730329 	0.0737431 	3.30613 	7.62924e-19
12.8346 	0.730329 	0.0737431 	3.30613 	7.62924e-19
12.9047 	0.730329 	0.0737431 	3.30613 	7.62924e-19
12.9749 	0.730329 	0.0737431 	3.30613 	7.62924e-19
13.045 	0.730329 	0.0737431 	3.30613 	7.62924e-19
13.1151 	0.730329 	0.0737431 	3.30613 	7.62924e-19
13.1853 	0.730329 	0.0737431 	3.30613 	7.62924e-19
13.2554 	0.730329 	0.0737431 	3.30613 	7.62924e-19
13.3255 	0.730329 	0.0737431 	3.30613 	7.62924e-19
13.3957 	0.730329 	0.0737431 	3.30613 	7.62924e-19
13.4658 	0.730329 	0.0737431 	3.30613 	7.62924e-19
13.5359 	0.632257 	0.145409 	3.33954 	-3.68082e-19
13.6061 	0.632257 	0.145409 	3.33954 	-3.68082e-19
13.6762 	0.632257 	0.145409 	3.33954 	-3.68082e-19
13.7463 	0.632257 	0.145409 	3.33954 	-3.68082e-19
13.8165 	0.632257 	0.145409 	3.33954 	-3.68082e-19
13.8866 	0.632257 	0.145409 	3.33954 	-3.68082e-19
13.9567 	0.632257 	0.145409 	3.33954 	-3.68082e-19
14.0269 	0.632257 	0.145409 	3.33954 	-3.68082e-19
14.097 	0.632257 	0.145409 	3.33954 	-3.68082e-19
14.1671 	0.632257 	0.145409 	3.33954 	-3.68082e-19
14.2373 	0.632257 	0.145409 	3.33954 	-3.68082e-19
14.3074 	0.632257 	0.145409 	3.33954 	-3.68082e-19
14.3776 	0.542258 	0.168839 	3.35596 	0
14.4477 	0.344956 	0.169013 	3.41328 	3.47238e-19
14.5178 	0.344956 	0.169013 	3.41328 	3.47238e-19
14.588 	0.344956 	0.169013 	3.41328 	3.47238e-19
14.6581 	0.344956 	0.169013 	3.41328 	3.47238e-19
14.7282 	0.344956 	0.169013 	3.41328 	3.47238e-19
14.7984 	0.344956 	0.169013 	3.41328 	3.47238e-19
14.8685 	0.374772 	0.193275 	3.40291 	-7.05253e-19
14.9386 	0.374772 	0.193275 	3.40291 	-7.05253e-19
15.0088 	0.374772 	0.193275 	3.40291 	-7.05253e-19
15.0789 	0.374772 	0.193275 	3.40291 	-7.05253e-19
15.149 	0.374772 	0.193275 	3.40291 	-7.05253e-19
15.2192 	0.139679 	0.25872 	3.4689 	3.38465e-19
15.2893 	0.139679 	0.25872 	3.4689 	3.38465e-19
15.3594 	0.139679 	0.25872 	3.4689 	3.38465e-19
15.4296 	0.272013 	0.3266 	3.42299 	5.13994e-20
15.4997 	0.272013 	0.3266 	3.42299 	5.13994e-20
15.5698 	0.272013 	0.3266 	3.42299 	5.13994e-20
15.64 	0.272013 	0.3266 	3.42299 	5.13994e-20
15.7101 	0.272013 	0.3266 	3.42299 	5.13994e-20
15.7802 	0.272013 	0.3266 	3.42299 	5.13994e-20
15.8504 	0.272013 	0.3266 	3.42299 	5.13994e-20
15.9205 	0.0201552 	0.33208 	3.52177 	9.09902e-20
15.9906 	0.0201552 	0.33208 	3.52177 	9.09902e-20
16.0608 	0.0201552 	0.33208 	3.52177 	9.09902e-20
16.1309 	0.235373 	0.417969 	3.43238 	2.08608e-19
16.201 	0.235373 	0.417969 	3.43238 	2.08608e-19
16.2712 	0.235373 	0.417969 	3.43238 	2.08608e-19
16.3413 	0.235373 	0.417969 	3.43238 	2.08608e-19
16.4114 	0.235373 	0.417969 	3.43238 	2.08608e-19
16.4816 	0.235373 	0.417969 	3.43238 	2.08608e-19
16.5517 	0.235373 	0.417969 	3.43238 	2.08608e-19
16.6219 	0.0526823 	0.517479 	3.50795 	0
16.692 	0.0526823 	0.517479 	3.50795 	0
16.7621 	0.0526823 	0.517479 	3.50795 	0
16.8323 	0.0526823 	0.517479 	3.50795 	0
16.9024 	0.0526823 	0.517479 	3.50795 	0
16.9725 	0.28552 	0.526701 	3.41261 	1.9832e-19
17.0427 	0.28552 	0.526701 	3.41261 	1.9832e-19
17.1128 	0.28552 	0.526701 	3.41261 	1.9832e-19
17.1829 	0.28552 	0.526701 	3.41261 	1.9832e-19
17.2531 	0.134235 	0.610734 	3.46322 	1.4806e-19
17.3232 	0.134235 	0.610734 	3.46322 	1.4806e-19
17.3933 	0.134235 	0.610734 	3.46322 	1.4806e-19
17.4635 	0.134235 	0.610734 	3.46322 	1.4806e-19
17.5336 	0.134235 	0.610734 	3.46322 	1.4806e-19
17.6037 	0.134235 	0.610734 	3.46322 	1.4806e-19
17.6739 	0.134235 	0.610734 	3.46322 	1.4806e-19
17.744 	0.134235 	0.610734 	3.46322 	1.4806e-19
17.8141 	0.134235 	0.610734 	3.46322 	1.4806e-19
17.8843 	0.134235 	0.610734 	3.46322 	1.4806e-19
17.9544 	0.21143 	0.626674 	3.38545 	0
18.0245 	0.21143 	0.626674 	3.38545 	0
18.0947 	0.21143 	0.626674 	3.38545 	0
18.1648 	0.21143 	0.626674 	3.38545 	0
18.2349 	0.21143 	0.626674 	3.38545 	0
18.3051 	0.21143 	0.626674 	3.38545 	0
18.3752 	0.21143 	0.626674 	3.38545 	0
18.4453 	0.21143 	0.626674 	3.38545 	0
18.5155 	0.21143 	0.626674 	3.38545 	0
18.5856 	0.117765 	0.717467 	3.42677 	0
18.6557 	0.117765 	0.717467 	3.42677 	0
18.7259 	0.117765 	0.717467 	3.42677 	0
18.796 	0.117765 	0.717467 	3.42677 	0
18.8662 	0.117765 	0.717467 	3.42677 	0
18.9363 	0.117765 	0.717467 	3.42677 	0
19.0064 	0.117765 	0.717467 	3.42677 	0
19.0766 	0.117765 	0.717467 	3.42677 	0
19.1467 	0.117765 	0.717467 	3.42677 	0
19.2168 	0.0677297 	0.763594 	3.40621 	2.69584e-20
19.287 	0.29543 	0.688525 	3.21013 	-5.80294e-20
19.3571 	0.29543 	0.688525 	3.21013 	-5.80294e-20
19.4272 	0.29543 	0.688525 	3.21013 	-5.80294e-20
19.4974 	0.29543 	0.688525 	3.21013 	-5.80294e-20
19.5675 	0.29543 	0.688525 	3.21013 	-5.80294e-20
19.6376 	0.29543 	0.688525 	3.21013 	-5.80294e-20
19.7078 	0.29543 	0.688525 	3.21013 	-5.80294e-20
19.7779 	0.29543 	0.688525 	3.21013 	-5.80294e-20
19.848 	0.29543 	0.688525 	3.21013 	-5.80294e-20
19.9182 	0.24047 	0.751773 	3.28333 	-2.18296e-19
19.9883 	0.24047 	0.751773 	3.28333 	-2.18296e-19
20.0584 	0.24047 	0.751773 	3.28333 	-2.18296e-19
20.1286 	0.24047 	0.751773 	3.28333 	-2.18296e-19
20.1987 	0.24047 	0.751773 	3.28333 	-2.18296e-19
20.2688 	0.24047 	0.751773 	3.28333 	-2.18296e-19
20.339 	0.24047 	0.751773 	3.28333 	-2.18296e-19
20.4091 	0.24047 	0.751773 	3.28333 	-2.18296e-19
20.4792 	0.24047 	0.751773 	3.28333 	-2.18296e-19
20.5494 	0.24047 	0.751773 	3.28333 	-2.18296e-19
20.6195 	0.178286 	0.800778 	3.31127 	1.32017e-20
20.6896 	0.178286 	0.800778 	3.31127 	1.32017e-20
20.7598 	0.178286 	0.800778 	3.31127 	1.32017e-20
20.8299 	0.178286 	0.800778 	3.31127 	1.32017e-20
20.9 	0.26057 	0.696585 	2.76387 	-3.0037e-19
20.9702 	0.26057 	0.696585 	2.76387 	-3.0037e-19
21.0403 	0.26057 	0.696585 	2.76387 	-3.0037e-19
21.1105 	0.26057 	0.696585 	2.76387 	-3.0037e-19
21.1806 	0.26057 	0.696585 	2.76387 	-3.0037e-19
21.2507 	0.26057 	0.696585 	2.76387 	-3.0037e-19
21.3209 	0.218784 	0.750214 	2.94714 	0
21.391 	0.218784 	0.750214 	2.94714 	0
21.4611 	0.218784 	0.750214 	2.94714 	0
21.5313 	0.218784 	0.750214 	2.94714 	0
21.6014 	0.218784 	0.750214 	2.94714 	0
21.6715 	0.218784 	0.750214 	2.94714 	0
21.7417 	0.218784 	0.750214 	2.94714 	0
21.8118 	0.218784 	0.750214 	2.94714 	0
21.8819 	0.218784 	0.750214 	2.94714 	0
21.9521 	0.218784 	0.750214 	2.94714 	0
22.0222 	0.218784 	0.750214 	2.94714 	0
22.0923 	0.17541 	0.796546 	3.06869 	-1.12766e-19
22.1625 	0.17541 	0.796546 	3.06869 	-1.12766e-19
22.2326 	0.17541 	0.796546 	3.06869 	-1.12766e-19
22.3027 	0.17541 	0.796546 	3.06869 	-1.12766e-19
22.3729 	0.17541 	0.796546 	3.06869 	-1.12766e-19
22.443 	0.17541 	0.796546 	3.06869 	-1.12766e-19
22.5131 	0.17541 	0.796546 	3.06869 	-1.12766e-19
22.5833 	0.17541 	0.796546 	3.06869 	-1.12766e-19
22.6534 	0.17541 	0.796546 	3.06869 	-1.12766e-19
22.7235 	0.17541 	0.796546 	3.06869 	-1.12766e-19
22.7937 	0.17541 	0.796546 	3.06869 	-1.12766e-19
22.8638 	0.122885 	0.838359 	3.13822 	1.78888e-19
22.9339 	0.122885 	0.838359 	3.13822 	1.78888e-19
23.0041 	0.122885 	0.838359 	3.13822 	1.78888e-19
23.0742 	0.131047 	0.68445 	2.26349 	7.15006e-20
23.1443 	0.131047 	0.68445 	2.26349 	7.15006e-20
23.2145 	0.131047 	0.68445 	2.26349 	7.15006e-20
23.2846 	0.131047 	0.68445 	2.26349 	7.15006e-20
23.3548 	0.131047 	0.68445 	2.26349 	7.15006e-20
23.4249 	0.131047 	0.68445 	2.26349 	7.15006e-20
23.495 	0.131047 	0.68445 	2.26349 	7.15006e-20
23.5652 	0.131047 	0.68445 	2.26349 	7.15006e-20
23.6353 	0.131047 	0.68445 	2.26349 	7.15006e-20
23.7054 	0.0827843 	0.725231 	2.44237 	-2.82819e-21
23.7756 	0.0827843 	0.725231 	2.44237 	-2.82819e-21
23.8457 	0.0827843 	0.725231 	2.44237 	-2.82819e-21
23.9158 	0.0827843 	0.725231 	2.44237 	-2.82819e-21
23.986 	0.0827843 	0.725231 	2.44237 	-2.82819e-21
24.0561 	0.0827843 	0.725231 	2.44237 	-2.82819e-21
24.1262 	0.0827843 	0.725231 	2.44237 	-2.82819e-21
24.1964 	0.0827843 	0.725231 	2.44237 	-2.82819e-21
24.2665 	0.0827843 	0.725231 	2.44237 	-2.82819e-21
24.3366 	0.0827843 	0.725231 	2.44237 	-2.82819e-21
24.4068 	0.0827843 	0.725231 	2.44237 	-2.82819e-21
24.4769 	0.0827843 	0.725231 	2.44237 	-2.82819e-21
24.547 	0.0827843 	0.725231 	2.44237 	-2.82819e-21
24.6172 	0.0389778 	0.765864 	2.59882 	4.8393e-20
24.6873 	0.0389778 	0.765864 	2.59882 	4.8393e-20
24.7574 	0.0389778 	0.765864 	2.59882 	4.8393e-20
24.8276 	0.0389778 	0.765864 	2.59882 	4.8393e-20
24.8977 	0.0389778 	0.765864 	2.59882 	4.8393e-20
24.9678 	0.0389778 	0.765864 	2.59882 	4.8393e-20
25.038 	0.0389778 	0.765864 	2.59882 	4.8393e-20
25.1081 	0.0389778 	0.765864 	2.59882 	4.8393e-20
25.1782 	0.0389778 	0.765864 	2.59882 	4.8393e-20
25.2484 	0.0389778 	0.765864 	2.59882 	4.8393e-20
25.3185 	0.0389778 	0.765864 	2.59882 	4.8393e-20
25.3886 	0.0389778 	0.765864 	2.59882 	4.8393e-20
25.4588 	-0.0015066 	0.800395 	2.71783 	-4.87663e-21
25.5289 	-0.0015066 	0.800395 	2.71783 	-4.87663e-21
25.5991 	-0.0015066 	0.800395 	2.71783 	-4.87663e-21
25.6692 	-0.0015066 	0.800395 	2.71783 	-4.87663e-21
25.7393 	-0.0015066 	0.800395 	2.71783 	-4.87663e-21
25.8095 	-0.0015066 	0.800395 	2.71783 	-4.87663e-21
25.8796 	-0.0015066 	0.800395 	2.71783 	-4.87663e-21
25.9497 	-0.0015066 	0.800395 	2.71783 	-4.87663e-21
26.0199 	-0.0015066 	0.800395 	2.71783 	-4.87663e-21
26.09 	-0.00522926 	0.608482 	1.76915 	-1.08873e-20
26.1601 	-0.00522926 	0.608482 	1.76915 	-1.08873e-20
26.2303 	-0.00522926 	0.608482 	1.76915 	-1.08873e-20
26.3004 	-0.00522926 	0.608482 	1.76915 	-1.08873e-20
26.3705 	-0.00522926 	0.608482 	1.76915 	-1.08873e-20
26.4407 	-0.0505592 	0.622646 	1.8534 	-2.11883e-20
26.5108 	-0.0505592 	0.622646 	1.8534 	-2.11883e-20
26.5809 	-0.0505592 	0.622646 	1.8534 	-2.11883e-20
26.6511 	-0.0505592 	0.622646 	1.8534 	-2.11883e-20
26.7212 	-0.0505592 	0.622646 	1.8534 	-2.11883e-20
26.7913 	-0.0505592 	0.622646 	1.8534 	-2.11883e-20
26.8615 	-0.0505592 	0.622646 	1.8534 	-2.11883e-20
26.9316 	-0.0505592 	0.622646 	1.8534 	-2.11883e-20
27.0017 	-0.0505592 	0.622646 	1.8534 	-2.11883e-20
27.0719 	-0.0505592 	0.622646 	1.8534 	-2.11883e-20
27.142 	-0.0505592 	0.622646 	1.8534 	-2.11883e-20
27.2121 	-0.0505592 	0.622646 	1.8534 	-2.11883e-20
27.2823 	-0.0505592 	0.622646 	1.8534 	-2.11883e-20
27.3524 	-0.0949966 	0.62974 	1.92666 	0
27.4225 	-0.0949966 	0.62974 	1.92666 	0
27.4927 	-0.0949966 	0.62974 	1.92666 	0
27.5628 	-0.0949966 	0.62974 	1.92666 	0
27.6329 	-0.0949966 	0.62974 	1.92666 	0
27.7031 	-0.0949966 	0.62974 	1.92666 	0
27.7732 	-0.0949966 	0.62974 	1.92666 	0
27.8434 	-0.0949966 	0.62974 	1.92666 	0
27.9135 	-0.0949966 	0.62974 	1.92666 	0
27.9836 	-0.0949966 	0.62974 	1.92666 	0
28.0538 	-0.0949966 	0.62974 	1.92666 	0
28.1239 	-0.0949966 	0.62974 	1.92666 	0
28.194 	-0.0949966 	0.62974 	1.92666 	0
28.2642 	-0.0949966 	0.62974 	1.92666 	0
28.3343 	-0.0949966 	0.62974 	1.92666 	0
28.4044 	-0.136053 	0.635257 	1.99035 	0
28.4746 	-0.136053 	0.635257 	1.99035 	0
28.5447 	-0.136053 	0.635257 	1.99035 	0
28.6148 	-0.136053 	0.635257 	1.99035 	0
28.685 	-0.136053 	0.635257 	1.99035 	0
28.7551 	-0.136053 	0.635257 	1.99035 	0
28.8252 	-0.136053 	0.635257 	1.99035 	0
28.8954 	-0.136053 	0.635257 	1.99035 	0
28.9655 	-0.136053 	0.635257 	1.99035 	0
29.0356 	-0.136053 	0.635257 	1.99035 	0
29.1058 	-0.136053 	0.635257 	1.99035 	0
29.1759 	-0.136053 	0.635257 	1.99035 	0
29.246 	-0.136053 	0.635257 	1.99035 	0
29.3162 	-0.136053 	0.635257 	1.99035 	0
29.3863 	-0.136053 	0.635257 	1.99035 	0
29.4564 	-0.172487 	0.627978 	2.02218 	-7.93163e-20
29.5266 	-0.172487 	0.627978 	2.02218 	-7.93163e-20
29.5967 	-0.172487 	0.627978 	2.02218 	-7.93163e-20
29.6668 	-0.172487 	0.627978 	2.02218 	-7.93163e-20
29.737 	-0.172487 	0.627978 	2.02218 	-7.93163e-20
29.8071 	-0.172487 	0.627978 	2.02218 	-7.93163e-20
29.8773 	-0.172487 	0.627978 	2.02218 	-7.93163e-20
29.9474 	-0.172487 	0.627978 	2.02218 	-7.93163e-20
30.0175 	-0.172487 	0.627978 	2.02218 	-7.93163e-20
30.0877 	-0.172487 	0.627978 	2.02218 	-7.93163e-20
30.1578 	-0.172487 	0.627978 	2.02218 	-7.93163e-20
30.2279 	-0.172487 	0.627978 	2.02218 	-7.93163e-20
30.2981 	-0.172487 	0.627978 	2.02218 	-7.93163e-20
30.3682 	-0.172487 	0.627978 	2.02218 	-7.93163e-20
30.4383 	-0.172487 	0.627978 	2.02218 	-7.93163e-20
30.5085 	-0.172487 	0.627978 	2.02218 	-7.93163e-20
30.5786 	-0.203386 	0.615743 	2.03097 	-1.47566e-21
30.6487 	-0.203386 	0.615743 	2.03097 	-1.47566e-21
30.7189 	-0.203386 	0.615743 	2.03097 	-1.47566e-21
30.789 	-0.203386 	0.615743 	2.03097 	-1.47566e-21
30.8591 	-0.203386 	0.615743 	2.03097 	-1.47566e-21
30.9293 	-0.203386 	0.615743 	2.03097 	-1.47566e-21
30.9994 	-0.203386 	0.615743 	2.03097 	-1.47566e-21
31.0695 	-0.203386 	0.615743 	2.03097 	-1.47566e-21
31.1397 	-0.203386 	0.615743 	2.03097 	-1.47566e-21
31.2098 	-0.203386 	0.615743 	2.03097 	-1.47566e-21
31.2799 	-0.203386 	0.615743 	2.03097 	-1.47566e-21
31.3501 	-0.203386 	0.615743 	2.03097 	-1.47566e-21
31.4202 	-0.203386 	0.615743 	2.03097 	-1.47566e-21
31.4903 	-0.203386 	0.615743 	2.03097 	-1.47566e-21
31.5605 	-0.258438 	0.513586 	1.66265 	-1.61513e-19
31.6306 	-0.258438 	0.513586 	1.66265 	-1.61513e-19
31.7007 	-0.278367 	0.495399 	1.67493 	9.93862e-20
31.7709 	-0.278367 	0.495399 	1.67493 	9.93862e-20
31.841 	-0.278367 	0.495399 	1.67493 	9.93862e-20
31.9111 	-0.278367 	0.495399 	1.67493 	9.93862e-20
31.9813 	-0.278367 	0.495399 	1.67493 	9.93862e-20
32.0514 	-0.278367 	0.495399 	1.67493 	9.93862e-20
32.1216 	-0.278367 	0.495399 	1.67493 	9.93862e-20
32.1917 	-0.278367 	0.495399 	1.67493 	9.93862e-20
32.2618 	-0.278367 	0.495399 	1.67493 	9.93862e-20
32.332 	-0.278367 	0.495399 	1.67493 	9.93862e-20
32.4021 	-0.278367 	0.495399 	1.67493 	9.93862e-20
32.4722 	-0.278367 	0.495399 	1.67493 	9.93862e-20
32.5424 	-0.278367 	0.495399 	1.67493 	9.93862e-20
32.6125 	-0.278367 	0.495399 	1.67493 	9.93862e-20
32.6826 	-0.278367 	0.495399 	1.67493 	9.93862e-20
32.7528 	-0.278367 	0.495399 	1.67493 	9.93862e-20
32.8229 	-0.278367 	0.495399 	1.67493 	9.93862e-20
32.893 	-0.278367 	0.495399 	1.67493 	9.93862e-20
32.9632 	-0.287332 	0.475231 	1.67858 	2.77562e-20
33.0333 	-0.287332 	0.475231 	1.67858 	2.77562e-20
33.1034 	-0.287332 	0.475231 	1.67858 	2.77562e-20
33.1736 	-0.287332 	0.475231 	1.67858 	2.77562e-20
33.2437 	-0.287332 	0.475231 	1.67858 	2.77562e-20
33.3138 	-0.287332 	0.475231 	1.67858 	2.77562e-20
33.384 	-0.287332 	0.475231 	1.67858 	2.77562e-20
33.4541 	-0.287332 	0.475231 	1.67858 	2.77562e-20
33.5242 	-0.287332 	0.475231 	1.67858 	2.77562e-20
33.5944 	-0.287332 	0.475231 	1.67858 	2.77562e-20
33.6645 	-0.287332 	0.475231 	1.67858 	2.77562e-20
33.7346 	-0.287332 	0.475231 	1.67858 	2.77562e-20
33.8048 	-0.287332 	0.475231 	1.67858 	2.77562e-20
33.8749 	-0.287332 	0.475231 	1.67858 	2.77562e-20
33.945 	-0.287332 	0.475231 	1.67858 	2.77562e-20
34.0152 	-0.287332 	0.475231 	1.67858 	2.77562e-20
34.0853 	-0.287332 	0.475231 	1.67858 	2.77562e-20
34.1554 	-0.287332 	0.475231 	1.67858 	2.77562e-20
34.2256 	-0.282499 	0.451394 	1.6718 	-2.20631e-20
34.2957 	-0.282499 	0.451394 	1.6718 	-2.20631e-20
34.3659 	-0.282499 	0.451394 	1.6718 	-2.20631e-20
34.436 	-0.282499 	0.451394 	1.6718 	-2.20631e-20
34.5061 	-0.282499 	0.451394 	1.6718 	-2.20631e-20
34.5763 	-0.282499 	0.451394 	1.6718 	-2.20631e-20
34.6464 	-0.282499 	0.451394 	1.6718 	-2.20631e-20
34.7165 	-0.282499 	0.451394 	1.6718 	-2.20631e-20
34.7867 	-0.282499 	0.451394 	1.6718 	-2.20631e-20
34.8568 	-0.282499 	0.451394 	1.6718 	-2.20631e-20
34.9269 	-0.282499 	0.451394 	1.6718 	-2.20631e-20
34.9971 	-0.282499 	0.451394 	1.6718 	-2.20631e-20
35.0672 	-0.282499 	0.451394 	1.6718 	-2.20631e-20
35.1373 	-0.282499 	0.451394 	1.6718 	-2.20631e-20
35.2075 	-0.282499 	0.451394 	1.6718 	-2.20631e-20
35.2776 	-0.282499 	0.451394 	1.6718 	-2.20631e-20
35.3477 	-0.282499 	0.451394 	1.6718 	-2.20631e-20
35.4179 	-0.282499 	0.451394 	1.6718 	-2.20631e-20
35.488 	-0.282499 	0.451394 	1.6718 	-2.20631e-20
35.5581 	-0.282499 	0.451394 	1.6718 	-2.20631e-20
35.6283 	-0.262583 	0.423611 	1.65904 	-5.90981e-21
35.6984 	-0.262583 	0.423611 	1.65904 	-5.90981e-21
35.7685 	-0.262583 	0.423611 	1.65904 	-5.90981e-21
35.8387 	-0.262583 	0.423611 	1.65904 	-5.90981e-21
35.9088 	-0.262583 	0.423611 	1.65904 	-5.90981e-21
35.9789 	-0.262583 	0.423611 	1.65904 	-5.90981e-21
36.0491 	-0.262583 	0.423611 	1.65904 	-5.90981e-21
36.1192 	-0.262583 	0.423611 	1.65904 	-5.90981e-21
36.1893 	-0.262583 	0.423611 	1.65904 	-5.90981e-21
36.2595 	-0.262583 	0.423611 	1.65904 	-5.90981e-21
36.3296 	-0.262583 	0.423611 	1.65904 	-5.90981e-21
36.3997 	-0.262583 	0.423611 	1.65904 	-5.90981e-21
36.4699 	-0.262583 	0.423611 	1.65904 	-5.90981e-21
36.54 	-0.262583 	0.423611 	1.65904 	-5.90981e-21
36.6102 	-0.262583 	0.423611 	1.65904 	-5.90981e-21
36.6803 	-0.262583 	0.423611 	1.65904 	-5.90981e-21
36.7504 	-0.262583 	0.423611 	1.65904 	-5.90981e-21
36.8206 	-0.262583 	0.423611 	1.65904 	-5.90981e-21
36.8907 	-0.262583 	0.423611 	1.65904 	-5.90981e-21
36.9608 	-0.262583 	0.423611 	1.65904 	-5.90981e-21
37.031 	-0.262583 	0.423611 	1.65904 	-5.90981e-21
37.1011 	-0.235206 	0.388114 	1.6423 	0
37.1712 	-0.235206 	0.388114 	1.6423 	0
37.2414 	-0.235206 	0.388114 	1.6423 	0
37.3115 	-0.235206 	0.388114 	1.6423 	0
37.3816 	-0.235206 	0.388114 	1.6423 	0
37.4518 	-0.235206 	0.388114 	1.6423 	0
37.5219 	-0.235206 	0.388114 	1.6423 	0
37.592 	-0.235206 	0.388114 	1.6423 	0
37.6622 	-0.235206 	0.388114 	1.6423 	0
37.7323 	-0.235206 	0.388114 	1.6423 	0
37.8024 	-0.235206 	0.388114 	1.6423 	0
37.8726 	-0.235206 	0.388114 	1.6423 	0
37.9427 	-0.235206 	0.388114 	1.6423 	0
38.0128 	-0.235206 	0.388114 	1.6423 	0
38.083 	-0.235206 	0.388114 	1.6423 	0
38.1531 	-0.235206 	0.388114 	1.6423 	0
38.2232 	-0.235206 	0.388114 	1.6423 	0
38.2934 	-0.212417 	0.345112 	1.62969 	0
38.3635 	-0.212417 	0.345112 	1.62969 	0
38.4336 	-0.212417 	0.345112 	1.62969 	0
38.5038 	-0.212417 	0.345112 	1.62969 	0
38.5739 	-0.212417 	0.345112 	1.62969 	0
38.644 	-0.212417 	0.345112 	1.62969 	0
38.7142 	-0.212417 	0.345112 	1.62969 	0
38.7843 	-0.212417 	0.345112 	1.62969 	0
38.8545 	-0.212417 	0.345112 	1.62969 	0
38.9246 	-0.212417 	0.345112 	1.62969 	0
38.9947 	-0.212417 	0.345112 	1.62969 	0
39.0649 	-0.212417 	0.345112 	1.62969 	0
39.135 	-0.212417 	0.345112 	1.62969 	0
39.2051 	-0.212417 	0.345112 	1.62969 	0
39.2753 	-0.212417 	0.345112 	1.62969 	0
39.3454 	-0.212417 	0.345112 	1.62969 	0
39.4155 	-0.212417 	0.345112 	1.62969 	0
39.4857 	-0.212417 	0.345112 	1.62969 	0
39.5558 	-0.197894 	0.296303 	1.62277 	0
39.6259 	-0.197894 	0.296303 	1.62277 	0
39.6961 	-0.197894 	0.296303 	1.62277 	0
39.7662 	-0.197894 	0.296303 	1.62277 	0
39.8363 	-0.197894 	0.296303 	1.62277 	0
39.9065 	-0.197894 	0.296303 	1.62277 	0
39.9766 	-0.197894 	0.296303 	1.62277 	0
40.0467 	-0.197894 	0.296303 	1.62277 	0
40.1169 	-0.197894 	0.296303 	1.62277 	0
40.187 	-0.197894 	0.296303 	1.62277 	0
40.2571 	-0.197894 	0.296303 	1.62277 	0
40.3273 	-0.197894 	0.296303 	1.62277 	0
40.3974 	-0.197894 	0.296303 	1.62277 	0
40.4675 	-0.197894 	0.296303 	1.62277 	0
40.5377 	-0.197894 	0.296303 	1.62277 	0
40.6078 	-0.197894 	0.296303 	1.62277 	0
40.6779 	-0.197894 	0.296303 	1.62277 	0
40.7481 	-0.194592 	0.245714 	1.62314 	0
40.8182 	-0.194592 	0.245714 	1.62314 	0
40.8883 	-0.194592 	0.245714 	1.62314 	0
40.9585 	-0.194592 	0.245714 	1.62314 	0
41.0286 	-0.194592 	0.245714 	1.62314 	0
41.0988 	-0.194592 	0.245714 	1.62314 	0
41.1689 	-0.194592 	0.245714 	1.62314 	0
41.239 	-0.194592 	0.245714 	1.62314 	0
41.3092 	-0.194592 	0.245714 	1.62314 	0
41.3793 	-0.194592 	0.245714 	1.62314 	0
41.4494 	-0.194592 	0.245714 	1.62314 	0
41.5196 	-0.194592 	0.245714 	1.62314 	0
41.5897 	-0.194592 	0.245714 	1.62314 	0
41.6598 	-0.194592 	0.245714 	1.62314 	0
41.73 	-0.194592 	0.245714 	1.62314 	0
41.8001 	-0.194592 	0.245714 	1.62314 	0
41.8702 	-0.194592 	0.245714 	1.62314 	0
41.9404 	-0.194592 	0.245714 	1.62314 	0
42.0105 	-0.202952 	0.19612 	1.63003 	0
42.0806 	-0.202952 	0.19612 	1.63003 	0
42.1508 	-0.202952 	0.19612 	1.63003 	0
42.2209 	-0.202952 	0.19612 	1.63003 	0
42.291 	-0.202952 	0.19612 	1.63003 	0
42.3612 	-0.202952 	0.19612 	1.63003 	0
42.4313 	-0.202952 	0.19612 	1.63003 	0
42.5014 	-0.202952 	0.19612 	1.63003 	0
42.5716 	-0.202952 	0.19612 	1.63003 	0
42.6417 	-0.202952 	0.19612 	1.63003 	0
42.7118 	-0.202952 	0.19612 	1.63003 	0
42.782 	-0.202952 	0.19612 	1.63003 	0
42.8521 	-0.202952 	0.19612 	1.63003 	0
42.9222 	-0.202952 	0.19612 	1.63003 	0
42.9924 	-0.202952 	0.19612 	1.63003 	0
43.0625 	-0.202952 	0.19612 	1.63003 	0
43.1327 	-0.202952 	0.19612 	1.63003 	0
43.2028 	-0.218064 	0.150358 	1.6405 	0
43.2729 	-0.218064 	0.150358 	1.6405 	0
43.3431 	-0.218064 	0.150358 	1.6405 	0
43.4132 	-0.218064 	0.150358 	1.6405 	0
43.4833 	-0.218064 	0.150358 	1.6405 	0
43.5535 	-0.218064 	0.150358 	1.6405 	0
43.6236 	-0.218064 	0.150358 	1.6405 	0
43.6937 	-0.218064 	0.150358 	1.6405 	0
43.7639 	-0.218064 	0.150358 	1.6405 	0
43.834 	-0.218064 	0.150358 	1.6405 	0
43.9041 	-0.218064 	0.150358 	1.6405 	0
43.9743 	-0.218064 	0.150358 	1.6405 	0
44.0444 	-0.218064 	0.150358 	1.6405 	0
44.1145 	-0.218064 	0.150358 	1.6405 	0
44.1847 	-0.218064 	0.150358 	1.6405 	0
44.2548 	-0.218064 	0.150358 	1.6405 	0
44.3249 	-0.218064 	0.150358 	1.6405 	0
44.3951 	-0.218064 	0.150358 	1.6405 	0
44.4652 	-0.234905 	0.107072 	1.65144 	0
44.5353 	-0.234905 	0.107072 	1.65144 	0
44.6055 	-0.234905 	0.107072 	1.65144 	0
44.6756 	-0.234905 	0.107072 	1.65144 	0