/*--------------------------------*- C++ -*----------------------------------*\
| =========                 |                                                 |
| \\      /  F ield         | OpenFOAM: The Open Source CFD Toolbox           |
|  \\    /   O peration     | Version:  2306                                  |
|   \\  /    A nd           | Website:  www.openfoam.com                      |
|    \\/     M anipulation  |                                                 |
\*---------------------------------------------------------------------------*/
FoamFile
{
    version     2.0;
    format      ascii;
    arch        "LSB;label=32;scalar=64";
    class       volScalarField;
    location    "23";
    object      p;
}
// * * * * * * * * * * * * * * * * * * * * * * * * * * * * * * * * * * * * * //

dimensions      [0 2 -2 0 0 0 0];

internalField   nonuniform List<scalar> 
8800
(
0.423749
0.375699
0.337321
0.308677
0.288046
0.273278
0.262651
0.255109
0.250208
0.248043
0.249167
0.253231
0.259781
0.269023
0.281707
0.299247
0.323656
0.357243
0.399668
0.456787
0.256279
0.263485
0.271924
0.275341
0.273425
0.267897
0.261174
0.254988
0.250182
0.247236
0.246821
0.249183
0.253556
0.259439
0.266259
0.27281
0.276894
0.276351
0.270255
0.261255
0.232994
0.239174
0.243378
0.246743
0.249245
0.250037
0.248915
0.246735
0.244621
0.243582
0.244389
0.246632
0.249325
0.25142
0.251858
0.250254
0.247347
0.243664
0.23911
0.235319
0.227869
0.230573
0.23331
0.235637
0.237293
0.238619
0.239511
0.239674
0.239334
0.239161
0.239733
0.240704
0.241326
0.241124
0.240211
0.23892
0.237092
0.234525
0.23206
0.230528
0.222701
0.224128
0.225957
0.228049
0.229832
0.231152
0.232165
0.232993
0.23358
0.234023
0.234457
0.234693
0.234527
0.234005
0.233157
0.231817
0.23
0.228022
0.226648
0.225828
0.217738
0.218655
0.219937
0.221577
0.223285
0.22485
0.226129
0.227166
0.228069
0.228823
0.229251
0.229279
0.228972
0.228312
0.227231
0.225823
0.224306
0.222905
0.222021
0.221485
0.212959
0.213621
0.214649
0.216055
0.217573
0.219134
0.220645
0.221976
0.223087
0.223992
0.224519
0.224562
0.22414
0.223292
0.222164
0.220926
0.219665
0.218551
0.21789
0.217508
0.208383
0.208886
0.209754
0.211023
0.212438
0.213934
0.215477
0.216982
0.218332
0.219433
0.220088
0.220145
0.219681
0.218864
0.21786
0.216776
0.215683
0.214755
0.214237
0.213951
0.203989
0.204368
0.205124
0.206314
0.207686
0.209116
0.210606
0.212158
0.213693
0.215045
0.215846
0.215976
0.215625
0.214994
0.214185
0.21324
0.21226
0.211464
0.211055
0.210845
0.199799
0.200082
0.200746
0.201874
0.203215
0.204656
0.206173
0.20773
0.209312
0.210829
0.211882
0.212299
0.21223
0.21179
0.211104
0.210286
0.209422
0.208744
0.208428
0.208274
0.195818
0.196014
0.196621
0.197742
0.199093
0.200554
0.202159
0.203891
0.205692
0.207451
0.208814
0.209489
0.209588
0.209289
0.20875
0.208055
0.207271
0.206674
0.206433
0.206334
0.192185
0.192304
0.192804
0.193794
0.195019
0.196378
0.197898
0.199627
0.201575
0.203659
0.205392
0.206447
0.206942
0.207051
0.206847
0.206427
0.20589
0.205473
0.205325
0.205268
0.188739
0.188809
0.189196
0.19004
0.191166
0.192512
0.194114
0.19601
0.198197
0.200643
0.20287
0.204396
0.205251
0.205646
0.205734
0.205605
0.205347
0.205147
0.205086
0.205048
0.185082
0.185134
0.185437
0.186135
0.18715
0.188438
0.190071
0.192118
0.194645
0.197611
0.20042
0.20247
0.20385
0.204662
0.205145
0.205371
0.20543
0.205449
0.205451
0.205413
0.180783
0.180835
0.181104
0.181732
0.182707
0.184037
0.185809
0.188121
0.191065
0.194654
0.198207
0.200958
0.20286
0.204172
0.205043
0.205602
0.205952
0.206134
0.206173
0.206131
0.175575
0.175633
0.175941
0.176605
0.177653
0.179148
0.181209
0.183969
0.187555
0.191987
0.19643
0.199921
0.202452
0.204221
0.205446
0.206309
0.206881
0.207162
0.207225
0.207178
0.169306
0.169361
0.169722
0.170511
0.171746
0.173535
0.176014
0.17937
0.183757
0.189234
0.194794
0.199222
0.202423
0.204737
0.2064
0.207577
0.208319
0.208675
0.208766
0.208718
0.161876
0.161923
0.162366
0.163345
0.164898
0.167131
0.17021
0.174376
0.179824
0.186624
0.193552
0.199095
0.203147
0.206069
0.208151
0.209611
0.210511
0.210946
0.211074
0.211025
0.153148
0.153187
0.153713
0.154967
0.156906
0.159725
0.163597
0.16879
0.175572
0.184026
0.192626
0.19952
0.204594
0.208243
0.210852
0.212612
0.21371
0.214259
0.214432
0.214379
0.142841
0.142877
0.143521
0.145038
0.147563
0.151081
0.15596
0.162492
0.170971
0.181481
0.192128
0.200659
0.206936
0.211464
0.21468
0.216846
0.218202
0.2189
0.219119
0.219056
0.13044
0.130484
0.131285
0.133172
0.136331
0.140859
0.147029
0.155286
0.16593
0.179003
0.192135
0.202607
0.210311
0.215879
0.219815
0.222503
0.224197
0.225076
0.225339
0.225259
0.115096
0.115161
0.1162
0.11865
0.122691
0.128492
0.136431
0.146976
0.160402
0.176653
0.192769
0.205534
0.214914
0.22168
0.226481
0.229787
0.231895
0.232977
0.233292
0.23319
0.0956585
0.095757
0.0971851
0.100485
0.105848
0.113474
0.123862
0.137452
0.154422
0.174548
0.194187
0.209601
0.220897
0.229063
0.234882
0.238925
0.241525
0.242853
0.243221
0.243092
0.0703077
0.0704776
0.0725738
0.0772865
0.0847675
0.0951705
0.109034
0.126684
0.14811
0.172874
0.196567
0.214972
0.228434
0.2382
0.245218
0.250143
0.253325
0.25493
0.255355
0.255189
0.0360018
0.0363551
0.0398099
0.047185
0.0582599
0.0729999
0.0918343
0.114833
0.141735
0.171883
0.200099
0.221781
0.237623
0.249191
0.257605
0.263596
0.26749
0.269423
0.269896
0.269683
-0.0130725
-0.011722
-0.00472749
0.0081338
0.0254708
0.046914
0.0726194
0.102377
0.135726
0.171876
0.204947
0.23009
0.248463
0.262
0.272006
0.279278
0.284087
0.286444
0.286968
0.286684
-0.0859733
-0.0777094
-0.0616188
-0.0388917
-0.0121302
0.0182736
0.0523689
0.0899238
0.130455
0.173191
0.21159
0.240619
0.261945
0.277888
0.289988
0.299099
0.305314
0.308503
0.3093
0.309134
-0.163784
-0.145501
-0.119629
-0.08651
-0.0499995
-0.0105036
0.0320946
0.0776717
0.125846
0.175959
0.22078
0.254825
0.280135
0.299387
0.314339
0.325987
0.334256
0.338841
0.34031
0.340331
-0.22771
-0.206546
-0.172569
-0.130976
-0.0858836
-0.0378868
0.0128861
0.0662371
0.121796
0.178945
0.229729
0.268268
0.297028
0.319065
0.336273
0.34965
0.359564
0.365027
0.366236
0.366404
-0.279614
-0.256302
-0.217426
-0.169781
-0.118013
-0.062979
-0.00508003
0.0553254
0.117713
0.181378
0.237561
0.279974
0.311497
0.33555
0.354281
0.368856
0.379597
0.385559
0.387032
0.387322
-0.322364
-0.298043
-0.255641
-0.203363
-0.146258
-0.085502
-0.0215814
0.0449815
0.113493
0.183045
0.24402
0.289692
0.323374
0.348893
0.368637
0.383979
0.395102
0.401466
0.403331
0.403636
-0.35885
-0.333951
-0.288909
-0.232937
-0.171458
-0.10588
-0.0367864
0.0351722
0.109143
0.184006
0.249263
0.297739
0.333148
0.359716
0.38007
0.395734
0.406998
0.413501
0.415535
0.415792
-0.391025
-0.365776
-0.318714
-0.259651
-0.194478
-0.124737
-0.0510999
0.0256773
0.104601
0.184353
0.253564
0.30458
0.34149
0.368876
0.389586
0.405332
0.4166
0.423127
0.425283
0.425525
-0.420326
-0.394764
-0.346047
-0.284366
-0.216034
-0.142639
-0.0649386
0.0162109
0.0997205
0.184079
0.257092
0.31058
0.348895
0.376999
0.398028
0.413833
0.425111
0.431585
0.433821
0.43404
-0.447617
-0.421774
-0.371627
-0.307693
-0.236582
-0.159956
-0.0786233
0.00652589
0.0943219
0.183107
0.259856
0.315801
0.355579
0.384491
0.405905
0.421856
0.433101
0.439477
0.441757
0.442031
-0.473591
-0.447413
-0.395905
-0.330087
-0.25648
-0.176982
-0.0923754
-0.00355984
0.0882517
0.181304
0.261811
0.32039
0.361825
0.391695
0.413601
0.429757
0.441047
0.447333
0.449546
0.449816
-0.498544
-0.472007
-0.419386
-0.351789
-0.275963
-0.193895
-0.106335
-0.0141644
0.0814127
0.178633
0.263043
0.324476
0.367762
0.398769
0.421326
0.437811
0.449205
0.455436
0.457519
0.45772
-0.522814
-0.495854
-0.442249
-0.372986
-0.295178
-0.210815
-0.120586
-0.0253407
0.0737766
0.175081
0.263471
0.327984
0.3734
0.405782
0.429171
0.446109
0.457663
0.46385
0.465772
0.465883
-0.546455
-0.518988
-0.464577
-0.393781
-0.314213
-0.227794
-0.135158
-0.0371046
0.0653118
0.170535
0.26297
0.330844
0.378723
0.412745
0.437154
0.454663
0.466417
0.472545
0.474329
0.474311
-0.569556
-0.541648
-0.486346
-0.414215
-0.333084
-0.244829
-0.150049
-0.0494683
0.0559693
0.164921
0.261454
0.332953
0.383633
0.419613
0.445255
0.463451
0.475424
0.481441
0.483054
0.482922
-0.592197
-0.563767
-0.507603
-0.434289
-0.351776
-0.261898
-0.165227
-0.0624042
0.0457676
0.15823
0.258814
0.334146
0.388003
0.426318
0.453451
0.472434
0.484611
0.490427
0.491813
0.491585
-0.61437
-0.585366
-0.528384
-0.453986
-0.370241
-0.278952
-0.180628
-0.0758427
0.0347688
0.150441
0.254947
0.334245
0.391644
0.43276
0.461733
0.481603
0.49388
0.499374
0.50048
0.500166
-0.635925
-0.606385
-0.548622
-0.47326
-0.38843
-0.29591
-0.19617
-0.0896868
0.0230421
0.141581
0.249775
0.333072
0.394308
0.438769
0.470126
0.491071
0.503221
0.508107
0.508842
0.508453
-0.656802
-0.626762
-0.568281
-0.49205
-0.406276
-0.312703
-0.211755
-0.103852
0.0106741
0.131698
0.243258
0.330451
0.39571
0.444063
0.478613
0.501153
0.512892
0.516547
0.516665
0.51624
-0.677077
-0.646454
-0.587326
-0.510315
-0.423713
-0.329246
-0.227293
-0.118229
-0.00222367
0.120883
0.235382
0.326253
0.395526
0.448175
0.486959
0.512324
0.523851
0.525186
0.523805
0.523401
-0.696568
-0.665456
-0.605699
-0.527988
-0.440679
-0.345456
-0.242686
-0.132697
-0.0155203
0.109259
0.226184
0.320379
0.393466
0.450441
0.494435
0.524654
0.537929
0.536743
0.531674
0.53007
-0.715362
-0.683758
-0.623416
-0.545095
-0.457207
-0.361378
-0.25799
-0.147318
-0.0292882
0.0967569
0.215545
0.312584
0.389233
0.450042
0.499608
0.536928
0.555972
0.557027
0.546349
0.531988
-0.733398
-0.701357
-0.640611
-0.561823
-0.473584
-0.377343
-0.273616
-0.162581
-0.0440822
0.0827078
0.202762
0.301983
0.38209
0.44575
0.499454
0.544415
0.569786
0.567405
0.552105
0.536183
-0.750515
-0.718294
-0.657118
-0.577941
-0.489551
-0.393028
-0.289344
-0.178151
-0.0595678
0.0674295
0.18805
0.288322
0.371634
0.436944
0.488948
0.535107
0.561215
0.547333
0.477785
0.442289
-0.76629
-0.735729
-0.672538
-0.592872
-0.504409
-0.40794
-0.30489
-0.193783
-0.0754962
0.051097
0.17148
0.271473
0.357104
0.424136
0.465901
0.498821
0.508847
0.462195
0.388496
0.342904
-0.815257
-0.75165
-0.686599
-0.607695
-0.519304
-0.423275
-0.320238
-0.209683
-0.0921476
0.03336
0.152629
0.251231
0.33576
0.409148
0.418462
0.428615
0.399149
0.336329
0.256864
0.212447
-0.78183
-0.765389
-0.707078
-0.629263
-0.541179
-0.445621
-0.343596
-0.234107
-0.118161
0.00493688
0.120882
0.215968
0.291368
0.363361
0.365618
0.256514
0.150341
0.0774025
0.00187528
0.0422328
-0.812097
-0.782744
-0.723446
-0.645788
-0.558031
-0.462894
-0.360879
-0.252261
-0.137698
-0.0168707
0.0956329
0.186418
0.253643
0.291714
0.245928
0.0960841
-0.0383712
-0.133097
-0.236129
-0.174993
-0.834925
-0.803062
-0.742312
-0.664357
-0.576733
-0.481787
-0.380057
-0.272487
-0.159619
-0.0415985
0.0666923
0.151721
0.20907
0.215543
0.106507
-0.0790728
-0.243345
-0.371634
-0.511979
-0.459974
-0.857025
-0.823819
-0.761982
-0.683336
-0.595619
-0.500865
-0.399775
-0.293373
-0.18238
-0.0674888
0.0358724
0.114436
0.158436
0.128273
-0.0404378
-0.255826
-0.462559
-0.653617
-0.862028
-0.845912
-0.878328
-0.844924
-0.782329
-0.703077
-0.615226
-0.520725
-0.420384
-0.31525
-0.206352
-0.0949053
0.00300874
0.0744821
0.0999502
0.0346622
-0.181784
-0.419811
-0.659923
-0.872646
-1.16251
-1.46177
-0.899785
-0.866586
-0.803586
-0.723937
-0.635952
-0.54166
-0.441994
-0.338139
-0.231408
-0.123572
-0.0313082
0.0322618
0.0396923
-0.0776018
-0.306429
-0.550496
-0.791849
-0.986127
-1.07941
-1.24312
-0.922164
-0.889141
-0.826021
-0.746222
-0.658225
-0.564227
-0.465322
-0.362901
-0.25863
-0.154859
-0.0686864
-0.0144166
-0.0315731
-0.196087
-0.418232
-0.646996
-0.849048
-0.96216
-0.987105
-1.00951
-0.945758
-0.9129
-0.849757
-0.769971
-0.68212
-0.588564
-0.490631
-0.389922
-0.288507
-0.189402
-0.109742
-0.0667377
-0.110075
-0.305834
-0.520952
-0.722938
-0.878823
-0.932928
-0.947664
-0.949985
-0.970764
-0.938001
-0.874826
-0.795124
-0.707532
-0.614606
-0.517859
-0.419158
-0.321007
-0.227174
-0.154493
-0.125739
-0.191205
-0.410114
-0.615766
-0.795796
-0.908944
-0.922798
-0.925939
-0.925946
-0.997101
-0.964251
-0.901245
-0.821609
-0.734403
-0.64226
-0.546906
-0.450518
-0.356007
-0.26801
-0.203014
-0.186984
-0.285174
-0.508165
-0.704442
-0.856426
-0.903952
-0.913781
-0.915417
-0.914904
-1.02447
-0.99147
-0.928777
-0.849276
-0.762564
-0.67137
-0.577617
-0.483824
-0.39334
-0.311593
-0.25486
-0.252135
-0.390097
-0.602742
-0.78529
-0.900115
-0.905749
-0.909252
-0.91088
-0.910635
-1.05228
-1.01945
-0.956975
-0.877838
-0.79174
-0.701658
-0.609694
-0.51874
-0.432672
-0.357474
-0.309174
-0.324987
-0.491745
-0.696575
-0.862512
-0.910523
-0.923852
-0.915808
-0.910372
-0.909208
-1.08018
-1.04763
-0.985415
-0.906857
-0.821511
-0.732666
-0.642699
-0.554741
-0.473428
-0.405015
-0.365029
-0.398395
-0.588778
-0.792193
-0.932807
-0.96462
-0.940889
-0.922904
-0.912124
-0.907826
-1.10713
-1.0753
-1.0136
-0.935679
-0.851224
-0.763782
-0.675979
-0.591109
-0.514651
-0.453381
-0.421859
-0.470635
-0.673141
-0.889526
-1.00822
-0.994604
-0.979497
-0.964813
-0.957174
-0.951919
-1.13214
-1.10092
-1.04074
-0.963483
-0.880079
-0.794173
-0.708611
-0.626924
-0.555033
-0.50141
-0.47825
-0.543531
-0.744016
-0.955439
-1.17037
-1.15828
-1.12391
-1.12093
-1.11162
-1.10005
-1.15382
-1.12387
-1.06515
-0.989243
-0.907129
-0.822817
-0.739413
-0.660959
-0.593069
-0.547006
-0.531217
-0.616621
-0.827964
-0.951674
-1.15555
-1.20684
-1.3188
-1.36521
-1.34801
-1.34124
-1.17068
-1.14258
-1.08592
-1.01162
-0.93109
-0.848498
-0.767091
-0.691414
-0.627273
-0.586826
-0.581315
-0.686916
-0.942805
-0.903304
-0.54654
-0.895111
-1.32702
-1.44103
-1.43313
-1.43396
-1.18126
-1.15563
-1.10167
-1.02939
-0.950588
-0.869776
-0.790179
-0.716255
-0.65535
-0.617837
-0.629118
-0.763496
-1.13869
-1.39575
-1.46255
-1.75395
-1.78689
-1.65381
-1.53815
-1.55848
-1.1838
-1.16155
-1.11108
-1.0413
-0.964386
-0.885237
-0.806983
-0.733828
-0.67342
-0.639175
-0.659416
-0.850869
-1.44135
-2.38552
-3.20009
-3.60741
-3.47479
-2.96653
-2.51736
-2.35597
-1.17754
-1.15903
-1.11292
-1.04635
-0.971493
-0.89375
-0.816044
-0.742375
-0.679226
-0.641106
-0.657317
-0.86023
-1.48984
-2.38201
-3.16129
-3.41207
-3.35129
-3.07529
-2.75027
-2.57708
-1.16111
-1.14638
-1.10638
-1.04407
-0.971446
-0.894752
-0.816643
-0.740301
-0.671677
-0.618438
-0.612436
-0.678686
-0.969543
-1.21757
-1.43418
-1.4343
-1.24827
-1.00636
-0.801595
-0.686742
-1.13581
-1.12521
-1.09184
-1.03484
-0.96456
-0.888573
-0.809027
-0.728558
-0.649228
-0.575278
-0.512071
-0.420168
-0.276712
0.0541815
0.484616
0.917431
1.25989
1.4732
1.5821
1.61902
-1.1042
-1.09759
-1.07157
-1.02041
-0.952465
-0.87662
-0.795382
-0.709747
-0.618551
-0.523694
-0.41438
-0.306617
0.0418286
0.637221
1.29214
1.86703
2.28808
2.53303
2.6379
2.66778
-1.0702
-1.06649
-1.04897
-1.00353
-0.937479
-0.861493
-0.778742
-0.689509
-0.593504
-0.482157
-0.366092
-0.239885
-0.0261602
0.523479
1.12989
1.65695
2.0376
2.25935
2.36338
2.39813
-1.03893
-1.03698
-1.02658
-0.987297
-0.922086
-0.845072
-0.761936
-0.673086
-0.576015
-0.465265
-0.351416
-0.233605
-0.0998092
0.233981
0.675059
1.04146
1.319
1.49008
1.57378
1.60091
-1.00649
-1.00732
-1.00192
-0.967067
-0.902184
-0.824879
-0.744561
-0.659977
-0.568586
-0.46529
-0.359995
-0.261676
-0.165342
0.0207729
0.316916
0.579614
0.779848
0.905374
0.970193
0.990151
-0.952715
-0.955062
-0.95159
-0.921581
-0.862945
-0.793397
-0.721246
-0.646095
-0.564321
-0.472021
-0.379285
-0.300523
-0.223845
-0.120406
0.0754843
0.25204
0.385493
0.466976
0.504831
0.515365
-0.858906
-0.860325
-0.856964
-0.836814
-0.79545
-0.744199
-0.688325
-0.627535
-0.558446
-0.479402
-0.402612
-0.345117
-0.297011
-0.237963
-0.106084
0.0132091
0.0993339
0.151078
0.174642
0.177756
-0.753577
-0.753944
-0.751582
-0.741368
-0.720037
-0.689158
-0.652044
-0.607286
-0.551765
-0.483961
-0.417899
-0.37702
-0.363488
-0.334652
-0.241895
-0.156411
-0.0948761
-0.0603684
-0.0461036
-0.0452207
-0.677783
-0.677044
-0.675608
-0.671657
-0.662166
-0.646038
-0.623237
-0.591534
-0.547205
-0.487347
-0.425856
-0.388072
-0.384718
-0.363161
-0.29822
-0.24326
-0.206437
-0.186632
-0.178707
-0.179203
-0.640472
-0.639574
-0.638386
-0.636726
-0.631997
-0.622566
-0.607926
-0.585084
-0.548564
-0.493628
-0.428793
-0.381254
-0.360823
-0.340058
-0.303119
-0.272558
-0.254746
-0.246347
-0.243826
-0.244628
-0.635143
-0.634177
-0.632968
-0.631634
-0.628553
-0.622465
-0.612883
-0.597153
-0.568272
-0.515457
-0.442576
-0.372104
-0.330137
-0.312287
-0.299782
-0.286331
-0.272164
-0.262664
-0.257561
-0.258703
-0.654245
-0.653367
-0.652464
-0.65172
-0.650246
-0.647719
-0.644324
-0.638532
-0.622864
-0.581698
-0.504083
-0.408124
-0.344372
-0.329665
-0.320002
-0.301846
-0.283681
-0.267323
-0.260956
-0.262508
-0.690538
-0.690067
-0.690039
-0.690843
-0.692704
-0.696867
-0.705359
-0.719717
-0.736664
-0.734789
-0.663046
-0.534737
-0.444521
-0.414496
-0.386973
-0.343324
-0.29806
-0.267002
-0.255406
-0.2593
-0.733881
-0.734173
-0.73575
-0.739433
-0.747191
-0.762649
-0.791631
-0.843376
-0.925694
-1.00744
-0.956215
-0.775012
-0.635876
-0.577545
-0.509615
-0.424335
-0.345503
-0.294988
-0.284123
-0.287785
-0.770715
-0.772079
-0.775711
-0.783325
-0.798999
-0.829383
-0.886547
-0.993604
-1.17899
-1.39761
-1.38316
-1.11906
-0.898622
-0.788884
-0.675383
-0.546693
-0.439101
-0.381177
-0.37649
-0.380816
-0.784654
-0.787143
-0.792824
-0.8043
-0.827684
-0.872755
-0.958422
-1.12382
-1.42204
-1.79325
-1.82536
-1.47643
-1.18043
-1.01665
-0.866476
-0.724828
-0.619075
-0.571263
-0.567753
-0.572904
-0.761731
-0.764814
-0.771477
-0.785314
-0.813358
-0.86721
-0.969764
-1.16619
-1.53085
-1.99078
-2.05178
-1.699
-1.37585
-1.2118
-1.05308
-0.95103
-0.896629
-0.870821
-0.8579
-0.856967
-0.695284
-0.698307
-0.704793
-0.718276
-0.745788
-0.798708
-0.900401
-1.09835
-1.45575
-1.87826
-1.93212
-1.64546
-1.40799
-1.25815
-1.15733
-1.12893
-1.1213
-1.10055
-1.08176
-1.07484
-0.591409
-0.59374
-0.598719
-0.60931
-0.631425
-0.674336
-0.757103
-0.918616
-1.21052
-1.55046
-1.59686
-1.41894
-1.26214
-1.13597
-1.09801
-1.1144
-1.12772
-1.11356
-1.09896
-1.09198
-0.466253
-0.467518
-0.470289
-0.476697
-0.49083
-0.51884
-0.573239
-0.679808
-0.877558
-1.12366
-1.18506
-1.09352
-0.975442
-0.888219
-0.886688
-0.939975
-0.954713
-0.949009
-0.942368
-0.938486
-0.339424
-0.339663
-0.340407
-0.342854
-0.349288
-0.362806
-0.389593
-0.442606
-0.544383
-0.688301
-0.733805
-0.67696
-0.598507
-0.58779
-0.650245
-0.702874
-0.715585
-0.716101
-0.714874
-0.713471
-0.227216
-0.226754
-0.226174
-0.225927
-0.226906
-0.229964
-0.236804
-0.250976
-0.27857
-0.321366
-0.331488
-0.29647
-0.303495
-0.362972
-0.437904
-0.476137
-0.486896
-0.490931
-0.492801
-0.492864
-0.138637
-0.137874
-0.13674
-0.135298
-0.133554
-0.131137
-0.127568
-0.122067
-0.112703
-0.0927035
-0.0687109
-0.0801172
-0.142171
-0.21617
-0.268384
-0.294305
-0.305424
-0.310342
-0.313435
-0.314243
-0.0754248
-0.0746556
-0.0735231
-0.0719734
-0.0695832
-0.0655446
-0.0588111
-0.0478204
-0.0304235
-0.00576791
0.0106887
-0.0109312
-0.067113
-0.120533
-0.155917
-0.17212
-0.180477
-0.185103
-0.188087
-0.189034
-0.0344568
-0.0338338
-0.032958
-0.0318027
-0.0298457
-0.0262451
-0.0200841
-0.0102235
0.00421568
0.0210782
0.0264095
0.00660777
-0.0310224
-0.06508
-0.0872732
-0.098934
-0.104474
-0.107575
-0.109643
-0.110344
-0.0105922
-0.0101506
-0.00956318
-0.00891689
-0.00768868
-0.0051989
-0.000807312
0.00608969
0.0154848
0.0245743
0.0235869
0.00809738
-0.0152561
-0.035797
-0.0493858
-0.0566166
-0.0600388
-0.0619237
-0.0631773
-0.0636089
0.0012987
0.00158242
0.00192026
0.00217423
0.00276763
0.00419637
0.00687059
0.0110489
0.0163798
0.020498
0.0174005
0.00636991
-0.00772832
-0.0197397
-0.0277576
-0.0320553
-0.034091
-0.0351869
-0.0358918
-0.0361351
0.00538275
0.00554911
0.00571002
0.0057121
0.00588481
0.00654353
0.00795479
0.0101989
0.0129067
0.0144646
0.011525
0.0044612
-0.00363611
-0.0103472
-0.014829
-0.0173185
-0.0184308
-0.0190557
-0.0194409
-0.0195719
0.00467258
0.00475953
0.00480861
0.00469468
0.00464132
0.00485228
0.00546542
0.00648259
0.0076605
0.00813421
0.0063071
0.0026163
-0.00132644
-0.00451847
-0.00664721
-0.00786646
-0.00846191
-0.00870424
-0.00889939
-0.00896848
0.00118324
0.00120214
0.00130255
0.00140075
0.00141332
0.00140472
0.00143175
0.00151636
0.00163886
0.00169872
0.0014608
0.000776024
-5.83107e-05
-0.000849673
-0.00144118
-0.00176982
-0.00181109
-0.00169581
-0.0015691
-0.00156463
-0.637148
-0.417136
-0.182215
0.0097215
0.164536
0.288834
0.393671
0.481421
0.517763
0.502125
-0.25507
-0.11205
0.0356722
0.163321
0.271434
0.361772
0.434781
0.486272
0.51353
0.525882
-0.00111986
0.0945888
0.193672
0.282286
0.358655
0.42261
0.473282
0.510566
0.537339
0.554715
0.178748
0.244872
0.314685
0.378603
0.434078
0.480993
0.51938
0.550089
0.574376
0.592321
0.316353
0.363739
0.415522
0.463287
0.505744
0.542614
0.574006
0.600173
0.621113
0.638845
0.42809
0.463942
0.505698
0.543925
0.578863
0.610113
0.637323
0.660206
0.677995
0.695492
0.525488
0.556058
0.592247
0.62621
0.657647
0.68612
0.710986
0.731594
0.746719
0.764142
0.617127
0.647585
0.682848
0.7161
0.746665
0.774091
0.797675
0.816613
0.829619
0.847094
0.71434
0.748469
0.785682
0.820104
0.850749
0.877418
0.899746
0.917151
0.928839
0.94667
0.830452
0.869222
0.907922
0.94261
0.972243
0.997224
1.01777
1.03367
1.04516
1.06354
0.975981
1.01574
1.05137
1.08198
1.10777
1.13001
1.14916
1.16481
1.17756
1.19572
1.15082
1.18317
1.20915
1.23158
1.25175
1.27059
1.28831
1.30493
1.32073
1.33895
1.33865
1.35633
1.37202
1.38872
1.40494
1.41954
1.43262
1.44664
1.46377
1.48346
1.52062
1.53148
1.54366
1.55449
1.56378
1.57339
1.58434
1.59597
1.60595
1.62113
1.73156
1.73361
1.71848
1.70326
1.69693
1.70264
1.72126
1.7517
1.78386
1.81461
2.03748
1.90044
1.82418
1.78218
1.76476
1.7688
1.79619
1.85233
1.95579
2.17108
0.320036
0.31666
0.310733
0.300926
0.287983
0.275558
0.265241
0.257278
0.251581
0.248221
0.247727
0.250315
0.2553
0.262438
0.271788
0.283411
0.296493
0.308451
0.315892
0.3206
0.238047
0.243933
0.250845
0.256088
0.258935
0.258606
0.255698
0.251756
0.248146
0.245775
0.24548
0.247516
0.251056
0.255291
0.25914
0.261065
0.259895
0.255756
0.249825
0.242767
0.230397
0.232744
0.236102
0.239023
0.241251
0.24306
0.244017
0.243747
0.242674
0.241678
0.241688
0.242942
0.244588
0.245716
0.245639
0.244367
0.242476
0.240067
0.236864
0.233882
0.225267
0.226352
0.228233
0.230639
0.232623
0.23403
0.235126
0.235961
0.236371
0.23651
0.236827
0.237402
0.237751
0.237548
0.236877
0.235877
0.234364
0.232214
0.230035
0.2286
0.220196
0.220847
0.221979
0.223746
0.225598
0.227253
0.228534
0.229539
0.230402
0.231114
0.231647
0.231906
0.231804
0.231388
0.230639
0.229435
0.227839
0.226132
0.224715
0.223909
0.215321
0.215767
0.216583
0.217955
0.219533
0.221144
0.222668
0.223967
0.225039
0.225958
0.22663
0.22688
0.226721
0.226163
0.225192
0.223934
0.222567
0.221236
0.220201
0.21966
0.210651
0.210976
0.211623
0.212796
0.214209
0.215701
0.217246
0.218758
0.220113
0.22124
0.222056
0.222374
0.222145
0.221455
0.220468
0.219345
0.218189
0.217066
0.216241
0.215842
0.206158
0.206396
0.20693
0.207985
0.209327
0.210764
0.21226
0.2138
0.215305
0.216651
0.217654
0.218066
0.217879
0.217279
0.216437
0.215463
0.214422
0.213438
0.212757
0.212457
0.201873
0.202045
0.202484
0.203439
0.204713
0.206101
0.207544
0.209048
0.21062
0.212171
0.2134
0.213956
0.213934
0.21355
0.212921
0.212116
0.211213
0.210365
0.209812
0.209589
0.197774
0.197888
0.198261
0.199171
0.200448
0.201859
0.203392
0.205014
0.206663
0.208305
0.20976
0.210669
0.210958
0.21075
0.210206
0.20949
0.208676
0.207904
0.207441
0.207281
0.19396
0.19402
0.194324
0.195161
0.196379
0.197735
0.199205
0.200845
0.20269
0.204638
0.206425
0.207613
0.208116
0.208176
0.207928
0.207452
0.20682
0.206191
0.205836
0.205739
0.190461
0.190486
0.190715
0.191404
0.192468
0.193727
0.195172
0.196831
0.198731
0.200875
0.203051
0.204725
0.205716
0.206178
0.206249
0.206071
0.205732
0.205355
0.205157
0.205108
0.186968
0.186979
0.187148
0.187703
0.188642
0.189846
0.191302
0.193101
0.195282
0.197835
0.200517
0.202684
0.20408
0.204873
0.205296
0.205426
0.205394
0.205287
0.205239
0.205216
0.183029
0.183035
0.183183
0.183636
0.184456
0.185592
0.187059
0.188956
0.191375
0.194362
0.197669
0.200519
0.202515
0.203864
0.204699
0.205247
0.205553
0.205719
0.205788
0.205777
0.178306
0.178307
0.178477
0.178922
0.179734
0.180927
0.182554
0.184762
0.187646
0.19127
0.195377
0.198998
0.201617
0.203446
0.204723
0.205583
0.206174
0.206532
0.206667
0.206661
0.172584
0.172578
0.172765
0.173283
0.174198
0.175555
0.177462
0.18008
0.183565
0.188015
0.19312
0.197686
0.201055
0.203484
0.205151
0.206361
0.20724
0.207745
0.207929
0.207933
0.165745
0.165725
0.165941
0.166584
0.167702
0.169365
0.171707
0.17493
0.179223
0.184727
0.191074
0.196795
0.201047
0.204109
0.206314
0.207912
0.208977
0.209581
0.209812
0.209831
0.157683
0.157646
0.157894
0.158687
0.160147
0.162226
0.16515
0.169173
0.174518
0.181356
0.18924
0.196367
0.20168
0.205534
0.208297
0.210258
0.211556
0.212298
0.212602
0.212638
0.148197
0.148141
0.148446
0.149423
0.151243
0.153878
0.157582
0.162627
0.169307
0.177819
0.187606
0.196441
0.203049
0.207853
0.21128
0.213695
0.215274
0.216195
0.216588
0.216639
0.136916
0.136845
0.13724
0.13846
0.140676
0.144068
0.148733
0.155089
0.163481
0.174113
0.186244
0.19714
0.205281
0.211202
0.215438
0.218395
0.220362
0.221527
0.222024
0.222083
0.123135
0.123051
0.123587
0.125154
0.127939
0.132205
0.138177
0.146295
0.156917
0.170219
0.185218
0.198581
0.20853
0.215778
0.220952
0.224575
0.22701
0.228467
0.22908
0.229149
0.10585
0.105753
0.10652
0.108598
0.112232
0.117763
0.125539
0.136014
0.149534
0.166185
0.184656
0.200924
0.212978
0.221745
0.228025
0.232444
0.235443
0.237235
0.237975
0.23805
0.0836378
0.0835442
0.0846925
0.0875819
0.0925294
0.0999783
0.110333
0.124033
0.14133
0.16213
0.184714
0.20433
0.218782
0.229296
0.236858
0.24222
0.245896
0.248091
0.248978
0.249056
0.0541349
0.0540907
0.0559401
0.0602582
0.0674237
0.0779548
0.0921458
0.110301
0.132451
0.158267
0.185599
0.208966
0.226084
0.238562
0.247603
0.254083
0.258565
0.261226
0.262275
0.262353
0.0131611
0.0133225
0.0167082
0.0240471
0.0353562
0.0509915
0.0708901
0.0950495
0.123243
0.154926
0.187548
0.214977
0.234963
0.249591
0.260308
0.268114
0.273596
0.276821
0.278028
0.27809
-0.046965
-0.0455437
-0.0373657
-0.0235369
-0.00451551
0.0192473
0.0471452
0.078939
0.114274
0.152503
0.190769
0.222419
0.245376
0.262262
0.274799
0.284097
0.29075
0.294676
0.296082
0.296136
-0.119215
-0.116633
-0.101009
-0.0769199
-0.0474081
-0.0141556
0.0225043
0.062502
0.105551
0.151094
0.196047
0.233117
0.260217
0.280459
0.295799
0.307487
0.316063
0.321088
0.322642
0.322872
-0.193257
-0.185633
-0.16256
-0.128499
-0.0892258
-0.0467557
-0.00137402
0.0468374
0.0976383
0.150542
0.202293
0.244901
0.276197
0.299837
0.31809
0.332291
0.342879
0.348708
0.351182
0.351814
-0.251805
-0.242606
-0.214796
-0.173977
-0.12719
-0.0769562
-0.0238074
0.0319902
0.090104
0.149981
0.20805
0.255622
0.290515
0.316879
0.337242
0.353083
0.364939
0.371905
0.375328
0.376147
-0.299432
-0.289682
-0.258455
-0.212791
-0.16032
-0.103911
-0.0443128
0.0180825
0.0827496
0.148996
0.212809
0.264724
0.302544
0.330949
0.352779
0.369744
0.38248
0.390435
0.394181
0.395067
-0.33917
-0.329274
-0.295825
-0.246434
-0.18938
-0.127936
-0.062926
0.00515132
0.0756061
0.14756
0.216523
0.272216
0.312441
0.342383
0.365213
0.382842
0.396082
0.404542
0.408486
0.409402
-0.373687
-0.363754
-0.328687
-0.276254
-0.215438
-0.149743
-0.0800667
-0.00701705
0.068596
0.145712
0.219364
0.278448
0.320732
0.351888
0.375385
0.39332
0.406692
0.415271
0.419218
0.420217
-0.40456
-0.394632
-0.358341
-0.303382
-0.239413
-0.170059
-0.0962725
-0.018771
0.0615311
0.143427
0.22147
0.283745
0.327956
0.360178
0.384185
0.402294
0.41567
0.424351
0.428281
0.429249
-0.432979
-0.423027
-0.38572
-0.328605
-0.261947
-0.18939
-0.111956
-0.0304362
0.0541882
0.14058
0.222872
0.288285
0.334357
0.367622
0.392147
0.410489
0.423931
0.432588
0.436562
0.437362
-0.459712
-0.449712
-0.411485
-0.35255
-0.283491
-0.208092
-0.127417
-0.0422526
0.0463721
0.137037
0.223473
0.292047
0.340111
0.374558
0.399722
0.418351
0.431887
0.440541
0.444496
0.445206
-0.485232
-0.47517
-0.43612
-0.375601
-0.304369
-0.226442
-0.142856
-0.0543796
0.0379434
0.132669
0.223224
0.295154
0.34544
0.381242
0.407183
0.426219
0.439932
0.448588
0.452491
0.453174
-0.509937
-0.499735
-0.45986
-0.39796
-0.324784
-0.2446
-0.158399
-0.0669184
0.0288343
0.127445
0.222158
0.29762
0.350344
0.387737
0.414646
0.434234
0.448219
0.456924
0.460709
0.461371
-0.534003
-0.523577
-0.483037
-0.419781
-0.34486
-0.262673
-0.174119
-0.0799052
0.0190176
0.121341
0.220162
0.299326
0.354789
0.394059
0.422159
0.442453
0.456794
0.465566
0.469227
0.469831
-0.557467
-0.546845
-0.50569
-0.441135
-0.364668
-0.280687
-0.190027
-0.093353
0.00847095
0.11426
0.217117
0.300189
0.35872
0.400179
0.429713
0.45087
0.465637
0.474468
0.477982
0.47848
-0.580469
-0.569581
-0.527726
-0.462035
-0.384213
-0.298637
-0.206114
-0.10725
-0.00281538
0.106185
0.212973
0.30008
0.361992
0.406017
0.437276
0.45946
0.474708
0.483575
0.486886
0.487241
-0.602918
-0.591769
-0.549248
-0.482513
-0.403469
-0.316488
-0.222327
-0.121543
-0.0147908
0.0971424
0.207667
0.29885
0.364432
0.41144
0.444799
0.468206
0.483934
0.492726
0.495771
0.495973
-0.62483
-0.61341
-0.570222
-0.502535
-0.422397
-0.334187
-0.238603
-0.136148
-0.0273695
0.0871661
0.201151
0.296363
0.365831
0.416267
0.452229
0.477153
0.493326
0.501826
0.504455
0.504492
-0.646068
-0.634428
-0.590586
-0.522041
-0.440935
-0.351649
-0.254859
-0.150977
-0.0404684
0.0763225
0.193421
0.2925
0.365953
0.420229
0.459455
0.486442
0.503054
0.510842
0.512751
0.512587
-0.666701
-0.654769
-0.61031
-0.540998
-0.45904
-0.368827
-0.271
-0.165941
-0.0539906
0.0647161
0.184509
0.287169
0.36457
0.422954
0.466198
0.496239
0.513688
0.520123
0.520542
0.52003
-0.686613
-0.67439
-0.629369
-0.559348
-0.476629
-0.385634
-0.28694
-0.180916
-0.0678116
0.0524376
0.174488
0.280318
0.361482
0.42399
0.471885
0.506433
0.526213
0.531224
0.528517
0.526592
-0.705813
-0.693351
-0.647707
-0.57704
-0.493661
-0.402
-0.302593
-0.195814
-0.0818096
0.0396403
0.163474
0.271924