/*--------------------------------*- C++ -*----------------------------------*\
| =========                 |                                                 |
| \\      /  F ield         | OpenFOAM: The Open Source CFD Toolbox           |
|  \\    /   O peration     | Version:  2306                                  |
|   \\  /    A nd           | Website:  www.openfoam.com                      |
|    \\/     M anipulation  |                                                 |
\*---------------------------------------------------------------------------*/
FoamFile
{
    version     2.0;
    format      ascii;
    arch        "LSB;label=32;scalar=64";
    class       surfaceScalarField;
    location    "23";
    object      phi;
}
// * * * * * * * * * * * * * * * * * * * * * * * * * * * * * * * * * * * * * //

dimensions      [0 3 -1 0 0 0 0];

oriented        oriented;

internalField   nonuniform List<scalar> 
17370
(
-0.0910978
0.0935419
0.286567
-0.074949
0.0569467
0.364778
-0.0409276
0.029942
0.427154
-0.0211841
0.0155797
0.504856
-0.0113228
0.00861531
0.60211
-0.00647468
0.0050187
0.720513
-0.00380364
0.00294334
0.863767
-0.00219449
0.00163918
1.03601
-0.00113015
0.000724532
1.24291
-0.000321434
-5.9847e-05
1.49157
0.000438729
-0.000845807
1.4916
0.00124645
-0.00174755
1.24319
0.00229539
-0.00303601
1.03638
0.00388875
-0.00509594
0.864114
0.0065455
-0.00867959
0.721192
0.0113808
-0.0156306
0.603464
0.0212287
-0.0299798
0.50819
0.0409596
-0.0569725
0.432181
0.0749692
-0.093554
0.36536
0.0911078
0.197903
-0.127348
0.088148
0.0391998
-0.364738
0.353792
-0.0726228
0.0835683
-0.446566
0.454367
-0.0816996
0.073899
-0.520968
0.529525
-0.0657893
0.057233
-0.612843
0.621012
-0.0494785
0.0413096
-0.726996
0.733781
-0.0343825
0.0275971
-0.867509
0.872436
-0.0222594
0.0173325
-1.03855
1.04187
-0.0136269
0.0102983
-1.2447
1.24708
-0.00776918
0.00538902
-1.49282
1.4948
-0.00345127
0.00147313
-1.49266
1.49445
0.000320785
-0.00211044
-1.2441
1.24601
0.00406961
-0.00598009
-1.0376
1.04009
0.00832503
-0.0108202
-0.866162
0.869833
0.0141114
-0.0177825
-0.72449
0.729792
0.022671
-0.0279733
-0.608896
0.61579
0.0347209
-0.0416152
-0.514995
0.52272
0.0497501
-0.0574754
-0.439773
0.447859
0.0660009
-0.074086
-0.375174
0.377009
0.0818573
-0.0836915
-0.256943
0.223468
0.0727059
-0.0392315
-0.0686578
0.0589342
0.00972367
-0.0520447
0.0587377
-0.374546
0.367853
-0.057846
0.0540143
-0.453825
0.457657
-0.0486486
0.0442993
-0.527732
0.532082
-0.0400611
0.0362623
-0.621084
0.624883
-0.0320262
0.0279618
-0.734851
0.738915
-0.0235229
0.0195793
-0.874026
0.877969
-0.0155116
0.0120553
-1.04337
1.04682
-0.0085503
0.00553755
-1.24861
1.25162
-0.0023576
-0.000599674
-1.49687
1.49983
0.00354885
-0.00669373
-1.49738
1.50052
0.00965624
-0.0130948
-1.25008
1.25352
0.0164852
-0.0204774
-1.04574
1.04973
0.0243524
-0.0287176
-0.877344
0.881709
0.0327159
-0.0368822
-0.739346
0.743513
0.0406203
-0.0447969
-0.626384
0.630561
0.0490955
-0.0544127
-0.534976
0.540293
0.0581938
-0.059024
-0.457968
0.458798
0.05226
-0.0319534
-0.33648
0.316173
0.00975912
-0.0685591
0.0588
-0.0531811
0.0491435
0.00403764
-0.0330893
0.0435557
-0.358391
0.347924
-0.0472596
0.0466734
-0.459508
0.460094
-0.043705
0.0404461
-0.536014
0.539273
-0.0367455
0.0334205
-0.628423
0.631748
-0.0298698
0.0267326
-0.742215
0.745352
-0.0233947
0.0202576
-0.881492
0.884629
-0.0167129
0.013394
-1.05027
1.05359
-0.00974298
0.00639376
-1.25488
1.25823
-0.00266988
-0.000894256
-1.50317
1.50673
0.00443574
-0.00810261
-1.50401
1.50768
0.0113825
-0.0149401
-1.2571
1.26066
0.0181644
-0.0215988
-1.05349
1.05692
0.024634
-0.0278607
-0.885336
0.888563
0.030901
-0.0343528
-0.747034
0.750485
0.0375932
-0.0412066
-0.634603
0.638216
0.044392
-0.0472805
-0.544548
0.547437
0.0477858
-0.0439712
-0.45701
0.453196
0.0333761
-0.0161394
-0.296891
0.279654
0.00408085
-0.0530078
0.0489269
-0.0460354
0.0435295
0.00250587
-0.0227823
0.0330875
-0.33732
0.327015
-0.0388238
0.0397873
-0.459803
0.458839
-0.0385554
0.0362525
-0.541914
0.544216
-0.0336114
0.031058
-0.634704
0.637258
-0.0280763
0.0252605
-0.748383
0.751199
-0.0220992
0.0191947
-0.887612
0.890516
-0.0159864
0.0129885
-1.05672
1.05972
-0.00957255
0.00628482
-1.26158
1.26486
-0.00247866
-0.00123459
-1.51041
1.51413
0.00492004
-0.00864726
-1.51142
1.51515
0.0118315
-0.0151133
-1.26409
1.26737
0.0179793
-0.0210381
-1.06009
1.06315
0.0238038
-0.026815
-0.891728
0.894739
0.0294983
-0.0323429
-0.753701
0.756546
0.0347817
-0.037309
-0.641237
0.643764
0.0395188
-0.0406315
-0.549293
0.550405
0.0395465
-0.0336368
-0.448095
0.442186
0.0231455
-0.010117
-0.264622
0.251593
0.00255886
-0.0457706
0.0432117
-0.0414547
0.0397002
0.00175445
-0.0166069
0.0257656
-0.317232
0.308073
-0.0322904
0.0343911
-0.457278
0.455178
-0.033961
0.0322844
-0.546211
0.547888
-0.0300942
0.0280067
-0.639517
0.641604
-0.025626
0.0233195
-0.753741
0.756047
-0.0205998
0.017961
-0.893298
0.895937
-0.0149113
0.0120177
-1.06266
1.06556
-0.00871691
0.0055688
-1.26807
1.27122
-0.00192802
-0.00161874
-1.51778
1.52133
0.00513444
-0.00868112
-1.51879
1.52234
0.0116984
-0.0148263
-1.27056
1.27369
0.0175462
-0.0203994
-1.06612
1.06897
0.0228576
-0.025382
-0.897515
0.90004
0.0275215
-0.0297333
-0.759016
0.761228
0.0316731
-0.0337116
-0.64601
0.648048
0.0352504
-0.035516
-0.551043
0.551309
0.0332306
-0.0264573
-0.435749
0.428975
0.0170533
-0.00718425
-0.240284
0.230415
0.00181882
-0.0410786
0.0392598
-0.0381972
0.0369045
0.00129266
-0.0124517
0.0202066
-0.299603
0.291848
-0.0267927
0.029647
-0.452639
0.449785
-0.029866
0.0287938
-0.549252
0.550324
-0.0268941
0.0250603
-0.643557
0.645391
-0.0229588
0.0209259
-0.758203
0.760236
-0.01856
0.0162442
-0.898416
0.900732
-0.0135195
0.0108571
-1.06836
1.07102
-0.00775661
0.00476766
-1.2743
1.27729
-0.00129813
-0.00208703
-1.52478
1.52816
0.00542616
-0.00876828
-1.52578
1.52912
0.0115896
-0.0144663
-1.27673
1.2796
0.0169024
-0.0193695
-1.07166
1.07413
0.0214527
-0.0235742
-0.902348
0.904469
0.0253923
-0.027278
-0.763262
0.765147
0.0289284
-0.0306479
-0.6499
0.651619
0.031526
-0.0310846
-0.551199
0.550758
0.0279745
-0.0210569
-0.422049
0.415131
0.0129939
-0.00539275
-0.221769
0.214168
0.00137075
-0.0376866
0.0363158
-0.0357898
0.0348262
0.000963599
-0.00942317
0.0158118
-0.284793
0.278404
-0.0219938
0.0252
-0.44672
0.443514
-0.0259151
0.0252316
-0.551167
0.55185
-0.0235339
0.021842
-0.647146
0.648838
-0.0199232
0.0181009
-0.762168
0.763991
-0.0160061
0.013969
-0.902902
0.904939
-0.011582
0.0092328
-1.07351
1.07586
-0.00646063
0.0037265
-1.28015
1.28288
-0.000502339
-0.00265954
-1.53145
1.53462
0.00576749
-0.00882105
-1.53234
1.53539
0.0113339
-0.0138227
-1.28228
1.28477
0.0158912
-0.0179613
-1.07638
1.07845
0.0197122
-0.021509
-0.906418
0.908215
0.0230635
-0.024696
-0.766896
0.768529
0.0261485
-0.0275971
-0.653219
0.654667
0.0280332
-0.0270064
-0.550022
0.548995
0.0234545
-0.0168465
-0.408334
0.401726
0.0100796
-0.00414547
-0.207461
0.201527
0.00105883
-0.0351162
0.0340574
-0.0339974
0.0332943
0.000703153
-0.00700188
0.0121028
-0.272667
0.267566
-0.0176043
0.0209123
-0.440223
0.436915
-0.0221002
0.0217211
-0.552399
0.552778
-0.0203851
0.0188975
-0.650454
0.651941
-0.0171868
0.0155648
-0.765727
0.767349
-0.0136805
0.011828
-0.906872
0.908725
-0.00963284
0.00747414
-1.07809
1.08025
-0.00492564
0.00243054
-1.28548
1.28798
0.000495349
-0.00334663
-1.53762
1.54047
0.00612674
-0.00884362
-1.53828
1.541
0.0110577
-0.013241
-1.2871
1.28928
0.0150408
-0.0168229
-1.08037
1.08215
0.0183039
-0.0198011
-0.909852
0.911349
0.021099
-0.0224715
-0.770043
0.771416
0.0236632
-0.0246762
-0.655918
0.656931
0.0247368
-0.0231392
-0.547671
0.546073
0.0193864
-0.0133561
-0.395375
0.389345
0.0077975
-0.00318623
-0.19629
0.191678
0.000819803
-0.0331258
0.032306
-0.0327007
0.0322042
0.000496487
-0.00503753
0.0089607
-0.263067
0.259144
-0.0135907
0.0167324
-0.433654
0.430513
-0.0182132
0.0181566
-0.552991
0.553047
-0.0172176
0.0159813
-0.653304
0.65454
-0.014481
0.0130063
-0.768923
0.770398
-0.0112652
0.00954333
-0.910532
0.912253
-0.00750701
0.00551245
-1.08231
1.08431
-0.00318183
0.000925493
-1.29032
1.29258
0.00169184
-0.00421843
-1.54314
1.54567
0.00665387
-0.00899608
-1.54353
1.54588
0.0108884
-0.0127548
-1.29132
1.29318
0.0142855
-0.0158037
-1.08382
1.08534
0.0170693
-0.0183432
-0.912742
0.914016
0.0194047
-0.0204734
-0.772621
0.773689
0.0213436
-0.02185
-0.657692
0.658198
0.0214913
-0.0194738
-0.54424
0.542223
0.0157674
-0.0104871
-0.383675
0.378395
0.00600933
-0.00245231
-0.187626
0.184069
0.000641233
-0.0315873
0.0309461
-0.0318009
0.0314927
0.000308115
-0.00324346
0.00604553
-0.255782
0.25298
-0.00968514
0.0124256
-0.427549
0.424808
-0.0139465
0.0140653
-0.553013
0.552894
-0.0133628
0.0122743
-0.655718
0.656806
-0.0109585
0.00969201
-0.771822
0.773088
-0.00821935
0.00676921
-0.91385
0.9153
-0.00504449
0.00333612
-1.08612
1.08783
-0.00130734
-0.000693534
-1.29468
1.29668
0.00303716
-0.00530199
-1.54805
1.55031
0.00744751
-0.00943459
-1.54806
1.55005
0.0109678
-0.0124115
-1.29484
1.29629
0.0135443
-0.0146024
-1.08664
1.0877
0.0154525
-0.0163103
-0.915083
0.91594
0.0170624
-0.017849
-0.774604
0.77539
0.0184776
-0.0186137
-0.65851
0.658646
0.0179566
-0.0157552
-0.540098
0.537896
0.012318
-0.00789265
-0.373539
0.369114
0.00442492
-0.0018055
-0.180996
0.178377
0.000486368
-0.0303888
0.0299024
-0.0312853
0.0311689
0.000116336
-0.00160493
0.00336746
-0.250721
0.248959
-0.00600994
0.00827344
-0.422316
0.420053
-0.00975299
0.0100484
-0.552716
0.552421
-0.00960011
0.00877946
-0.657797
0.658617
-0.00775223
0.00674334
-0.774277
0.775286
-0.00551943
0.00424433
-0.916636
0.917911
-0.00267635
0.00110057
-1.08938
1.09095
0.000774092
-0.00259086
-1.29852
1.30034
0.00468329
-0.00664347
-1.55239
1.55435
0.00846029
-0.0101226
-1.55188
1.55355
0.0113701
-0.0124849
-1.29754
1.29865
0.013315
-0.0140517
-1.08855
1.08929
0.01458
-0.0150416
-0.916583
0.917045
0.015412
-0.0157823
-0.775942
0.776312
0.0160048
-0.0157399
-0.658618
0.658354
0.0147279
-0.0123673
-0.535658
0.533297
0.00923362
-0.00563419
-0.365129
0.361529
0.00306301
-0.00123914
-0.1762
0.174376
0.000339343
-0.0295059
0.0291665
-0.031134
0.0311635
-2.95596e-05
-0.000411314
0.00133962
-0.247646
0.246718
-0.00306187
0.00481656
-0.418042
0.416287
-0.00623103
0.00673998
-0.552012
0.551503
-0.00657379
0.00602907
-0.659302
0.659846
-0.00521207
0.00434767
-0.776288
0.777153
-0.00322666
0.00202258
-0.919116
0.92032
-0.000509275
-0.0010356
-1.09242
1.09397
0.0028511
-0.00459511
-1.30206
1.3038
0.00655721
-0.00835508
-1.55619
1.55799
0.00997299
-0.0113848
-1.55512
1.55653
0.0123901
-0.0132581
-1.29971
1.30058
0.0138363
-0.0142485
-1.08994
1.09035
0.0145119
-0.0146943
-0.917321
0.917504
0.014784
-0.0147602
-0.776361
0.776337
0.0145206
-0.0137604
-0.657821
0.657061
0.0123386
-0.00983769
-0.530887
0.528386
0.00703342
-0.00415261
-0.358334
0.355453
0.00222854
-0.000900426
-0.172865
0.171537
0.000246376
-0.0288986
0.0286523
-0.0312453
0.0313701
-0.00012476
0.000315229
3.73589e-05
-0.246129
0.245777
-0.000968916
0.00209506
-0.414868
0.413742
-0.00314864
0.00359548
-0.550982
0.550536
-0.0034877
0.00305491
-0.660342
0.660775
-0.00233239
0.00151007
-0.778091
0.778914
-0.000408784
-0.000801459
-0.921468
0.922679
0.00229454
-0.0037625
-1.09537
1.09684
0.00546247
-0.00706938
-1.30541
1.30702
0.00886064
-0.0104684
-1.55966
1.56126
0.0118494
-0.0129599
-1.55781
1.55892
0.0136457
-0.0141185
-1.30129
1.30176
0.0143695
-0.0144653
-1.09064
1.09073
0.014428
-0.0142983
-0.917462
0.917332
0.01412
-0.0138552
-0.776099
0.775834
0.0133689
-0.0123587
-0.656144
0.655134
0.0107927
-0.00839949
-0.525992
0.523599
0.00597202
-0.00358866
-0.352915
0.350532
0.00197722
-0.000815412
-0.170362
0.1692
0.000222742
-0.0284463
0.0282236
-0.0315217
0.0316985
-0.00017672
0.000725947
-0.000702564
-0.245633
0.245609
0.000295506
0.00027752
-0.412953
0.41238
-0.000795969
0.000891029
-0.550224
0.550129
-0.000552844
-3.90927e-06
-0.661271
0.661828
0.000831214
-0.00171222
-0.77991
0.780791
0.00287109
-0.00408649
-0.923805
0.925021
0.00553235
-0.00692046
-1.09813
1.09952
0.00850663
-0.010002
-1.30848
1.30997
0.0116398
-0.013055
-1.56273
1.56414
0.014189
-0.0150005
-1.55988
1.56069
0.0153943
-0.0155451
-1.30214
1.30229
0.0154972
-0.0153179
-1.0907
1.09052
0.0150579
-0.0146886
-0.917039
0.916669
0.0142797
-0.0137462
-0.775313
0.77478
0.0130699
-0.0119674
-0.654043
0.652941
0.0104343
-0.00821497
-0.521394
0.519175
0.00599249
-0.00374529
-0.348333
0.346086
0.00213596
-0.000906721
-0.168063
0.166834
0.000252458
-0.0280121
0.0277597
-0.0318978
0.032122
-0.000224183
0.00108235
-0.00128935
-0.245704
0.245911
0.00116323
-0.000877527
-0.412031
0.411745
0.000700678
-0.00091043
-0.550203
0.550413
0.0015701
-0.00241852
-0.66261
0.663459
0.00345817
-0.00452353
-0.781908
0.782973
0.00584325
-0.00717916
-0.926145
0.927481
0.00873887
-0.0102187
-1.1008
1.10228
0.0118906
-0.0134108
-1.31137
1.31289
0.0150038
-0.0162992
-1.56541
1.56671
0.0172589
-0.0178454
-1.56135
1.56194
0.0180188
-0.0178972
-1.30234
1.30221
0.0175963
-0.0171263
-1.09022
1.08975
0.0166407
-0.0161037
-0.916157
0.91562
0.0155754
-0.0149179
-0.774055
0.773397
0.0141584
-0.0129804
-0.651808
0.65063
0.0113718
-0.00903313
-0.517071
0.514733
0.00666106
-0.00422635
-0.343863
0.341429
0.0024534
-0.00106865
-0.165582
0.164197
0.00030744
-0.0275081
0.0272007
-0.0323772
0.0326641
-0.000286945
0.00156232
-0.00204258
-0.246219
0.246699
0.00215553
-0.00196436
-0.411574
0.411383
0.00176643
-0.00195338
-0.550631
0.550818
0.00259481
-0.00347561
-0.664472
0.665353
0.00465277
-0.00592581
-0.784277
0.78555
0.00758527
-0.00926277
-0.928821
0.930498
0.0112135
-0.0130834
-1.10379
1.10566
0.0151748
-0.0170353
-1.31444
1.3163
0.0189313
-0.0204404
-1.568
1.56951
0.021537
-0.0221834
-1.56249
1.56314
0.022372
-0.0222316
-1.30208
1.30194
0.0218599
-0.0212333
-1.0891
1.08847
0.0205313
-0.019676
-0.914925
0.91407
0.0188885
-0.0180709
-0.772602
0.771784
0.017044
-0.0154162
-0.649316
0.647688
0.013252
-0.0102925
-0.512284
0.509325
0.00748413
-0.00474226
-0.338948
0.336206
0.00278625
-0.00124344
-0.162797
0.161254
0.000369029
-0.0268973
0.0265283
-0.0330005
0.0333815
-0.000380988
0.00225211
-0.00312831
-0.247342
0.248218
0.00367014
-0.00364438
-0.411295
0.411269
0.00330071
-0.00319072
-0.550887
0.550777
0.00355686
-0.0042546
-0.666283
0.666981
0.00540218
-0.00686046
-0.787035
0.788493
0.0088656
-0.0109605
-0.932188
0.934283
0.013488
-0.0159245
-1.10765
1.11009
0.0186505
-0.0211044
-1.31833
1.32079
0.0236299
-0.0256571
-1.57119
1.57322
0.0271801
-0.0281738
-1.56392
1.56491
0.0285611
-0.0285557
-1.30189
1.30188
0.0282603
-0.0276921
-1.08781
1.08724
0.0269153
-0.0258151
-0.912947
0.911847
0.0246516
-0.0231104
-0.770571
0.769029
0.0211292
-0.0183583
-0.645645
0.642874
0.0152017
-0.0114255
-0.506145
0.502369
0.0081999
-0.0052312
-0.333477
0.330509
0.0031288
-0.00142887
-0.159718
0.158018
0.000433838
-0.02617
0.0257361
-0.0338316
0.0343484
-0.000516774
0.00320198
-0.00464063
-0.24937
0.250809
0.00582672
-0.00631269
-0.411492
0.411978
0.00611437
-0.00579317
-0.550604
0.550283
0.00580798
-0.00633028
-0.667741
0.668263
0.00746084
-0.00905777
-0.790077
0.791674
0.0114341
-0.01401
-0.936394
0.93897
0.0171241
-0.0201132
-1.11263
1.11561
0.0234551
-0.0264797
-1.32342
1.32645
0.0296061
-0.0321033
-1.57544
1.57794
0.0339585
-0.0351824
-1.56604
1.56726
0.0356544
-0.035637
-1.30193
1.30191
0.0352288
-0.0344061
-1.08648
1.08566
0.0333389
-0.0318497
-0.910426
0.908936
0.0300739
-0.0275072
-0.766882
0.764315
0.0245251
-0.020589
-0.639591
0.635655
0.0166275
-0.0123531
-0.49853
0.494255
0.00893187
-0.00582594
-0.327646
0.32454
0.00356218
-0.00165672
-0.156326
0.15442
0.000509701
-0.0253176
0.0248079
-0.0349475
0.0356542
-0.000706669
0.00443959
-0.00660266
-0.252602
0.254765
0.00868115
-0.00996312
-0.412816
0.414098
0.0104752
-0.0104367
-0.550282
0.550243
0.0104222
-0.0109555
-0.668917
0.66945
0.0123027
-0.0142667
-0.793385
0.795349
0.0170999
-0.0200805
-0.941491
0.944472
0.0236383
-0.0270206
-1.11862
1.122
0.0307605
-0.0340903
-1.32953
1.33286
0.0374466
-0.040013
-1.58044
1.58301
0.0417673
-0.0427173
-1.56837
1.56932
0.0428957
-0.0424686
-1.30174
1.30131
0.0415974
-0.0402023
-1.08449
1.08309
0.0385728
-0.0363321
-0.906928
0.904688
0.0337566
-0.03027
-0.76108
0.757593
0.0265732
-0.0220495
-0.631448
0.626924
0.01782
-0.0134522
-0.4902
0.485833
0.00996234
-0.0066726
-0.321593
0.318303
0.0041474
-0.00194522
-0.152506
0.150304
0.000599293
-0.0243196
0.0237203
-0.036455
0.0374121
-0.00095711
0.00599468
-0.00901688
-0.257322
0.260344
0.012127
-0.0143772
-0.415906
0.418156
0.0158968
-0.01672
-0.551079
0.551902
0.0175154
-0.0186507
-0.670368
0.671504
0.020665
-0.0231474
-0.797352
0.799835
0.0264145
-0.0297343
-0.947308
0.950628
0.0336114
-0.0372254
-1.12528
1.12889
0.0411168
-0.0444335
-1.33605
1.33937
0.0475759
-0.0497463
-1.58532
1.58749
0.0509319
-0.0511487
-1.56991
1.57012
0.0505976
-0.0493162
-1.30048
1.2992
0.0476178
-0.0453054
-1.08118
1.07886
0.0428204
-0.0396886
-0.901783
0.898651
0.0364332
-0.0324309
-0.753589
0.749587
0.0284339
-0.023832
-0.622406
0.617804
0.0196472
-0.0152773
-0.481847
0.477478
0.0116052
-0.00792577
-0.315149
0.31147
0.00497946
-0.00234208
-0.148062
0.145425
0.000719794
-0.0231466
0.0224268
-0.0384656
0.0397682
-0.00130258
0.00805909
-0.0121337
-0.263765
0.267839
0.0164321
-0.0197856
-0.421153
0.424506
0.0225354
-0.0245111
-0.553992
0.555968
0.0265435
-0.0287651
-0.67332
0.675541
0.0317823
-0.034993
-0.802299
0.805509
0.0388873
-0.0426495
-0.953791
0.957553
0.0468703
-0.0506557
-1.13231
1.1361
0.0545419
-0.0576286
-1.34239
1.34548
0.0602471
-0.0616763
-1.5892
1.59063
0.0619255
-0.0610101
-1.56974
1.56883
0.0593849
-0.0569507
-1.29733
1.29489
0.0542476
-0.0508691
-1.07592
1.07255
0.047495
-0.0435702
-0.894864
0.890939
0.0397984
-0.0354862
-0.745131
0.740819
0.0313959
-0.0268229
-0.613263
0.60869
0.0226281
-0.0180474
-0.473471
0.468891
0.0139372
-0.00963241
-0.307899
0.303595
0.00607806
-0.00284858
-0.142738
0.139508
0.000868552
-0.0217431
0.0208746
-0.0411609
0.0429892
-0.00182838
0.0110508
-0.0165197
-0.272321
0.27779
0.0222453
-0.0268055
-0.428907
0.433468
0.0308196
-0.0340077
-0.559451
0.562639
0.0374597
-0.0410109
-0.678552
0.682103
0.0453222
-0.0495267
-0.808763
0.812967
0.0543029
-0.0586739
-0.96121
0.965581
0.0633366
-0.0673035
-1.13967
1.14363
0.0711167
-0.0738618
-1.34818
1.35092
0.0757861
-0.0762741
-1.59145
1.59194
0.0753784
-0.0731364
-1.56718
1.56494
0.0702779
-0.0665371
-1.29176
1.28802
0.0627319
-0.0582798
-1.06852
1.06407
0.0540675
-0.0494018
-0.886362
0.881697
0.0451351
-0.040479
-0.735984
0.731327
0.0361978
-0.0314385
-0.604029
0.59927
0.0269517
-0.0218194
-0.464544
0.459412
0.0169918
-0.0117398
-0.299389
0.294137
0.00735695
-0.00341584
-0.136257
0.132316
0.0010286
-0.0200499
0.0190213
-0.0448699
0.047522
-0.00265211
0.0155398
-0.0228986
-0.283666
0.291024
0.0303845
-0.0363352
-0.439567
0.445518
0.0417412
-0.0462714
-0.567705
0.572235
0.0513625
-0.0564073
-0.686446
0.691491
0.0622277
-0.0676049
-0.817255
0.822632
0.0734103
-0.0784701
-0.969875
0.974935
0.0835957
-0.0876978
-1.14734
1.15144
0.0913254
-0.0935932
-1.35318
1.35545
0.0946492
-0.0940254
-1.5917
1.59108
0.0918341
-0.0881546
-1.56189
1.55821
0.0840002
-0.07889
-1.28354
1.27843
0.0739365
-0.0683794
-1.05894
1.05338
0.063302
-0.0578389
-0.876312
0.870849
0.0529874
-0.0478271
-0.725973
0.720812
0.0431398
-0.0378788
-0.594194
0.588933
0.0327688
-0.0267077
-0.454381
0.44832
0.020836
-0.0143602
-0.289006
0.28253
0.00894654
-0.0041141
-0.12837
0.123538
0.00122347
-0.0180462
0.0168227
-0.050158
0.054252
-0.00409407
0.0228209
-0.0328759
-0.298917
0.308972
0.0427319
-0.0504124
-0.453908
0.461588
0.0574202
-0.0635134
-0.579137
0.58523
0.0705336
-0.0772212
-0.697272
0.703959
0.0845998
-0.0911156
-0.828032
0.834548
0.0978439
-0.103439
-0.979835
0.98543
0.108798
-0.112788
-1.15515
1.15914
0.115933
-0.117448
-1.35708
1.35859
0.11734
-0.115354
-1.58958
1.58759
0.111663
-0.106394
-1.55362
1.54835
0.100861
-0.0943349
-1.27253
1.26601
0.0882037
-0.0814837
-1.04711
1.04039
0.0754603
-0.0690818
-0.864554
0.858176
0.0635029
-0.0576382
-0.714706
0.708842
0.0523175
-0.0462434
-0.583076
0.577001
0.0401874
-0.0328308
-0.442216
0.434859
0.0255919
-0.0175624
-0.276218
0.268189
0.0108489
-0.0049187
-0.11878
0.112849
0.00143432
-0.0156765
0.0142421
-0.0581041
0.065315
-0.00721086
0.0362659
-0.050485
-0.320251
0.33447
0.0638249
-0.0735493
-0.473033
0.482757
0.082126
-0.089877
-0.594274
0.602025
0.0989171
-0.107044
-0.711116
0.719243
0.115544
-0.122703
-0.840847
0.848006
0.129767
-0.135333
-0.990598
0.996164
0.140314
-0.143635
-1.16246
1.16578
0.145739
-0.146008
-1.3592
1.35947
0.144274
-0.140545
-1.58451
1.58078
0.135068
-0.12801
-1.54203
1.53497
0.120978
-0.112972
-1.25864
1.25064
0.105609
-0.0976639
-1.0329
1.02496
0.0906253
-0.0832465
-0.850868
0.843489
0.0768364
-0.0701241
-0.701772
0.69506
0.0640195
-0.0569249
-0.569998
0.562904
0.0495617
-0.0404773
-0.427238
0.418154
0.0314607
-0.0214853
-0.260313
0.250338
0.0131546
-0.00587002
-0.107197
0.0999126
0.00165569
-0.0129327
0.011277
-0.0721901
0.075855
-0.00366492
0.0264672
-0.0388691
-0.351621
0.364023
0.0504547
-0.0595006
-0.49762
0.506666
0.0685052
-0.0779634
-0.613016
0.622474
0.0886463
-0.0981563
-0.726964
0.736474
0.108706
-0.118014
-0.854386
0.863694
0.127684
-0.135987
-1.00078
1.00908
0.144259
-0.150895
-1.16796
1.1746
0.156817
-0.160701
-1.35848
1.36236
0.1628
-0.162229
-1.57571
1.57513
0.158852
-0.153074
-1.52669
1.52091
0.146243
-0.137566
-1.2417
1.23302
0.12913
-0.119061
-1.0162
1.00613
0.109929
-0.100024
-0.835112
0.825207
0.09129
-0.0820423
-0.686892
0.677644
0.0733155
-0.0633947
-0.55443
0.544509
0.0532503
-0.0408538
-0.408523
0.396126
0.0294391
-0.0180537
-0.240359
0.228974
0.00973115
-0.00368569
-0.0932294
0.087184
0.000789736
-0.00989512
0.00910538
-0.0830762
0.0805055
0.00257067
0.00440314
-0.0120678
-0.37937
0.387035
0.0206977
-0.0277229
-0.520392
0.527417
0.0360041
-0.0442789
-0.633254
0.641529
0.053945
-0.0627427
-0.745832
0.75463
0.0720734
-0.0805183
-0.872546
0.880991
0.0892921
-0.09653
-1.01711
1.02434
0.103936
-0.109529
-1.18105
1.18664
0.114446
-0.117328
-1.36592
1.3688
0.118135
-0.116516
-1.57364
1.57203
0.112189
-0.105565
-1.51417
1.50754
0.0979281
-0.0885833
-1.22369
1.21435
0.0796442
-0.0694862
-0.995569
0.985411
0.0600399
-0.0496655
-0.814004
0.80363
0.0405291
-0.0313578
-0.665453
0.656281
0.0236185
-0.0157304
-0.531473
0.523585
0.00881762
-0.00259449
-0.382955
0.376732
-0.0010524
0.0029916
-0.217014
0.215075
-0.00323133
0.00218272
-0.0804293
0.0814779
-0.000929365
-0.00769646
0.00862582
-0.0834308
0.0803139
0.00311689
-0.00403762
0.000258272
-0.397752
0.401531
0.00530847
-0.0108171
-0.538336
0.543845
0.017784
-0.0249467
-0.650698
0.657861
0.0332086
-0.0407789
-0.762873
0.770443
0.0490419
-0.056373
-0.888803
0.896134
0.0637721
-0.0702404
-1.03145
1.03792
0.0766729
-0.0816363
-1.19186
1.19682
0.0855877
-0.0876799
-1.37108
1.37317
0.0880632
-0.0860131
-1.56977
1.56772
0.0814499
-0.0748176
-1.50038
1.49374
0.0674284
-0.0587051
-1.20497
1.19625
0.0500887
-0.0406376
-0.974972
0.965521
0.0319138
-0.0224186
-0.793268
0.783773
0.0142784
-0.00605862
-0.645537
0.637318
-0.000563638
0.00684488
-0.512933
0.506652
-0.0112398
0.0136198
-0.368343
0.365963
-0.013222
0.0108198
-0.210082
0.212484
-0.00770601
0.00410012
-0.0811299
0.0847358
-0.00142086
-0.0086343
0.0100552
-0.0816814
0.078723
0.00295845
-0.0069655
0.0054215
-0.409391
0.410935
-0.00218317
-0.00200002
-0.552252
0.556436
0.00822239
-0.0142684
-0.665195
0.671241
0.0213406
-0.0278528
-0.777722
0.784234
0.0349255
-0.0412289
-0.903053
0.909357
0.0479843
-0.0535242
-1.04403
1.04957
0.0592419
-0.0632438
-1.20147
1.20547
0.0667316
-0.0685464
-1.37515
1.37697
0.0686546
-0.066396
-1.5654
1.56314
0.0622357
-0.056275
-1.48679
1.48083
0.0496547
-0.0415855
-1.18759
1.17952
0.0340121
-0.0257674
-0.956072
0.947827
0.0180672
-0.0100281
-0.774436
0.766397
0.00279734
0.00424475
-0.627937
0.620895
-0.00976969
0.0143954
-0.498134
0.493508
-0.0170326
0.0178121
-0.360374
0.359594
-0.0159946
0.0120665
-0.211203
0.215131
-0.00834308
0.00421998
-0.0865243
0.0906474
-0.00138632
-0.0105469
0.0119333
-0.0798706
0.0773627
0.00250792
-0.00753252
0.00733853
-0.417017
0.417211
-0.00484912
0.00162092
-0.563638
0.566866
0.00342168
-0.00884592
-0.677493
0.682917
0.0148191
-0.0205832
-0.790328
0.796092
0.0267458
-0.0322667
-0.915343
0.920864
0.0381345
-0.0431592
-1.05505
1.06008
0.0481189
-0.0519529
-1.20944
1.21328
0.055107
-0.0567615
-1.37857
1.38022
0.0568915
-0.0548848
-1.56091
1.5589
0.0512083
-0.0457744
-1.47447
1.46904
0.0399731
-0.0330993
-1.17174
1.16487
0.0266029
-0.0194378
-0.939655
0.93249
0.012997
-0.00619426
-0.758385
0.751582
0.000327316
0.00543654
-0.613302
0.607538
-0.00976846
0.0132205
-0.48671
0.483258
-0.0151709
0.0154625
-0.355711
0.35542
-0.0135092
0.0100908
-0.214817
0.218236
-0.00687664
0.00340379
-0.0923287
0.0958015
-0.00114497
-0.0123891
0.0135341
-0.0783595
0.0762639
0.00209559
-0.00703522
0.00713502
-0.422146
0.422046
-0.00568525
0.00292873
-0.572592
0.575348
0.00174561
-0.00640527
-0.688016
0.692675
0.0116182
-0.0166863
-0.801293
0.806361
0.0222247
-0.0272278
-0.926165
0.931168
0.032691
-0.0371981
-1.06492
1.06942
0.0417971
-0.0453982
-1.21693
1.22053
0.0483626
-0.0499728
-1.38174
1.38336
0.0502032
-0.0488421
-1.55698
1.55562
0.0456209
-0.041016
-1.46344
1.45883
0.0359291
-0.0299288
-1.15809
1.15209
0.0245278
-0.0182923
-0.925493
0.919257
0.0128021
-0.00720984
-0.744975
0.739383
0.00237397
0.00231744
-0.60158
0.596889
-0.00582199
0.00866997
-0.478015
0.475167
-0.00988161
0.00994179
-0.352288
0.352227
-0.00872116
0.00624968
-0.217497
0.219968
-0.00407244
0.00201937
-0.0964705
0.0985236
-0.000697175
-0.0136998
0.0143969
-0.0772984
0.0756893
0.00160911
-0.00591462
0.00619644
-0.425946
0.425664
-0.00487631
0.00271771
-0.580545
0.582703
0.00151035
-0.00574433
-0.69724
0.701474
0.0107382
-0.0151698
-0.811214
0.815645
0.0201111
-0.0246254
-0.93625
0.940764
0.029901
-0.0340995
-1.07404
1.07824
0.0383223
-0.0418744
-1.22405
1.2276
0.0451684
-0.0468387
-1.38509
1.38676
0.0474095
-0.0463277
-1.55401
1.55293
0.0438737
-0.0396399
-1.45419
1.44996
0.0353199
-0.0301789
-1.14612
1.14098
0.0253394
-0.0200807
-0.913235
0.907977
0.0152864
-0.0102904
-0.733721
0.728725
0.00633839
-0.00218281
-0.591847
0.587692
-0.00101989
0.00338693
-0.470803
0.468436
-0.00463636
0.00508564
-0.349485
0.349036
-0.00453235
0.0032209
-0.218569
0.21988
-0.00206672
0.00107269
-0.0982495
0.0992436
-0.000425184
-0.0142207
0.0146459
-0.0767884
0.0755345
0.00125392
-0.0047105
0.00501975
-0.428997
0.428688
-0.0037002
0.00161516
-0.587548
0.589633
0.00230515
-0.0061258
-0.70561
0.70943
0.0104661
-0.0147811
-0.820162
0.824477
0.0194102
-0.0241111
-0.945187
0.949888
0.0287491
-0.0328439
-1.0826
1.0867
0.0372908
-0.0407177
-1.23111
1.23454
0.0436953
-0.0459249
-1.38843
1.39066
0.0468706
-0.0462797
-1.552
1.55141
0.044212
-0.0407708
-1.446
1.44256
0.0369707
-0.0323554
-1.13564
1.13103
0.0280498
-0.0232602
-0.902646
0.897857
0.0189286
-0.0145505
-0.7238
0.719422
0.0106831
-0.00695317
-0.583205
0.579476
0.00407356
-0.00152453
-0.464599
0.46205
-2.80398e-05
0.000666152
-0.346114
0.345476
-0.000902066
0.000794473
-0.217803
0.217911
-0.000637222
0.000432051
-0.0981449
0.09835
-0.000253644
-0.0142412
0.0144948
-0.0768152
0.0757704
0.00104487
-0.00339214
0.00348479
-0.43184
0.431747
-0.00235776
0.000239367
-0.594
0.596119
0.00345302
-0.00718154
-0.713446
0.717175
0.0113736
-0.0153292
-0.828706
0.832662
0.0201127
-0.0240923
-0.954111
0.95809
0.028752
-0.0327305
-1.091
1.09498
0.0371421
-0.0408401
-1.23802
1.24171
0.0442049
-0.0463421
-1.39273
1.39487
0.0477641
-0.0476978
-1.55081
1.55075
0.0463593
-0.043293
-1.43902
1.43596
0.0399442
-0.035715
-1.12649
1.12226
0.0317503
-0.0271977
-0.892835
0.888283
0.023203
-0.0189412
-0.71476
0.710499
0.0152628
-0.0116032
-0.575341
0.571681
0.00864053
-0.00618067
-0.458395
0.455935
0.00430958
-0.00312621
-0.342081
0.340897
0.00211809
-0.00124679
-0.215374
0.214503
0.000562155
-3.38071e-06
-0.0965124
0.0959536
-0.000146752
-0.0138269
0.0139736
-0.07711
0.076388
0.000722019
-0.00223318
0.00193449
-0.434888
0.435187
-0.000961991
-0.00141804
-0.599619
0.601999
0.00472306
-0.00830979
-0.720824
0.72441
0.0123454
-0.016446
-0.836585
0.840685
0.0206672
-0.024834
-0.962337
0.966504
0.0294976
-0.0333185
-1.09943
1.10325
0.0378766
-0.0415951
-1.24528
1.249
0.0451
-0.0478368
-1.39746
1.4002
0.049832
-0.050125
-1.55077
1.55106
0.0490824
-0.0467179
-1.43305
1.43069
0.0438522
-0.0398918
-1.11785
1.11389
0.0360648
-0.0318851
-0.883596
0.879416
0.0276684
-0.0236154
-0.705912
0.701859
0.0199628
-0.0161898
-0.567798
0.564025
0.0132461
-0.0104011
-0.452064
0.449219
0.00822383
-0.00629651
-0.337324
0.335397
0.00475335
-0.00305982
-0.211473
0.20978
0.00158612
-0.000436348
-0.0936962
0.0925464
-2.32318e-05
-0.0131161
0.0131394
-0.0778053
0.077233
0.000572324
-0.0012914
0.00105788
-0.438164
0.438398
0.00044778
-0.00275433
-0.605347
0.607653
0.00617671
-0.0096275
-0.727718
0.731168
0.0135203
-0.0172493
-0.844545
0.848274
0.0216131
-0.0254999
-0.970732
0.974619
0.0301431
-0.0344185
-1.10756
1.11183
0.0386688
-0.0427543
-1.25281
1.25689
0.04673
-0.0496215
-1.40289
1.40578
0.0520584
-0.0531819
-1.55161
1.55273
0.0526223
-0.0508656
-1.42819
1.42644
0.0481489
-0.0445163
-1.10987
1.10624
0.0409449
-0.036756
-0.874735
0.870546
0.0327287
-0.0285849
-0.697242
0.693098
0.0248704
-0.0209039
-0.559898
0.555931
0.0176586
-0.0145561
-0.445352
0.442249
0.011791
-0.00924774
-0.331427
0.328884
0.00702104
-0.00462637
-0.206144
0.203749
0.00261832
-0.000947529
-0.0899478
0.088277
0.000144949
-0.0122197
0.0120748
-0.0787403
0.0783349
0.000405408
-0.000326164
-2.49565e-05
-0.441617
0.441968
0.00164609
-0.00414923
-0.610795
0.613298
0.00744686
-0.0107309
-0.734371
0.737655
0.0147049
-0.0182988
-0.852045
0.855639
0.0225281
-0.0265482
-0.979017
0.983037
0.0311165
-0.0353779
-1.116
1.12026
0.0398724
-0.0440179
-1.26094
1.26509
0.0482223
-0.0518971
-1.409
1.41268
0.0548352
-0.0563084
-1.55384
1.55532
0.0564615
-0.0550281
-1.42457
1.42314
0.0528197
-0.0496115
-1.10248
1.09927
0.0459781
-0.0418333
-0.865965
0.861821