/*--------------------------------*- C++ -*----------------------------------*\
| =========                 |                                                 |
| \\      /  F ield         | OpenFOAM: The Open Source CFD Toolbox           |
|  \\    /   O peration     | Version:  2306                                  |
|   \\  /    A nd           | Website:  www.openfoam.com                      |
|    \\/     M anipulation  |                                                 |
\*---------------------------------------------------------------------------*/
FoamFile
{
    version     2.0;
    format      ascii;
    arch        "LSB;label=32;scalar=64";
    class       volVectorField;
    location    "23";
    object      U;
}
// * * * * * * * * * * * * * * * * * * * * * * * * * * * * * * * * * * * * * //

dimensions      [0 1 -1 0 0 0 0];

internalField   nonuniform List<vector> 
8800
(
(0.984963 -0.0884505 0)
(1.00213 -0.0568195 0)
(0.999679 -0.0305504 0)
(1.00002 -0.0158521 0)
(1.00005 -0.00869916 0)
(1.00002 -0.00504961 0)
(1.00001 -0.00296752 0)
(1.00001 -0.00168823 0)
(1 -0.000818201 0)
(1.00005 -0.000129892 0)
(1 0.000565138 0)
(1 0.00131875 0)
(1.00001 0.00234547 0)
(1.00002 0.00394948 0)
(1.00004 0.00666943 0)
(1.00006 0.0117101 0)
(0.99992 0.0220359 0)
(0.999201 0.0411613 0)
(1.00745 0.0768938 0)
(0.773649 0.0450696 0)
(0.361014 -0.0151701 0)
(1.04557 -0.0741958 0)
(1.08713 -0.0678844 0)
(1.04779 -0.0522954 0)
(1.02457 -0.0383881 0)
(1.01232 -0.0261136 0)
(1.00641 -0.016775 0)
(1.00356 -0.0102811 0)
(1.00215 -0.0056792 0)
(1.0015 -0.00212567 0)
(1.00138 0.00105283 0)
(1.00173 0.00434756 0)
(1.00269 0.0082612 0)
(1.00469 0.0136282 0)
(1.0088 0.0213853 0)
(1.01738 0.0322122 0)
(1.03456 0.045575 0)
(1.06559 0.059712 0)
(1.09413 0.0729373 0)
(0.842334 0.055693 0)
(0.217107 -0.00164427 0)
(1.0759 -0.0503295 0)
(1.09987 -0.0486883 0)
(1.06465 -0.040128 0)
(1.03991 -0.0329442 0)
(1.02366 -0.0256298 0)
(1.0139 -0.0182999 0)
(1.00845 -0.011676 0)
(1.00563 -0.00596434 0)
(1.0045 -0.000729355 0)
(1.00482 0.00434552 0)
(1.00666 0.00964995 0)
(1.01057 0.0156782 0)
(1.01787 0.0225807 0)
(1.03057 0.0298749 0)
(1.05079 0.0369329 0)
(1.08057 0.0443239 0)
(1.10643 0.0515914 0)
(0.943178 0.0412449 0)
(0.216706 0.00165675 0)
(0.175981 -0.000642133 0)
(1.01878 -0.0353398 0)
(1.10561 -0.0413333 0)
(1.0781 -0.0361884 0)
(1.05275 -0.0301845 0)
(1.0354 -0.024476 0)
(1.0234 -0.0187872 0)
(1.01552 -0.0128451 0)
(1.01089 -0.00684277 0)
(1.00887 -0.000733787 0)
(1.00944 0.00532433 0)
(1.01259 0.0112116 0)
(1.01864 0.0170377 0)
(1.02839 0.0226644 0)
(1.04279 0.0281325 0)
(1.06362 0.0338311 0)
(1.09411 0.0398304 0)
(1.0946 0.0415391 0)
(0.829702 0.0226317 0)
(0.17531 0.000656221 0)
(0.154526 -0.000483259 0)
(0.957622 -0.0254168 0)
(1.10412 -0.0348871 0)
(1.08782 -0.0324283 0)
(1.06119 -0.0278878 0)
(1.04323 -0.0229393 0)
(1.03083 -0.0177909 0)
(1.02217 -0.0124755 0)
(1.01658 -0.00678628 0)
(1.01395 -0.000512674 0)
(1.01466 0.00580662 0)
(1.01856 0.0115798 0)
(1.02548 0.0168156 0)
(1.03575 0.0217747 0)
(1.05051 0.0266106 0)
(1.0723 0.031147 0)
(1.10121 0.0351251 0)
(1.07009 0.033439 0)
(0.743005 0.0141341 0)
(0.153522 0.000499164 0)
(0.140158 -0.000352705 0)
(0.90113 -0.0189535 0)
(1.09661 -0.0297647 0)
(1.09594 -0.0288716 0)
(1.06874 -0.0251512 0)
(1.04987 -0.02114 0)
(1.03691 -0.0165956 0)
(1.02793 -0.0115793 0)
(1.022 -0.00614165 0)
(1.01905 -0.00011599 0)
(1.01978 0.0059472 0)
(1.02394 0.0114164 0)
(1.03107 0.016325 0)
(1.04167 0.0207909 0)
(1.05713 0.0247605 0)
(1.07996 0.0283053 0)
(1.10384 0.0310856 0)
(1.03909 0.0273079 0)
(0.677728 0.00990937 0)
(0.138749 0.000371495 0)
(0.129765 -0.000265002 0)
(0.85228 -0.0143736 0)
(1.08437 -0.0253066 0)
(1.10136 -0.0256336 0)
(1.07526 -0.0224709 0)
(1.05587 -0.0190034 0)
(1.04241 -0.0150461 0)
(1.03299 -0.0104893 0)
(1.02677 -0.00536674 0)
(1.02365 0.000356691 0)
(1.02431 0.00610386 0)
(1.02853 0.0112105 0)
(1.03591 0.0156493 0)
(1.04693 0.0194808 0)
(1.06284 0.0227911 0)
(1.0861 0.0257736 0)
(1.10335 0.0276494 0)
(1.00577 0.0223457 0)
(0.627861 0.00737329 0)
(0.127867 0.000287832 0)
(0.122043 -0.000199934 0)
(0.811573 -0.0109504 0)
(1.06962 -0.0212324 0)
(1.10472 -0.022398 0)
(1.08111 -0.0196134 0)
(1.06126 -0.0164322 0)
(1.04748 -0.0129708 0)
(1.03776 -0.0089964 0)
(1.03126 -0.00437718 0)
(1.02797 0.000946955 0)
(1.02852 0.00628721 0)
(1.03278 0.0108579 0)
(1.04031 0.0146429 0)
(1.05151 0.0178221 0)
(1.06774 0.0206326 0)
(1.09141 0.0233262 0)
(1.10037 0.0244555 0)
(0.973073 0.0182435 0)
(0.589156 0.00563652 0)
(0.119551 0.000228056 0)
(0.116319 -0.000146772 0)
(0.7785 -0.00818244 0)
(1.05381 -0.0173582 0)
(1.10689 -0.0192463 0)
(1.08645 -0.0169924 0)
(1.06608 -0.014154 0)
(1.05205 -0.011027 0)
(1.0422 -0.00740074 0)
(1.03549 -0.00318578 0)
(1.03195 0.00167211 0)
(1.03239 0.0064817 0)
(1.03664 0.0105084 0)
(1.04416 0.0137832 0)
(1.05537 0.0164714 0)
(1.07193 0.0188296 0)
(1.09553 0.0210602 0)
(1.09504 0.0213801 0)
(0.942534 0.0146961 0)
(0.558947 0.0043121 0)
(0.113104 0.000181609 0)
(0.112202 -0.000105558 0)
(0.752544 -0.00591817 0)
(1.03815 -0.0136689 0)
(1.10778 -0.0160247 0)
(1.09105 -0.0143685 0)
(1.07047 -0.0118993 0)
(1.05626 -0.0090117 0)
(1.04633 -0.00561921 0)
(1.03956 -0.00176377 0)
(1.03585 0.00256705 0)
(1.03609 0.00676982 0)
(1.04011 0.0102087 0)
(1.04743 0.0130115 0)
(1.05862 0.0153336 0)
(1.07535 0.0172513 0)
(1.09812 0.0188458 0)
(1.08768 0.0183566 0)
(0.915238 0.0116725 0)
(0.535524 0.00329556 0)
(0.1081 0.000149558 0)
(0.109419 -6.69391e-05 0)
(0.733176 -0.00385255 0)
(1.0239 -0.00997455 0)
(1.10759 -0.012406 0)
(1.09487 -0.0111117 0)
(1.07426 -0.00892372 0)
(1.05969 -0.00649367 0)
(1.04944 -0.00364551 0)
(1.0424 -0.000263483 0)
(1.0385 0.0036208 0)
(1.03843 0.00731625 0)
(1.04226 0.0101273 0)
(1.04959 0.0121891 0)
(1.0609 0.0137329 0)
(1.0778 0.0151044 0)
(1.09906 0.0162129 0)
(1.07907 0.0151505 0)
(0.891846 0.00889754 0)
(0.517774 0.00240027 0)
(0.104224 0.00012197 0)
(0.107988 -1.75389e-05 0)
(0.720151 -0.00197806 0)
(1.01192 -0.0064383 0)
(1.1069 -0.00883073 0)
(1.09826 -0.00798966 0)
(1.07772 -0.00628241 0)
(1.06318 -0.00424811 0)
(1.05302 -0.00163569 0)
(1.04598 0.00145752 0)
(1.04184 0.00491071 0)
(1.04142 0.00806449 0)
(1.04481 0.0103349 0)
(1.05168 0.0118632 0)
(1.06266 0.012838 0)
(1.07953 0.0135113 0)
(1.09899 0.0138963 0)
(1.07 0.0121887 0)
(0.872575 0.00644282 0)
(0.505139 0.00164219 0)
(0.101441 8.80636e-05 0)
(0.107749 1.84013e-05 0)
(0.712561 -0.000608102 0)
(1.00221 -0.00352235 0)
(1.10523 -0.00583788 0)
(1.10049 -0.00551486 0)
(1.08032 -0.00415303 0)
(1.06581 -0.00230913 0)
(1.05564 0.00022089 0)
(1.04847 0.00322896 0)
(1.04403 0.00646615 0)
(1.04317 0.0092612 0)
(1.04612 0.0111116 0)
(1.05261 0.0122198 0)
(1.06325 0.0126618 0)
(1.07972 0.012815 0)
(1.09716 0.0124189 0)
(1.06015 0.00992205 0)
(0.857022 0.00476236 0)
(0.49628 0.00120268 0)
(0.0995181 6.29716e-05 0)
(0.108306 5.07818e-05 0)
(0.709092 0.000220466 0)
(0.995279 -0.00134991 0)
(1.1031 -0.00308459 0)
(1.1021 -0.00288326 0)
(1.08284 -0.00168874 0)
(1.06866 0.000156091 0)
(1.05861 0.00261466 0)
(1.05124 0.00542054 0)
(1.04637 0.008372 0)
(1.04497 0.0107658 0)
(1.04734 0.0120625 0)
(1.05317 0.0124852 0)
(1.06318 0.0124607 0)
(1.07919 0.0121464 0)
(1.09406 0.0113212 0)
(1.05031 0.00850272 0)
(0.844564 0.00406282 0)
(0.489317 0.00110147 0)
(0.0979997 5.53142e-05 0)
(0.109349 6.3286e-05 0)
(0.708209 0.000704929 0)
(0.991407 7.51307e-06 0)
(1.10189 -0.000845912 0)
(1.10374 -0.000272695 0)
(1.08544 0.00107796 0)
(1.07141 0.00299952 0)
(1.06128 0.00538375 0)
(1.05373 0.00800192 0)
(1.04846 0.0106936 0)
(1.04632 0.012669 0)
(1.04789 0.013409 0)
(1.05313 0.0133896 0)
(1.06257 0.012899 0)
(1.07791 0.012188 0)
(1.09044 0.0109773 0)
(1.04123 0.008215 0)
(0.83373 0.00417877 0)
(0.482563 0.00122219 0)
(0.0964383 6.43447e-05 0)
(0.110708 7.59887e-05 0)
(0.708726 0.00110584 0)
(0.989612 0.00087706 0)
(1.1022 0.000606067 0)
(1.10625 0.00172354 0)
(1.08834 0.0034282 0)
(1.07414 0.00564282 0)
(1.06379 0.00819723 0)
(1.05592 0.010946 0)
(1.05005 0.0135577 0)
(1.04708 0.0152242 0)
(1.04783 0.0155903 0)
(1.05244 0.0150642 0)
(1.06135 0.014192 0)
(1.07601 0.0132369 0)
(1.08666 0.0118834 0)
(1.03251 0.00898483 0)
(0.822741 0.00468663 0)
(0.475117 0.00142477 0)
(0.094584 8.30413e-05 0)
(0.112455 9.15128e-05 0)
(0.710484 0.00163716 0)
(0.98862 0.00179563 0)
(1.10313 0.00152026 0)
(1.10955 0.00259728 0)
(1.09185 0.004538 0)
(1.07748 0.00728795 0)
(1.0669 0.0105119 0)
(1.05856 0.013944 0)
(1.05188 0.017058 0)
(1.04788 0.0189637 0)
(1.04762 0.019348 0)
(1.05124 0.0187141 0)
(1.05975 0.0174416 0)
(1.07392 0.0159991 0)
(1.08225 0.0142898 0)
(1.02235 0.0103298 0)
(0.810449 0.00523283 0)
(0.466772 0.00164176 0)
(0.0923471 0.000104412 0)
(0.114776 0.000116493 0)
(0.714216 0.00241121 0)
(0.988053 0.00324251 0)
(1.10341 0.00265256 0)
(1.11252 0.00332381 0)
(1.09586 0.00521961 0)
(1.08165 0.00854727 0)
(1.0709 0.0127149 0)
(1.06189 0.0172086 0)
(1.05412 0.021357 0)
(1.04887 0.0239975 0)
(1.04743 0.0247768 0)
(1.04997 0.0242827 0)
(1.05722 0.0228859 0)
(1.07061 0.0207713 0)
(1.07526 0.017344 0)
(1.00916 0.0116141 0)
(0.79688 0.00571591 0)
(0.457583 0.00187652 0)
(0.0897021 0.000125956 0)
(0.117911 0.000156106 0)
(0.720922 0.00348718 0)
(0.989021 0.0054525 0)
(1.10254 0.00498442 0)
(1.11486 0.00520231 0)
(1.10023 0.0069908 0)
(1.08684 0.0109694 0)
(1.07604 0.0160987 0)
(1.06628 0.0216031 0)
(1.05716 0.0267403 0)
(1.0504 0.0299674 0)
(1.04749 0.030911 0)
(1.04857 0.0302283 0)
(1.05409 0.0283352 0)
(1.06479 0.0250356 0)
(1.06415 0.0197063 0)
(0.993248 0.0125498 0)
(0.782568 0.00629213 0)
(0.447419 0.00217207 0)
(0.0866031 0.000149441 0)
(0.122151 0.000216026 0)
(0.731434 0.0048718 0)
(0.992898 0.00822059 0)
(1.10203 0.00899003 0)
(1.11683 0.00911768 0)
(1.10505 0.0113634 0)
(1.09302 0.016028 0)
(1.08205 0.0218994 0)
(1.07133 0.0280558 0)
(1.06055 0.0335698 0)
(1.05187 0.0366288 0)
(1.04716 0.0370202 0)
(1.04636 0.0354999 0)
(1.04962 0.0325689 0)
(1.056 0.0278882 0)
(1.04999 0.0211864 0)
(0.976383 0.0134923 0)
(0.767719 0.00713859 0)
(0.435879 0.00255433 0)
(0.082972 0.000174829 0)
(0.127874 0.000296195 0)
(0.746441 0.0065803 0)
(1.00112 0.0116343 0)
(1.10435 0.0141137 0)
(1.11966 0.0154841 0)
(1.11094 0.0188884 0)
(1.09995 0.0242397 0)
(1.08858 0.0306235 0)
(1.07657 0.0370239 0)
(1.06369 0.0421793 0)
(1.05265 0.0442684 0)
(1.04581 0.0433539 0)
(1.04272 0.0403252 0)
(1.04311 0.03587 0)
(1.04518 0.029971 0)
(1.03488 0.0227156 0)
(0.959719 0.0150864 0)
(0.751702 0.00843742 0)
(0.422303 0.00308102 0)
(0.0786737 0.000208315 0)
(0.135516 0.000408776 0)
(0.766573 0.00883891 0)
(1.01462 0.0158591 0)
(1.11131 0.0203728 0)
(1.12553 0.0237669 0)
(1.11834 0.0288392 0)
(1.10773 0.0352354 0)
(1.09545 0.0421768 0)
(1.08157 0.0485618 0)
(1.06602 0.0528524 0)
(1.05215 0.0533304 0)
(1.04279 0.0504693 0)
(1.03709 0.0456283 0)
(1.03459 0.0395345 0)
(1.03321 0.0327041 0)
(1.01983 0.0252589 0)
(0.942958 0.017618 0)
(0.733494 0.0102353 0)
(0.406004 0.00375737 0)
(0.0735408 0.000248025 0)
(0.145834 0.000585262 0)
(0.793046 0.0120905 0)
(1.03424 0.0214069 0)
(1.12343 0.0280752 0)
(1.13547 0.0338897 0)
(1.12804 0.0410038 0)
(1.11666 0.0488519 0)
(1.10259 0.0565216 0)
(1.08603 0.06279 0)
(1.06719 0.0659369 0)
(1.04997 0.064443 0)
(1.03778 0.0593441 0)
(1.02941 0.0524972 0)
(1.0243 0.0448775 0)
(1.02033 0.0371363 0)
(1.00458 0.0293306 0)
(0.924944 0.0211683 0)
(0.712225 0.0125057 0)
(0.386428 0.00452808 0)
(0.0674213 0.00028787 0)
(0.160077 0.00086588 0)
(0.827729 0.0169141 0)
(1.06091 0.0290517 0)
(1.14122 0.0380824 0)
(1.14994 0.0466403 0)
(1.14061 0.0561577 0)
(1.12699 0.065705 0)
(1.10997 0.0741508 0)
(1.0898 0.0801284 0)
(1.06694 0.0818502 0)
(1.04592 0.0781205 0)
(1.0306 0.0706592 0)
(1.01964 0.0617092 0)
(1.01221 0.0525078 0)
(1.00617 0.0436909 0)
(0.988153 0.0351316 0)
(0.904269 0.0258465 0)
(0.686535 0.0153399 0)
(0.362809 0.005479 0)
(0.0602187 0.000335422 0)
(0.18044 0.00136315 0)
(0.873771 0.0245708 0)
(1.09645 0.040471 0)
(1.16531 0.0521328 0)
(1.16927 0.0640024 0)
(1.15625 0.0760306 0)
(1.13871 0.0871382 0)
(1.11736 0.0959984 0)
(1.09258 0.101203 0)
(1.06505 0.101015 0)
(1.03985 0.094684 0)
(1.0212 0.0846929 0)
(1.00768 0.0735743 0)
(0.998104 0.0626354 0)
(0.990161 0.0524772 0)
(0.969525 0.0427395 0)
(0.879575 0.0317372 0)
(0.655339 0.0188297 0)
(0.334572 0.00659853 0)
(0.0518391 0.000380061 0)
(0.21028 0.00249791 0)
(0.936971 0.0380576 0)
(1.14281 0.0596041 0)
(1.19651 0.0737907 0)
(1.19322 0.0893015 0)
(1.17434 0.103208 0)
(1.1511 0.114912 0)
(1.1241 0.123173 0)
(1.09387 0.126667 0)
(1.06118 0.12378 0)
(1.03158 0.114317 0)
(1.0095 0.10155 0)
(0.993454 0.088164 0)
(0.981765 0.0753563 0)
(0.971803 0.0636571 0)
(0.947665 0.0524624 0)
(0.849478 0.039141 0)
(0.61756 0.0231017 0)
(0.301884 0.00795696 0)
(0.042578 0.000410886 0)
(0.251413 0.00896045 -2.43412e-20)
(1.02076 0.06556 -1.93004e-20)
(1.19772 0.0923248 5.39412e-21)
(1.23307 0.109447 0)
(1.21913 0.126438 5.46735e-36)
(1.19273 0.140202 2.51009e-22)
(1.16262 0.150744 -2.46069e-21)
(1.12917 0.157075 0)
(1.09288 0.157912 9.47659e-35)
(1.05451 0.151715 -7.23284e-21)
(1.02007 0.138827 0)
(0.994178 0.123222 -1.04065e-20)
(0.975177 0.107598 -3.18396e-20)
(0.960942 0.0930345 -1.54018e-20)
(0.948385 0.0800291 -4.84531e-21)
(0.920089 0.0676366 -2.9281e-21)
(0.810677 0.0513746 0)
(0.569711 0.0306194 2.08201e-21)
(0.264212 0.011589 2.45784e-21)
(0.0341136 0.00116733 4.29635e-20)
(0.278416 0.0248771 -4.55735e-20)
(1.08964 0.10955 9.95139e-22)
(1.24397 0.140224 -2.67604e-21)
(1.26594 0.158601 0)
(1.24238 0.173994 4.18178e-21)
(1.20867 0.186065 2.23503e-21)
(1.17168 0.194725 -1.55406e-21)
(1.13161 0.198875 -1.21962e-20)
(1.08879 0.197166 0)
(1.04389 0.187965 3.07948e-20)
(1.00347 0.172052 3.41422e-20)
(0.972516 0.153976 1.09985e-20)
(0.949302 0.136409 4.34499e-20)
(0.931349 0.120167 6.39371e-20)
(0.914646 0.105609 0)
(0.879607 0.0914755 9.46793e-20)
(0.762781 0.0721445 1.37166e-19)
(0.521044 0.0456604 1.52035e-19)
(0.234687 0.0197322 -1.74774e-19)
(0.0285279 0.0024477 -3.19541e-21)
(0.276824 0.0406989 0)
(1.13121 0.166604 -1.42971e-20)
(1.27709 0.200097 0)
(1.29133 0.217576 2.33258e-20)
(1.26056 0.22941 0)
(1.22051 0.238129 1.16353e-20)
(1.17727 0.243561 1.61909e-21)
(1.13106 0.244521 -1.79418e-20)
(1.08219 0.239572 -3.12795e-21)
(1.03116 0.227054 1.49445e-20)
(0.985179 0.208188 7.9894e-20)
(0.949697 0.187967 -6.02984e-22)
(0.922693 0.16897 -3.2708e-20)
(0.901431 0.151841 -6.34945e-20)
(0.881731 0.136586 7.68738e-20)
(0.844762 0.121581 -1.37989e-19)
(0.733518 0.0988827 -1.87024e-20)
(0.507412 0.0667918 0)
(0.241077 0.031769 1.24315e-22)
(0.0327729 0.00461196 0)
(0.268827 0.0543374 -3.50419e-19)
(1.15177 0.226494 1.46962e-19)
(1.29811 0.264998 8.00454e-20)
(1.30799 0.281221 -1.53345e-20)
(1.27227 0.289189 2.34443e-20)
(1.2274 0.293967 -2.80699e-20)
(1.17909 0.295543 1.69184e-21)
(1.12764 0.292774 0)
(1.07344 0.284163 -5.84853e-20)
(1.01697 0.268066 0)
(0.966071 0.246207 -4.08547e-20)
(0.926722 0.224005 -5.75578e-20)
(0.896638 0.203833 -3.6792e-20)
(0.872893 0.18605 -4.7451e-20)
(0.851361 0.170353 0)
(0.815006 0.154507 0)
(0.714624 0.12983 -1.26372e-19)
(0.509243 0.0925711 2.50895e-20)
(0.25596 0.0470541 -1.45873e-20)
(0.0391333 0.00763128 -1.67805e-20)
(0.260562 0.0665212 2.59857e-19)
(1.15909 0.286042 0)
(1.30999 0.331271 -2.24951e-19)
(1.31701 0.346103 -5.78058e-20)
(1.27775 0.350422 -4.38162e-20)
(1.22934 0.351249 0)
(1.17708 0.348931 -5.41319e-21)
(1.12136 0.342306 1.59985e-20)
(1.06263 0.329901 2.55865e-20)
(1.00153 0.310084 7.61886e-20)
(0.946485 0.285159 0)
(0.904032 0.260923 -1.25829e-19)
(0.871625 0.239603 -8.05975e-20)
(0.846098 0.221255 -4.86098e-20)
(0.823471 0.205361 3.18557e-19)
(0.78864 0.18905 3.90851e-20)
(0.698705 0.163063 1.85578e-19)
(0.511819 0.119817 -8.89032e-19)
(0.268053 0.0637681 5.27844e-19)
(0.044394 0.0109762 -6.26558e-19)
(0.253182 0.0775376 2.74848e-19)
(1.15817 0.343378 -5.18696e-20)
(1.31476 0.396569 3.96625e-20)
(1.31989 0.410393 1.07915e-19)
(1.2781 0.411323 6.6105e-20)
(1.22698 0.408439 3.35742e-21)
(1.17161 0.402394 4.67652e-21)
(1.11242 0.392017 1.18241e-20)
(1.04993 0.375849 -5.64476e-20)
(0.984872 0.352291 0)
(0.926397 0.324195 -5.40158e-20)
(0.881494 0.297776 -3.07245e-21)
(0.847456 0.27514 -9.0412e-20)
(0.820855 0.25613 0)
(0.797815 0.239968 -6.96641e-20)
(0.764839 0.223421 -1.69421e-19)
(0.682715 0.196263 4.66241e-19)
(0.509719 0.146946 -4.60886e-19)
(0.272852 0.0797165 6.50615e-19)
(0.0472353 0.014064 -6.68774e-19)
(0.247252 0.0877809 -8.21191e-22)
(1.15229 0.397858 6.36302e-20)
(1.31427 0.459771 1.89737e-19)
(1.31809 0.472982 -6.62049e-20)
(1.27441 0.470869 3.7776e-20)
(1.22119 0.464578 0)
(1.16332 0.455053 1.69459e-20)
(1.10124 0.441122 -8.99052e-21)
(1.03555 0.421319 -2.5772e-20)
(0.967089 0.394055 0)
(0.905676 0.362678 -5.28869e-20)
(0.858815 0.333866 -7.44129e-20)
(0.823641 0.309624 9.90956e-20)
(0.796476 0.289648 -6.3457e-20)
(0.77352 0.272852 -3.07603e-19)
(0.742376 0.255684 1.88911e-19)
(0.666409 0.226699 5.92433e-20)
(0.502623 0.171 0)
(0.271565 0.0930787 -6.32456e-19)
(0.0476946 0.0164749 -2.29827e-20)
(0.242683 0.09757 4.51607e-20)
(1.14352 0.449345 -7.32585e-20)
(1.30993 0.520319 -1.03821e-19)
(1.31278 0.533216 -2.03696e-19)
(1.26767 0.528448 1.83654e-19)
(1.21276 0.519102 -9.73941e-20)
(1.15282 0.506376 -3.55377e-20)
(1.08831 0.489122 -1.293e-20)
(1.01983 0.465873 2.5855e-20)
(0.948365 0.434967 -1.87134e-19)
(0.884327 0.400206 -6.51502e-20)
(0.835736 0.368769 0)
(0.799735 0.342586 1.08517e-19)
(0.772377 0.321253 1.34229e-19)
(0.749733 0.303431 1.6524e-19)
(0.720185 0.285223 -2.06259e-19)
(0.648572 0.254033 -6.19278e-20)
(0.49107 0.19171 7.27888e-20)
(0.265782 0.103819 0)
(0.0467446 0.0182705 -5.01018e-20)
(0.239276 0.107031 -5.24843e-19)
(1.13332 0.497972 3.35617e-19)
(1.30287 0.577967 1.14294e-19)
(1.30489 0.59075 -1.55587e-19)
(1.2586 0.583683 1.09991e-19)
(1.20234 0.571623 -7.82758e-21)
(1.1407 0.55601 3.45563e-20)
(1.07409 0.535716 -5.81392e-21)
(1.00313 0.509233 -4.6615e-20)
(0.928898 0.474819 3.84038e-22)
(0.862476 0.436619 -1.94605e-19)
(0.812429 0.402302 1.89968e-19)
(0.775708 0.373847 -1.21718e-19)
(0.748253 0.35075 1.51429e-19)
(0.725991 0.331618 0)
(0.697722 0.311984 -1.12034e-19)
(0.629094 0.277814 -2.24006e-21)
(0.475902 0.209119 -3.18615e-19)
(0.25622 0.111881 -4.67159e-20)
(0.0445533 0.0193638 0)
(0.236863 0.11627 0)
(1.12247 0.543978 3.64606e-19)
(1.29386 0.632599 2.6655e-19)
(1.29513 0.645472 1.75639e-19)
(1.24785 0.636389 1.05726e-19)
(1.19049 0.621928 0)
(1.12743 0.603735 3.38093e-20)
(1.05899 0.580695 -2.39593e-21)
(0.985794 0.551247 9.91652e-20)
(0.908991 0.513497 -2.29692e-20)
(0.840289 0.47185 -1.42719e-19)
(0.78879 0.434476 9.51099e-20)
(0.751335 0.403477 -3.93822e-21)
(0.723769 0.378283 1.5947e-19)
(0.701909 0.357445 1.04199e-19)
(0.674637 0.335981 -2.43891e-19)
(0.60788 0.29832 2.94045e-19)
(0.457729 0.223037 8.71997e-20)
(0.243743 0.117505 3.57555e-19)
(0.0414641 0.0197531 -9.45385e-19)
(0.235333 0.125426 -1.34916e-19)
(1.11157 0.58753 2.10402e-19)
(1.28367 0.684289 -1.66164e-19)
(1.28404 0.697349 -2.03964e-19)
(1.23595 0.686471 0)
(1.17768 0.669892 8.52827e-20)
(1.1134 0.649421 -9.69675e-20)
(1.04336 0.623935 2.7723e-21)
(0.968116 0.591809 0)
(0.888828 0.550945 -3.56509e-19)
(0.817721 0.505902 3.89348e-19)
(0.764633 0.465317 0)
(0.726462 0.431514 1.44081e-19)
(0.69876 0.403984 -3.93924e-21)
(0.677222 0.381122 -3.29588e-19)
(0.650586 0.357438 1.29467e-19)
(0.584822 0.31574 0)
(0.437061 0.233606 4.73063e-19)
(0.229046 0.120726 0)
(0.0377702 0.0195958 -4.50317e-19)
(0.234476 0.134512 1.50475e-19)
(1.1009 0.628834 2.40591e-19)
(1.27267 0.733043 -1.74053e-19)
(1.27207 0.746392 0)
(1.2233 0.733917 1.4569e-19)
(1.16428 0.715475 0)
(1.09896 0.692998 1.28205e-19)
(1.02748 0.665361 1.33256e-20)
(0.950319 0.630861 1.0364e-20)
(0.86854 0.587159 -1.76151e-19)
(0.794945 0.538844 3.78044e-20)
(0.740096 0.494975 0)
(0.701014 0.458124 -3.0639e-19)
(0.67309 0.427937 4.06276e-21)
(0.651766 0.402769 0)
(0.625433 0.376474 4.7812e-21)
(0.559834 0.330126 4.32608e-19)
(0.413894 0.240775 -4.13474e-19)
(0.212422 0.12153 1.21389e-19)
(0.0335742 0.0188228 0)
(0.233966 0.143407 0)
(1.09066 0.667912 2.69351e-19)
(1.26119 0.779044 2.04038e-19)
(1.25956 0.792661 -4.40997e-21)
(1.21024 0.778751 9.13449e-20)
(1.1506 0.758677 2.00763e-19)
(1.08438 0.734448 -4.10321e-20)
(1.0116 0.704944 4.04897e-21)
(0.932621 0.668379 6.12107e-20)
(0.848387 0.622171 -2.74904e-19)
(0.772156 0.570792 -6.39088e-21)
(0.715263 0.523613 -1.25411e-19)
(0.674957 0.483526 5.01956e-19)
(0.646643 0.450404 -4.82822e-21)
(0.62543 0.422599 -2.59449e-19)
(0.599075 0.393226 -4.73404e-19)
(0.532944 0.341572 0)
(0.388442 0.244707 0)
(0.19409 0.11984 1.32982e-19)
(0.0290686 0.0174593 -7.66441e-20)
(0.234024 0.152254 1.87268e-19)
(1.08097 0.704749 -5.90816e-19)
(1.24941 0.822387 -2.18402e-19)
(1.2468 0.836217 0)
(1.19702 0.82103 -3.05128e-21)
(1.13686 0.799528 2.41287e-19)
(1.06987 0.773783 -1.38188e-19)
(0.995937 0.742684 -5.7184e-20)
(0.915259 0.704375 6.36741e-20)
(0.828586 0.65602 -2.1196e-19)
(0.749491 0.601853 -3.29519e-19)
(0.690197 0.551438 3.34317e-19)
(0.64836 0.507928 0)
(0.619389 0.471556 -1.16767e-19)
(0.598146 0.440767 -2.84582e-19)
(0.571432 0.40778 -3.42664e-19)
(0.504085 0.349998 -4.14198e-19)
(0.360788 0.245258 1.23173e-19)
(0.17415 0.115522 -7.19516e-20)
(0.0242343 0.0155064 7.37368e-22)
(0.234072 0.160934 0)
(1.07193 0.739607 0)
(1.23758 0.863148 5.00492e-21)
(1.23399 0.877142 0)
(1.18383 0.860835 -3.42792e-19)
(1.12326 0.838085 -2.13205e-19)
(1.05563 0.811033 0)
(0.980671 0.778594 -1.45396e-20)
(0.898407 0.73885 8.10515e-20)
(0.809283 0.688725 -4.86931e-19)
(0.727134 0.632137 0)
(0.665044 0.578645 -2.14197e-19)
(0.621215 0.531577 -5.91441e-21)
(0.59126 0.491624 -4.86443e-21)
(0.569808 0.457415 3.03514e-19)
(0.542422 0.420167 -8.35721e-22)
(0.473238 0.355366 -8.98529e-19)
(0.330831 0.242248 2.67806e-19)
(0.152749 0.108611 7.90396e-20)
(0.0191871 0.0130491 0)
(0.234147 0.169337 -6.88081e-19)
(1.06328 0.772732 -3.6312e-19)
(1.22581 0.901442 -5.46199e-19)
(1.22129 0.915551 7.64218e-19)
(1.17083 0.898235 -6.42229e-19)
(1.10994 0.874405 0)
(1.04179 0.846239 -1.17626e-19)
(0.965932 0.812695 2.6944e-20)
(0.882181 0.771816 7.48127e-21)
(0.790652 0.720317 3.84337e-20)
(0.705276 0.66173 4.1323e-19)
(0.639981 0.60543 -7.3264e-20)
(0.593597 0.55477 -3.09408e-19)
(0.562164 0.510875 -1.38452e-19)
(0.540259 0.472645 1.6871e-19)
(0.511944 0.430255 -6.33733e-22)
(0.440525 0.357402 2.45743e-19)
(0.298686 0.235438 -5.8016e-19)
(0.130416 0.0992521 6.86319e-19)
(0.014181 0.010239 9.8037e-20)
(0.234105 0.177431 2.52504e-19)
(1.05502 0.804157 -1.98728e-19)
(1.21422 0.937385 1.179e-20)
(1.20881 0.951566 4.31418e-19)
(1.15813 0.933338 1.50034e-19)
(1.09701 0.908558 4.24666e-19)
(1.02845 0.879448 -5.22363e-20)
(0.951812 0.845006 1.29452e-19)
(0.866704 0.803272 -4.61417e-20)
(0.772839 0.750796 -2.66261e-19)
(0.684101 0.690693 0)
(0.615195 0.631956 -3.29496e-19)
(0.565637 0.577825 4.48923e-19)
(0.532017 0.529664 0)
(0.509203 0.48656 -3.6086e-19)
(0.479733 0.437717 2.22695e-19)
(0.406 0.355536 -2.65255e-19)
(0.265388 0.224709 -3.16471e-19)
(0.108183 0.0879528 -5.57256e-19)
(0.00946739 0.00725885 -4.2815e-19)
(0.234252 0.18529 -2.77177e-19)
(1.04698 0.833872 2.12147e-19)
(1.20287 0.97106 5.08138e-19)
(1.19664 0.985273 5.92255e-19)
(1.14581 0.96623 -3.13485e-19)
(1.08454 0.940626 2.92677e-19)
(1.01567 0.910711 -1.62119e-19)
(0.938388 0.875571 1.60724e-19)
(0.852057 0.833243 -1.54067e-20)
(0.755958 0.780168 2.55149e-19)
(0.663783 0.719057 8.78446e-19)
(0.590917 0.658352 0)
(0.537504 0.601055 0)
(0.500733 0.548463 -1.59948e-19)
(0.476155 0.499386 0)
(0.44519 0.441976 4.8398e-19)
(0.369651 0.348625 5.7793e-19)
(0.232103 0.209486 0)
(0.0874347 0.0751295 0)
(0.00538657 0.00441076 4.64582e-19)
(0.234093 0.192669 3.05339e-19)
(1.0392 0.861886 2.5403e-19)
(1.19183 1.00259 3.64448e-19)
(1.18482 1.0168 -5.27962e-19)
(1.13393 0.997014 -3.48967e-19)
(1.07258 0.970685 -3.87662e-19)
(1.00352 0.940092 2.39973e-19)
(0.925713 0.90442 6.71547e-22)
(0.8383 0.861729 -9.60068e-21)
(0.740096 0.808417 -1.16574e-20)
(0.644495 0.746824 4.45131e-19)
(0.567379 0.684691 0)
(0.509501 0.624733 4.53111e-19)
(0.468363 0.567872 3.37466e-19)
(0.44045 0.511708 8.58119e-19)
(0.407002 0.44252 2.61106e-19)
(0.33091 0.334469 -3.17297e-19)
(0.201196 0.187571 -1.8542e-19)
(0.0723478 0.0607325 0)
(0.00319194 0.00218881 5.03205e-19)
(0.234125 0.199966 -6.70161e-19)
(1.03166 0.888306 0)
(1.18108 1.03204 4.06438e-19)
(1.1734 1.04623 -4.31694e-19)
(1.12252 1.02578 3.94388e-19)
(1.06116 0.99882 5.65363e-19)
(0.992019 0.967648 -5.55527e-19)
(0.913808 0.93159 5.33279e-21)
(0.825459 0.888741 0)
(0.725321 0.835505 -2.39302e-19)
(0.626382 0.773963 -9.2416e-19)
(0.54483 0.711006 4.49966e-20)
(0.482011 0.649018 6.16525e-19)
(0.435172 0.588559 0)
(0.401449 0.524616 5.79609e-19)
(0.362916 0.439833 0)
(0.286443 0.310133 0)
(0.17379 0.150391 -2.05387e-19)
(0.0787779 0.0340781 0)
(0.0246932 0.00995832 1.35578e-19)
(0.233832 0.206623 -7.31084e-19)
(1.02432 0.91342 0)
(1.17064 1.05962 6.56063e-19)
(1.16234 1.0738 0)
(1.11156 1.05278 -2.13441e-19)
(1.05023 1.02531 0)
(0.981102 0.993682 -4.14871e-20)
(0.902576 0.957414 -2.78529e-20)
(0.813422 0.914635 -2.16833e-22)
(0.711489 0.861814 -2.35417e-19)
(0.609323 0.800892 2.42678e-20)
(0.523156 0.73785 3.71349e-19)
(0.454888 0.674449 5.96524e-19)
(0.400892 0.611558 8.50516e-20)
(0.357924 0.540156 4.54142e-19)
(0.309307 0.43678 0)
(0.224949 0.27701 6.89755e-19)
(0.122507 0.0871884 -4.0283e-19)
(0.0491013 0.0527817 4.59601e-19)
(-0.0575614 0.406861 -5.41902e-19)
(0.233509 0.213012 5.95101e-19)
(1.01696 0.937148 9.60394e-19)
(1.16042 1.08564 0)
(1.15151 1.09992 9.72689e-21)
(1.10087 1.07858 5.79242e-19)
(1.03955 1.05081 -1.09012e-18)
(0.970487 1.01897 -2.44231e-19)
(0.891653 0.982808 0)
(0.801715 0.940484 -4.6141e-20)
(0.698002 0.888631 -7.19991e-21)
(0.592499 0.829074 0)
(0.501336 0.767 0)
(0.42693 0.702866 5.24576e-19)
(0.364436 0.638814 -2.66136e-19)
(0.307507 0.562089 -4.54747e-19)
(0.24171 0.44022 0)
(0.127255 0.256767 3.49466e-19)
(0.0207381 0.431705 -4.0043e-19)
(0.0412828 1.81983 -2.10885e-19)
(0.0748523 2.77177 -2.83003e-19)
(0.232992 0.218624 -4.32035e-19)
(1.00972 0.959583 -1.20822e-18)
(1.15042 1.1101 3.76421e-19)
(1.14094 1.12444 3.64153e-19)
(1.09052 1.10296 0)
(1.02917 1.07504 -7.79257e-19)
(0.960351 1.0432 -4.08932e-19)
(0.881201 1.00735 1.86384e-20)
(0.790576 0.965771 -5.97159e-21)
(0.685202 0.915333 1.80648e-19)
(0.576474 0.857784 4.1306e-19)
(0.480328 0.797931 3.83831e-19)
(0.399342 0.733828 5.15847e-19)
(0.328223 0.668558 -6.08219e-19)
(0.256304 0.593033 -6.7427e-19)
(0.162941 0.468219 0)
(0.0665148 0.812927 0)
(0.12071 2.5 1.79938e-19)
(0.125196 3.17379 0)
(0.126976 3.37693 3.8553e-19)
(0.235381 0.223939 0)
(1.00318 0.980926 0)
(1.14038 1.13287 0)
(1.13037 1.14716 1.0121e-19)
(1.08018 1.12571 5.14964e-19)
(1.01886 1.09787 -5.93934e-19)
(0.950595 1.06628 -2.92519e-19)
(0.871161 1.03092 2.12162e-20)
(0.779952 0.990349 -1.20824e-19)
(0.673102 0.941768 -1.99652e-20)
(0.561366 0.886866 7.47832e-19)
(0.460476 0.830439 -4.50877e-20)
(0.372631 0.767958 5.82655e-20)
(0.293993 0.697858 8.64776e-20)
(0.207465 0.631366 2.60819e-21)
(0.129365 0.919937 3.52552e-21)
(0.167304 2.63914 -9.14763e-19)
(0.183432 3.27496 -3.42105e-19)
(0.167993 3.42435 1.54649e-19)
(0.150828 3.44963 -1.57881e-19)
(0.154519 0.175964 2.37385e-19)
(0.991312 1.00422 0)
(1.13011 1.15411 -7.26594e-19)
(1.12044 1.16855 -9.27436e-19)
(1.0705 1.14747 1.07534e-18)
(1.00943 1.11986 6.31503e-19)
(0.941075 1.08828 3.39346e-19)
(0.861601 1.05363 -3.64537e-19)
(0.770004 1.0143 1.31808e-19)
(0.662031 0.967944 0)
(0.547679 0.91625 3.22744e-19)
(0.442473 0.863998 -2.86184e-19)
(0.347782 0.807323 0)
(0.262884 0.730045 7.3916e-20)
(0.185893 0.835614 1.79427e-19)
(0.181092 2.34516 -2.2439e-19)
(0.2534 3.31189 2.45197e-19)
(0.229881 3.44349 1.19258e-19)
(0.191143 3.46788 1.32472e-19)
(0.165703 3.4793 1.69373e-19)
(0.273928 0.260128 -4.27795e-19)
(0.973826 1.01164 0)
(1.11129 1.17766 7.44929e-19)
(1.10664 1.20018 9.64298e-19)
(1.055 1.17947 -1.09576e-18)
(0.9937 1.15241 -6.66911e-19)
(0.924699 1.12218 -5.25862e-19)
(0.844913 1.08873 -2.7073e-20)
(0.752426 1.05163 -1.95019e-19)
(0.642383 1.0093 2.0642e-20)
(0.523942 0.964148 1.25823e-20)
(0.412101 0.920129 2.21446e-19)
(0.302696 0.876809 4.75116e-20)
(0.235322 0.982923 -6.83596e-20)
(0.258772 2.20939 -1.5862e-19)
(0.328454 3.31395 1.12501e-19)
(0.315653 3.48082 -1.04235e-19)
(0.275086 3.50531 -5.88529e-20)
(0.234991 3.53375 4.56778e-21)
(0.177874 3.52565 -1.20078e-21)
(0.262242 0.256876 0)
(0.970726 1.033 1.9559e-19)
(1.10315 1.1999 -1.48337e-19)
(1.09679 1.22239 -1.08082e-19)
(1.04529 1.20167 -7.22576e-19)
(0.984185 1.17483 6.52953e-19)
(0.915033 1.14478 3.55053e-19)
(0.835346 1.11214 -2.85335e-20)
(0.742791 1.07654 2.43652e-19)
(0.632175 1.03707 -2.81331e-20)
(0.512077 0.996811 -4.16266e-19)
(0.397527 0.959173 3.1458e-20)
(0.291228 0.940739 -4.1197e-20)
(0.277017 1.40873 -5.6554e-20)
(0.364962 3.0279 3.59259e-20)
(0.3993 3.47299 2.01961e-21)
(0.352728 3.54404 -3.46874e-20)
(0.312095 3.56939 -7.96356e-20)
(0.258333 3.59446 1.34249e-19)
(0.193622 3.58849 4.182e-20)
(0.245816 0.254114 4.76561e-19)
(0.965894 1.05663 1.32686e-18)
(1.09439 1.22401 -4.25464e-19)
(1.08648 1.24599 -4.11895e-19)
(1.03513 1.22512 0)
(0.974267 1.19828 9.59371e-19)
(0.905249 1.16847 5.43373e-19)
(0.825946 1.13658 -3.01618e-20)
(0.733663 1.10254 2.5208e-20)
(0.623018 1.06611 1.13561e-19)
(0.502076 1.03105 -1.27107e-19)
(0.386687 1.00084 -2.13807e-19)
(0.296644 1.05506 -2.68081e-19)
(0.351216 2.02723 2.9435e-19)
(0.458881 3.36034 1.46845e-19)
(0.451123 3.54337 0)
(0.396041 3.59129 0)
(0.356768 3.63819 1.3283e-19)
(0.290688 3.70581 0)
(0.20648 3.67184 2.35795e-19)
(0.23454 0.254878 -6.99331e-19)
(0.958895 1.08093 -1.10885e-18)
(1.08422 1.24917 0)
(1.07497 1.27038 1.12208e-20)
(1.02382 1.2491 -7.08184e-19)
(0.963312 1.22213 1.42972e-18)
(0.894761 1.19255 3.66603e-19)
(0.816067 1.16131 -3.78845e-20)
(0.724325 1.12874 2.77816e-19)
(0.614085 1.09528 -1.3753e-20)
(0.493102 1.06555 0)
(0.37912 1.04496 0)
(0.32448 1.26026 -1.95026e-19)