/*--------------------------------*- C++ -*----------------------------------*\
| =========                 |                                                 |
| \\      /  F ield         | OpenFOAM: The Open Source CFD Toolbox           |
|  \\    /   O peration     | Version:  2306                                  |
|   \\  /    A nd           | Website:  www.openfoam.com                      |
|    \\/     M anipulation  |                                                 |
\*---------------------------------------------------------------------------*/
FoamFile
{
    version     2.0;
    format      ascii;
    arch        "LSB;label=32;scalar=64";
    class       volScalarField;
    location    "18";
    object      p;
}
// * * * * * * * * * * * * * * * * * * * * * * * * * * * * * * * * * * * * * //

dimensions      [0 2 -2 0 0 0 0];

internalField   nonuniform List<scalar> 
8800
(
0.412595
0.364552
0.326187
0.29756
0.276951
0.26221
0.251614
0.244107
0.239232
0.237068
0.238152
0.242153
0.248633
0.257814
0.270453
0.287954
0.312335
0.345901
0.388312
0.445427
0.245099
0.252311
0.260764
0.264201
0.26231
0.256815
0.250135
0.243992
0.239212
0.236271
0.235836
0.238147
0.242461
0.248276
0.255026
0.261523
0.265566
0.264993
0.258874
0.249861
0.221765
0.22796
0.23219
0.235589
0.238128
0.238968
0.237888
0.235745
0.233665
0.232624
0.233391
0.235561
0.238174
0.240201
0.240569
0.238906
0.235953
0.23223
0.227646
0.223851
0.216569
0.219288
0.22208
0.224473
0.226194
0.227577
0.228525
0.228748
0.228439
0.228255
0.228787
0.229686
0.230213
0.229917
0.228922
0.227549
0.225638
0.222996
0.220485
0.218954
0.211341
0.21278
0.214681
0.216863
0.218737
0.220134
0.221203
0.222065
0.222689
0.223146
0.223518
0.223654
0.223403
0.222794
0.221845
0.220394
0.218464
0.216388
0.214958
0.214143
0.206328
0.207249
0.208639
0.210426
0.21228
0.213976
0.215371
0.216497
0.217445
0.218196
0.218561
0.218488
0.218049
0.217233
0.215989
0.214411
0.212721
0.211165
0.210208
0.209689
0.201623
0.202276
0.203443
0.205052
0.206777
0.208545
0.210232
0.211659
0.212779
0.213626
0.214113
0.214093
0.213543
0.212493
0.211113
0.209629
0.208127
0.206802
0.20606
0.205707
0.197291
0.197757
0.198769
0.200256
0.201835
0.203408
0.205002
0.206606
0.208053
0.20919
0.20974
0.209615
0.208956
0.208
0.206889
0.205635
0.204293
0.203132
0.202541
0.202303
0.193499
0.193795
0.194678
0.196065
0.197582
0.199116
0.20063
0.202084
0.203501
0.204763
0.205506
0.20562
0.205289
0.204599
0.203643
0.202515
0.20131
0.200288
0.199834
0.199703
0.190628
0.190794
0.191469
0.192656
0.194007
0.195426
0.196938
0.198518
0.200071
0.201498
0.202479
0.202813
0.202618
0.202064
0.201307
0.200439
0.199477
0.198713
0.198421
0.19836
0.188267
0.188368
0.188775
0.189557
0.190532
0.191633
0.192868
0.194293
0.195882
0.197517
0.198793
0.199482
0.199707
0.199646
0.199374
0.198945
0.198471
0.198107
0.197968
0.197924
0.185521
0.185607
0.18588
0.186406
0.187156
0.188149
0.189408
0.190922
0.192681
0.194592
0.196247
0.197307
0.197868
0.198017
0.197962
0.197912
0.197801
0.197703
0.197643
0.197601
0.181996
0.182064
0.1823
0.182735
0.183411
0.184313
0.185555
0.187167
0.189157
0.191446
0.193549
0.19502
0.195913
0.196499
0.196888
0.197075
0.197181
0.197203
0.19718
0.197142
0.177745
0.17779
0.17804
0.178541
0.179235
0.18024
0.181643
0.183482
0.185789
0.188551
0.19123
0.193234
0.194587
0.195475
0.196064
0.196442
0.196653
0.196724
0.196735
0.196706
0.172913
0.172945
0.173211
0.173818
0.17469
0.175812
0.177456
0.179628
0.182402
0.185803
0.189175
0.191783
0.193623
0.194877
0.195707
0.196236
0.196501
0.196618
0.196666
0.196645
0.167531
0.16756
0.167835
0.168516
0.169601
0.170976
0.172916
0.175497
0.178863
0.18306
0.187311
0.190658
0.193086
0.194775
0.195882
0.196585
0.196967
0.197166
0.197249
0.19723
0.161494
0.161526
0.16184
0.162597
0.163793
0.165515
0.167853
0.171009
0.175163
0.180383
0.185713
0.189966
0.193036
0.195192
0.196686
0.197634
0.198197
0.198506
0.198623
0.198598
0.154511
0.154545
0.154948
0.155796
0.157199
0.159251
0.162118
0.166027
0.171197
0.177712
0.184384
0.189733
0.193621
0.196398
0.198281
0.19952
0.200292
0.200721
0.20087
0.200839
0.146199
0.14624
0.146707
0.147772
0.149486
0.152003
0.155552
0.160445
0.166921
0.175069
0.183398
0.190063
0.19496
0.198407
0.200784
0.202373
0.203382
0.203939
0.204126
0.204085
0.136133
0.136189
0.136793
0.138108
0.140269
0.143439
0.147938
0.154119
0.162265
0.172462
0.18283
0.191111
0.19715
0.201422
0.204381
0.206375
0.20765
0.208345
0.208577
0.208525
0.12378
0.123854
0.124641
0.126352
0.12914
0.13322
0.138985
0.146858
0.157159
0.169919
0.182764
0.192957
0.200375
0.205633
0.209283
0.211755
0.213339
0.214198
0.214482
0.214416
0.108374
0.108479
0.109533
0.111815
0.115508
0.12086
0.128364
0.138504
0.151574
0.167502
0.183323
0.195782
0.20483
0.211254
0.215731
0.218781
0.220742
0.221792
0.222132
0.222049
0.0887607
0.0889109
0.090378
0.0935458
0.0986
0.105811
0.115766
0.128939
0.145535
0.16533
0.184662
0.199757
0.210704
0.218505
0.223977
0.227736
0.230173
0.231478
0.231884
0.231775
0.0631384
0.0633764
0.0655555
0.0702078
0.0774062
0.087426
0.100875
0.118112
0.13916
0.163581
0.186962
0.205051
0.218174
0.227588
0.234259
0.238898
0.24193
0.24355
0.24404
0.243897
0.0284651
0.0289316
0.0325495
0.0399368
0.0507417
0.0651345
0.0835777
0.106178
0.132698
0.162493
0.190401
0.211796
0.227349
0.238622
0.246739
0.252497
0.256319
0.258356
0.258939
0.258747
-0.0212174
-0.0196452
-0.0122709
0.000697446
0.0177985
0.0389269
0.0642537
0.093613
0.126571
0.162359
0.195135
0.220044
0.238213
0.251557
0.261383
0.26855
0.273465
0.276138
0.276872
0.276605
-0.0951958
-0.0862705
-0.069464
-0.0464574
-0.0199125
0.0101708
0.043882
0.0810202
0.121138
0.163495
0.201613
0.230474
0.251714
0.267617
0.279711
0.288983
0.29569
0.299604
0.300827
0.300766
-0.173988
-0.154431
-0.127496
-0.0940933
-0.0578621
-0.0187019
0.0234799
0.068589
0.116286
0.165968
0.210492
0.244416
0.269752
0.289146
0.30433
0.316374
0.325599
0.33188
0.334165
0.334259
-0.237707
-0.215381
-0.180194
-0.138456
-0.0936815
-0.0461067
0.00416875
0.0569656
0.111952
0.168564
0.218981
0.257366
0.286146
0.308327
0.325812
0.339773
0.350591
0.357908
0.359945
0.360285
-0.289213
-0.264684
-0.224721
-0.177045
-0.125668
-0.0711588
-0.0138714
0.0458593
0.107546
0.170528
0.226186
0.268297
0.299702
0.32377
0.342616
0.357577
0.369094
0.376778
0.379286
0.379707
-0.331221
-0.30582
-0.262354
-0.210239
-0.153654
-0.0935776
-0.0304161
0.0353273
0.102979
0.171669
0.231929
0.277099
0.310422
0.335683
0.355266
0.370685
0.382441
0.390194
0.392925
0.3933
-0.36696
-0.341085
-0.295151
-0.239385
-0.178574
-0.113829
-0.045634
0.0253491
0.098302
0.172139
0.236484
0.28427
0.319155
0.345298
0.365301
0.380818
0.392538
0.400234
0.403125
0.4035
-0.398393
-0.372265
-0.324424
-0.265659
-0.201301
-0.132524
-0.0599365
0.0157211
0.0934849
0.172061
0.240261
0.290506
0.326785
0.35362
0.373887
0.389399
0.401044
0.40863
0.411615
0.411975
-0.426974
-0.400624
-0.351218
-0.289945
-0.222546
-0.150251
-0.0737401
0.00616068
0.0883824
0.171462
0.243345
0.295931
0.333551
0.361086
0.381658
0.397249
0.408846
0.41633
0.41934
0.419693
-0.453548
-0.427
-0.376257
-0.312819
-0.24276
-0.167369
-0.087357
-0.0035998
0.082771
0.170121
0.245643
0.300699
0.33981
0.368179
0.389147
0.404881
0.416492
0.4238
0.426793
0.427218
-0.478803
-0.451999
-0.400023
-0.334708
-0.262306
-0.184173
-0.101028
-0.0137543
0.0764779
0.168007
0.247303
0.305013
0.345785
0.375138
0.396632
0.412598
0.424251
0.431488
0.434381
0.434813
-0.503011
-0.475917
-0.422807
-0.355918
-0.281413
-0.200825
-0.114869
-0.0243806
0.0695086
0.165133
0.248269
0.308844
0.351533
0.382084
0.404281
0.420611
0.432393
0.439589
0.442345
0.442708
-0.526514
-0.499033
-0.445045
-0.376603
-0.300204
-0.217439
-0.128944
-0.0355102
0.0617829
0.161341
0.248413
0.312142
0.357072
0.389084
0.412179
0.429013
0.441
0.448183
0.450781
0.45105
-0.549351
-0.521413
-0.466746
-0.396843
-0.318777
-0.23408
-0.143307
-0.0472151
0.0532037
0.156558
0.247654
0.314799
0.362312
0.396096
0.420314
0.437805
0.45009
0.457276
0.459745
0.459862
-0.571585
-0.543326
-0.487848
-0.416682
-0.337152
-0.250741
-0.157965
-0.0595068
0.0437851
0.15074
0.245855
0.316669
0.367113
0.403034
0.42865
0.44697
0.459622
0.466792
0.469117
0.46909
-0.593321
-0.564623
-0.508402
-0.43612
-0.355314
-0.267398
-0.172866
-0.0723137
0.0335521
0.143837
0.242896
0.317566
0.371317
0.409787
0.437127
0.45646
0.469542
0.476661
0.47879
0.47863
-0.61456
-0.585367
-0.528418
-0.455144
-0.373213
-0.283997
-0.18794
-0.0855802
0.0225374
0.135834
0.238673
0.317279
0.374684
0.41619
0.445685
0.466252
0.479777
0.486758
0.488601
0.488321
-0.635142
-0.60549
-0.547853
-0.473713
-0.390798
-0.300458
-0.203119
-0.0992246
0.0108213
0.126772
0.233102
0.315612
0.376907
0.421979
0.454243
0.476387
0.490277
0.496875
0.498322
0.497921
-0.655029
-0.624954
-0.566688
-0.491768
-0.408004
-0.316721
-0.218308
-0.113151
-0.00149605
0.116702
0.226151
0.312389
0.377669
0.426778
0.46264
0.487078
0.501298
0.50694
0.50766
0.507162
-0.67428
-0.643706
-0.584887
-0.509274
-0.424774
-0.332703
-0.233412
-0.127245
-0.0143074
0.105719
0.217815
0.307484
0.376632
0.43004
0.47046
0.498568
0.513708
0.517441
0.51637
0.515758
-0.69274
-0.66175
-0.602395
-0.526166
-0.441049
-0.348322
-0.248336
-0.141394
-0.0274805
0.0939558
0.208154
0.300817
0.373517
0.431056
0.476781
0.510574
0.529008
0.53113
0.525862
0.523769
-0.710496
-0.679083
-0.619236
-0.542473
-0.45686
-0.363627
-0.263137
-0.155656
-0.0410815
0.0813469
0.197058
0.292154
0.368034
0.429003
0.479998
0.521447
0.547274
0.553494
0.543965
0.52792
-0.727489
-0.695706
-0.635539
-0.558372
-0.472489
-0.378934
-0.278211
-0.170504
-0.0556509
0.0672307
0.183819
0.280596
0.359376
0.42264
0.476868
0.525865
0.559046
0.564915
0.549245
0.530728
-0.743576
-0.711687
-0.651148
-0.573637
-0.487688
-0.393931
-0.293343
-0.185607
-0.0708542
0.0519372
0.168678
0.265976
0.347205
0.41154
0.462819
0.512221
0.543644
0.537126
0.468137
0.429032
-0.758361
-0.728136
-0.665658
-0.587696
-0.501781
-0.408141
-0.308258
-0.200729
-0.0864449
0.0356519
0.151715
0.248231
0.330891
0.396345
0.437808
0.46908
0.484575
0.440432
0.366
0.318742
-0.805924
-0.742878
-0.678812
-0.601725
-0.515891
-0.422734
-0.322942
-0.216063
-0.102685
0.0180576
0.132544
0.227188
0.308079
0.378751
0.391689
0.398066
0.370446
0.306283
0.223309
0.177388
-0.771568
-0.755632
-0.69774
-0.62218
-0.536478
-0.443889
-0.345191
-0.239501
-0.12793
-0.00997788
0.100486
0.190812
0.262006
0.328402
0.332351
0.217437
0.106244
0.029331
-0.0498691
-0.00519969
-0.800441
-0.771845
-0.713195
-0.63757
-0.55238
-0.460259
-0.361629
-0.256888
-0.146828
-0.0313765
0.0752591
0.160784
0.224149
0.257578
0.207012
0.048799
-0.0940107
-0.19712
-0.308172
-0.23715
-0.821959
-0.79074
-0.730902
-0.654967
-0.569986
-0.478098
-0.379812
-0.276182
-0.167928
-0.055502
0.0465964
0.125849
0.179107
0.181974
0.0646899
-0.137568
-0.312153
-0.450207
-0.615753
-0.540586
-0.842572
-0.810015
-0.749257
-0.672697
-0.587674
-0.496014
-0.398415
-0.296004
-0.189722
-0.0806475
0.0162285
0.0884557
0.128329
0.0923911
-0.0909645
-0.327791
-0.550117
-0.752479
-0.984103
-0.965381
-0.862195
-0.829538
-0.768157
-0.691053
-0.605962
-0.51459
-0.41777
-0.316663
-0.212552
-0.107126
-0.0159854
0.0487539
0.0705603
-0.00562296
-0.241727
-0.505753
-0.77188
-1.004
-1.32127
-1.63645
-0.881844
-0.849493
-0.787806
-0.710381
-0.625222
-0.534099
-0.437977
-0.338174
-0.23628
-0.134641
-0.0494194
0.00732687
0.0112591
-0.117915
-0.376268
-0.648959
-0.923156
-1.14071
-1.25171
-1.44766
-0.902181
-0.87015
-0.808448
-0.730952
-0.645833
-0.555039
-0.459683
-0.361316
-0.2619
-0.164456
-0.0856027
-0.0379894
-0.0588826
-0.242705
-0.497305
-0.756044
-0.988258
-1.12312
-1.1504
-1.17778
-0.92351
-0.89178
-0.830203
-0.752772
-0.667841
-0.577504
-0.483098
-0.386399
-0.289817
-0.197082
-0.125096
-0.0883106
-0.139363
-0.360288
-0.608074
-0.840139
-1.0233
-1.09558
-1.11018
-1.11323
-0.946
-0.914384
-0.85308
-0.775755
-0.691124
-0.601402
-0.508122
-0.413321
-0.319932
-0.232407
-0.167764
-0.143788
-0.223562
-0.473222
-0.712034
-0.920353
-1.06167
-1.08607
-1.08674
-1.08636
-0.96954
-0.937958
-0.877037
-0.799832
-0.715596
-0.626608
-0.534619
-0.441925
-0.35203
-0.270177
-0.213389
-0.20256
-0.312925
-0.581977
-0.813391
-0.98977
-1.05409
-1.07064
-1.07365
-1.07356
-0.993857
-0.962388
-0.901683
-0.824869
-0.741073
-0.652931
-0.562382
-0.471977
-0.38579
-0.309964
-0.261654
-0.261008
-0.413237
-0.687047
-0.919996
-1.04541
-1.07256
-1.07126
-1.06897
-1.06858
-1.01845
-0.987338
-0.926823
-0.850504
-0.767279
-0.680072
-0.591065
-0.503101
-0.420686
-0.351199
-0.311091
-0.325262
-0.506242
-0.784538
-1.04283
-1.11719
-1.09332
-1.08316
-1.07344
-1.0694
-1.04273
-1.01224
-0.95223
-0.876348
-0.793738
-0.707575
-0.620179
-0.534737
-0.456018
-0.393019
-0.359862
-0.395277
-0.584415
-0.845643
-1.1721
-1.27746
-1.19437
-1.10421
-1.06428
-1.05665
-1.06611
-1.03611
-0.977333
-0.901839
-0.819902
-0.734842
-0.649053
-0.566079
-0.490888
-0.433855
-0.40692
-0.458943
-0.663334
-0.830545
-1.13026
-1.37161
-1.25435
-1.18561
-1.14375
-1.11711
-1.0876
-1.05854
-1.00082
-0.926211
-0.845142
-0.761095
-0.676809
-0.59603
-0.524144
-0.471722
-0.452435
-0.51421
-0.752269
-0.780378
-0.616705
-0.808917
-1.23298
-1.47346
-1.45215
-1.4309
-1.10604
-1.07844
-1.02213
-0.948558
-0.868402
-0.78546
-0.702505
-0.623306
-0.554235
-0.504729
-0.495401
-0.564801
-0.883414
-0.955276
-0.559707
-0.706268
-1.24445
-1.43497
-1.44175
-1.46993
-1.12033
-1.09463
-1.04031
-0.967886
-0.888678
-0.806758
-0.724861
-0.646656
-0.578883
-0.531192
-0.531211
-0.624172
-1.14809
-1.89049
-2.56273
-3.03188
-3.00053
-2.52772
-2.08262
-2.00485
-1.12929
-1.10607
-1.05415
-0.983151
-0.904912
-0.823841
-0.742623
-0.664694
-0.595805
-0.548201
-0.549738
-0.694654
-1.43051
-2.65904
-3.91659
-4.34543
-4.27381
-3.86084
-3.35207
-3.07743
-1.13189
-1.11155
-1.0627
-0.993447
-0.916083
-0.835715
-0.75466
-0.675845
-0.603753
-0.548774
-0.540625
-0.65917
-1.30451
-2.15504
-3.09653
-3.52073
-3.42279
-3.038
-2.65829
-2.42864
-1.127
-1.11018
-1.06524
-0.997723
-0.921403
-0.841536
-0.760167
-0.679477
-0.601386
-0.532296
-0.493907
-0.478371
-0.669622
-0.791003
-0.746066
-0.598792
-0.297213
-0.0189781
0.179833
0.273176
-1.11395
-1.10043
-1.0601
-0.995526
-0.92002
-0.840748
-0.759288
-0.676169
-0.59057
-0.501034
-0.411593
-0.343768
-0.0975829
0.353491
0.898668
1.47115
1.89728
2.15416
2.27885
2.31439
-1.09222
-1.08237
-1.04708
-0.985488
-0.911168
-0.833428
-0.752913
-0.668266
-0.575131
-0.464803
-0.342303
-0.223547
0.031906
0.647184
1.3349
1.92827
2.3624
2.62022
2.74055
2.77556
-1.06116
-1.05467
-1.02443
-0.966018
-0.894624
-0.819924
-0.742579
-0.659556
-0.564446
-0.442762
-0.29796
-0.151989
0.0296709
0.530021
1.11451
1.60483
1.95882
2.16969
2.27417
2.30931
-1.01702
-1.01323
-0.988498
-0.935483
-0.869544
-0.80071
-0.730629
-0.65613
-0.56756
-0.442516
-0.277937
-0.114893
0.0368832
0.345545
0.762018
1.11727
1.39004
1.56006
1.65259
1.68559
-0.956944
-0.953986
-0.935114
-0.89142
-0.834884
-0.776877
-0.720363
-0.6626
-0.590536
-0.481303
-0.314927
-0.129728
0.0412194
0.190863
0.432576
0.664468
0.854681
0.981104
1.04723
1.06711
-0.877193
-0.875154
-0.862544
-0.832693
-0.792443
-0.751486
-0.714337
-0.680658
-0.642417
-0.574199
-0.436733
-0.245886
-0.0675214
0.0557139
0.20912
0.371082
0.497012
0.583201
0.636022
0.647282
-0.800938
-0.799182
-0.791886
-0.775421
-0.752976
-0.731562
-0.717523
-0.716632
-0.732677
-0.759774
-0.701072
-0.500514
-0.288098
-0.17994
-0.063414
0.0735055
0.187219
0.260088
0.295137
0.301326
-0.742602
-0.74181
-0.739096
-0.73261
-0.724838
-0.722197
-0.73434
-0.778614
-0.884949
-1.07075
-1.1645
-0.922322
-0.623953
-0.46533
-0.332887
-0.191806
-0.0771956
-0.00251331
0.0319328
0.0339039
-0.69521
-0.695997
-0.696342
-0.696487
-0.699992
-0.713723
-0.751878
-0.845449
-1.06162
-1.45673
-1.7459
-1.46898
-1.04553
-0.7994
-0.600828
-0.417843
-0.285041
-0.205636
-0.175921
-0.176995
-0.639255
-0.641148
-0.643871
-0.648573
-0.660108
-0.683036
-0.740403
-0.868381
-1.15662
-1.69363
-2.10266
-1.79
-1.34634
-1.05003
-0.793543
-0.590116
-0.458661
-0.393939
-0.37336
-0.373788
-0.562914
-0.565202
-0.568986
-0.575793
-0.589645
-0.618122
-0.677592
-0.807463
-1.09416
-1.62013
-1.97834
-1.72981
-1.35725
-1.07122
-0.814676
-0.652102
-0.573704
-0.546982
-0.537094
-0.53482
-0.466437
-0.468494
-0.472151
-0.478585
-0.490887
-0.514898
-0.562945
-0.664824
-0.885623
-1.28274
-1.54096
-1.38614
-1.11843
-0.862093
-0.686137
-0.601631
-0.586532
-0.588924
-0.586218
-0.583332
-0.359398
-0.360787
-0.3635
-0.367893
-0.376094
-0.391365
-0.420832
-0.481192
-0.607986
-0.832105
-0.969875
-0.861774
-0.692024
-0.541981
-0.479389
-0.478919
-0.497529
-0.509786
-0.511322
-0.509949
-0.25504
-0.255693
-0.257222
-0.259447
-0.263262
-0.269903
-0.282143
-0.306022
-0.353295
-0.430445
-0.46482
-0.392259
-0.311675
-0.283469
-0.303421
-0.337597
-0.361807
-0.373735
-0.376879
-0.376826
-0.164209
-0.164321
-0.164943
-0.16567
-0.166496
-0.167337
-0.168394
-0.170021
-0.17253
-0.170211
-0.147111
-0.112915
-0.0991019
-0.132487
-0.174362
-0.208593
-0.228803
-0.238597
-0.242564
-0.243341
-0.0925301
-0.0923615
-0.0925199
-0.0925622
-0.0920377
-0.0902938
-0.0864483
-0.0789827
-0.0657705
-0.0434164
-0.0181917
-0.00837227
-0.0161902
-0.0520881
-0.087594
-0.112872
-0.127509
-0.134924
-0.138339
-0.139317
-0.0406008
-0.0403511
-0.0403645
-0.0402931
-0.0395131
-0.0372438
-0.0324903
-0.0236343
-0.00896319
0.0118132
0.0280275
0.0271007
0.0136286
-0.0116739
-0.0355269
-0.0521973
-0.0619569
-0.0670718
-0.0696029
-0.0704254
-0.00577293
-0.00555349
-0.00557622
-0.00563054
-0.00512028
-0.0032877
0.000706887
0.00795117
0.0192873
0.0336475
0.0418303
0.0377227
0.0253431
0.00880957
-0.00612526
-0.0167365
-0.0231764
-0.026651
-0.0283701
-0.0289285
0.015847
0.0159955
0.0159128
0.0156666
0.0157936
0.0168929
0.0195989
0.0246155
0.0321679
0.0408236
0.0440349
0.039393
0.0300241
0.0193156
0.00994462
0.00309143
-0.00126269
-0.00366394
-0.00481348
-0.00517498
0.0280524
0.0281303
0.0279871
0.0276008
0.0274098
0.0278727
0.0294005
0.03238
0.0368267
0.0415067
0.0421775
0.0379931
0.0313428
0.0242869
0.0182152
0.013653
0.0106222
0.00892221
0.00814766
0.00791032
0.0339154
0.0339404
0.0337583
0.0332913
0.0329065
0.0329127
0.0335927
0.0351401
0.037442
0.0395846
0.0390196
0.0354855
0.0307511
0.0259803
0.0219081
0.0187752
0.0166185
0.0153953
0.0148632
0.0147045
0.0356638
0.0356566
0.0354526
0.0349586
0.0344655
0.0341757
0.0342721
0.0348567
0.0358131
0.0364742
0.0353529
0.032468
0.0290361
0.0257129
0.0228893
0.0206818
0.0191235
0.0182346
0.0178642
0.0177543
0.0347967
0.0347731
0.0345688
0.0340936
0.0335631
0.0331172
0.0328702
0.0328634
0.032995
0.0328253
0.0315276
0.0292115
0.0266651
0.0242806
0.022267
0.0206764
0.0195345
0.0188821
0.0186204
0.0185455
0.0323002
0.032271
0.0320826
0.0316515
0.0311337
0.0306281
0.0302059
0.0298829
0.0295769
0.0289888
0.0276817
0.0258185
0.0238954
0.0221455
0.0206775
0.0195118
0.0186664
0.018184
0.0179965
0.0179443
0.0288072
0.0287786
0.0286151
0.0282402
0.0277673
0.0272655
0.0267781
0.026307
0.0257927
0.0250395
0.0238336
0.0223448
0.0208798
0.0195766
0.018491
0.0176278
0.0169982
0.0166397
0.0165041
0.0164672
0.0247175
0.0246925
0.0245579
0.0242453
0.023835
0.0233788
0.0229008
0.0223977
0.0218266
0.021058
0.0200046
0.0188256
0.0177099
0.0167349
0.0159278
0.0152862
0.0148169
0.0145505
0.0144523
0.0144262
0.0202796
0.0202594
0.0201536
0.0199031
0.0195636
0.0191754
0.018751
0.0182862
0.0177502
0.0170598
0.016191
0.0152787
0.0144404
0.0137183
0.0131231
0.0126493
0.0123018
0.0121057
0.0120354
0.0120169
0.015643
0.0156277
0.0155488
0.0153571
0.0150914
0.0147833
0.0144398
0.0140562
0.0136116
0.0130529
0.0123848
0.0117125
0.0111072
0.0105898
0.0101632
0.0098216
0.00956984
0.00942894
0.00937988
0.00936701
0.0108944
0.0108835
0.0108283
0.0106911
0.0104995
0.0102786
0.0100323
0.00975606
0.00943611
0.0090409
0.00858248
0.00813279
0.00773272
0.00739094
0.00710673
0.00687557
0.00670281
0.00660656
0.00657386
0.00656494
0.00608011
0.00607292
0.0060398
0.00595533
0.00584108
0.00571472
0.00557606
0.00542161
0.00524366
0.00502657
0.00477806
0.0045367
0.00432315
0.00414022
0.00398581
0.0038561
0.0037553
0.00369885
0.00367979
0.00367325
0.00123907
0.00124174
0.0012563
0.00126194
0.00124293
0.00121232
0.0011767
0.00113777
0.0010933
0.00103952
0.000975942
0.000911446
0.000854361
0.000805331
0.000764416
0.000731143
0.000706877
0.000699481
0.000710365
0.000718241
-0.735463
-0.494002
-0.242937
-0.0379165
0.127814
0.261532
0.374861
0.46989
0.510361
0.494857
-0.320391
-0.166443
-0.00871457
0.127446
0.242974
0.339836
0.418384
0.474108
0.503843
0.515918
-0.0475157
0.0544846
0.159707
0.253904
0.33516
0.403303
0.457361
0.497137
0.525365
0.542474
0.143023
0.213139
0.28709
0.354602
0.413216
0.462767
0.503241
0.535452
0.560595
0.57837
0.287416
0.337468
0.391687
0.441803
0.486254
0.524778
0.557461
0.584557
0.606035
0.623657
0.403645
0.440885
0.484221
0.523887
0.560091
0.592369
0.620381
0.643843
0.66198
0.679423
0.503526
0.534934
0.572177
0.607029
0.639236
0.66835
0.693717
0.714693
0.730052
0.747458
0.596725
0.627711
0.663602
0.697397
0.728433
0.75626
0.780164
0.799336
0.812502
0.829982
0.694888
0.729339
0.766922
0.801676
0.832608
0.859527
0.88206
0.899619
0.911417
0.929261
0.811555
0.850518
0.889442
0.924339
0.954151
0.979287
0.999963
1.01597
1.02753
1.04592
0.957427
0.997298
1.03307
1.0638
1.0897
1.11204
1.13128
1.14699
1.15978
1.17795
1.13248
1.1649
1.19096
1.21347
1.2337
1.25261
1.27037
1.28702
1.30286
1.32108
1.32043
1.33815
1.35389
1.37063
1.38689
1.40153
1.41464
1.42868
1.44582
1.46553
1.50246
1.51336
1.52556
1.5364
1.54569
1.55534
1.56633
1.57798
1.58796
1.60316
1.71348
1.71553
1.70039
1.68519
1.67889
1.68462
1.70324
1.73369
1.76586
1.79662
2.0194
1.88237
1.80614
1.76416
1.74673
1.75078
1.77818
1.83432
1.93778
2.15307
0.308873
0.305502
0.299586
0.289795
0.276871
0.264474
0.25419
0.246257
0.240588
0.237245
0.236734
0.239263
0.244182
0.25126
0.260555
0.272129
0.285178
0.297111
0.304533
0.30923
0.22684
0.23273
0.239664
0.244935
0.247815
0.247524
0.244656
0.240766
0.2372
0.234837
0.234515
0.236507
0.239973
0.244121
0.247901
0.249769
0.248551
0.244373
0.23841
0.231333
0.219136
0.221485
0.224872
0.227838
0.230116
0.231976
0.232993
0.232774
0.231727
0.230734
0.230722
0.231922
0.233504
0.234553
0.234387
0.23304
0.231082
0.228613
0.225365
0.222363
0.213938
0.215021
0.216943
0.219418
0.221475
0.222947
0.224095
0.224976
0.225444
0.225622
0.225917
0.226408
0.226646
0.226347
0.225596
0.224513
0.222911
0.220673
0.218424
0.216967
0.208802
0.209444
0.210635
0.212517
0.214496
0.216268
0.217645
0.218717
0.219611
0.220338
0.220845
0.22102
0.220831
0.220317
0.219444
0.218099
0.216355
0.214503
0.212979
0.212151
0.203929
0.204352
0.205235
0.206761
0.208509
0.210289
0.21197
0.213397
0.214548
0.215475
0.216105
0.216282
0.216001
0.215274
0.214109
0.212647
0.211075
0.209552
0.208381
0.207824
0.199413
0.199703
0.200422
0.201804
0.203445
0.205123
0.206839
0.208495
0.209927
0.211049
0.211813
0.212061
0.211706
0.21083
0.209618
0.208267
0.206857
0.205469
0.204475
0.20407
0.195295
0.195472
0.196054
0.197297
0.19881
0.20034
0.201828
0.203329
0.204838
0.206225
0.207195
0.207449
0.207133
0.20647
0.205596
0.204519
0.203289
0.202066
0.20123
0.200953
0.19195
0.192032
0.192481
0.193597
0.195029
0.196531
0.198105
0.199663
0.201154
0.20255
0.203676
0.204237
0.204219
0.203737
0.202911
0.201921
0.200828
0.199751
0.199081
0.198915
0.189442
0.189479
0.189766
0.190553
0.191661
0.192857
0.19414
0.195565
0.197131
0.198728
0.200099
0.200896
0.201099
0.200933
0.20053
0.199961
0.199258
0.198581
0.198196
0.198107
0.18698
0.187008
0.187194
0.187673
0.188423
0.189359
0.190494
0.191842
0.193383
0.195094
0.196754
0.197945
0.198577
0.198785
0.198725
0.19851
0.198264
0.198006
0.197858
0.197802
0.18386
0.183884
0.184035
0.184392
0.184976
0.185784
0.186863
0.188261
0.189999
0.192004
0.194049
0.19563
0.196576
0.197115
0.197305
0.197418
0.197484
0.197483
0.197448
0.197411
0.179945
0.179957
0.180098
0.180451
0.180985
0.181781
0.1829
0.184392
0.186309
0.18864
0.191162
0.193264
0.194675
0.195585
0.1962
0.196586
0.196832
0.196941
0.196954
0.196934
0.175399
0.1754
0.175539
0.175949
0.176615
0.177497
0.178783
0.180524
0.182792
0.185592
0.188731
0.19144
0.193353
0.194643
0.195512
0.196083
0.196434
0.196589
0.196642
0.196645
0.170299
0.170287
0.170426
0.170877
0.171636
0.172809
0.174294
0.176324
0.179018
0.18244
0.186345
0.189802
0.192317
0.194083
0.195279
0.19608
0.196528
0.196762
0.196872
0.196892
0.164628
0.164603
0.164757
0.165262
0.166162
0.167474
0.169334
0.171776
0.175054
0.17927
0.184134
0.188518
0.191752
0.194025
0.195603
0.196659
0.197292
0.197653
0.19783
0.197862
0.158164
0.158132
0.158323
0.158891
0.159931
0.161489
0.163677
0.166702
0.170759
0.175993
0.182072
0.18758
0.191661
0.194576
0.196623
0.197981
0.19885
0.19937
0.199618
0.19966
0.150562
0.150524
0.150756
0.151463
0.152678
0.154534
0.157224
0.16098
0.166035
0.172574
0.180174
0.187066
0.192179
0.195885
0.198446
0.200184
0.201328
0.202028
0.20235
0.202401
0.141405
0.141358
0.141658
0.142516
0.144046
0.146367
0.149728
0.154432
0.160782
0.168985
0.178479
0.187053
0.193449
0.198029
0.201227
0.203414
0.204872
0.205769
0.206173
0.206235
0.130263
0.130207
0.130615
0.131729
0.133656
0.136603
0.140877
0.146856
0.1549
0.165211
0.177046
0.18767
0.195549
0.2012
0.205157
0.207873
0.209695
0.21082
0.211322
0.211397
0.116458
0.11639
0.116953
0.118434
0.12096
0.124798
0.130343
0.138047
0.148291
0.161257
0.175956
0.189028
0.198678
0.205597
0.210452
0.213797
0.216051
0.217447
0.21807
0.218158
0.0990436
0.0989688
0.0997773
0.10181
0.105211
0.110346
0.117687
0.12773
0.140857
0.157165
0.175325
0.191286
0.203012
0.211427
0.217351
0.221453
0.224231
0.225955
0.226726
0.226829
0.0766124
0.0765504
0.0777687
0.0806519
0.085393
0.0924731
0.102412
0.115691
0.132595
0.153041
0.175306
0.194608
0.208726
0.218885
0.226085
0.231111
0.23454
0.236672
0.237615
0.237737
0.0467954
0.0467958
0.0487556
0.0531202
0.0601413
0.0703336
0.0841435
0.101889
0.123642
0.149096
0.176102
0.199163
0.21597
0.228126
0.236838
0.243004
0.247263
0.249919
0.25108
0.251221
0.00535897
0.00558843
0.00921054
0.0166742
0.0279077
0.0432436
0.062785
0.0865461
0.11434
0.145651
0.177945
0.205092
0.224822
0.239202
0.249673
0.257246
0.262604
0.265967
0.267395
0.267547
-0.055487
-0.0538955
-0.0452361
-0.0311454
-0.0121378
0.0113633
0.0389113
0.0703158
0.105245
0.143084
0.181022
0.21243
0.235214
0.251965
0.264391
0.273631
0.280344
0.284678
0.286519
0.28671
-0.128596
-0.125701
-0.109323
-0.0846373
-0.0551092
-0.0221441
0.0141511
0.0537354
0.0963447
0.141454
0.186054
0.222918
0.249944
0.270218
0.285677
0.297594
0.306769
0.312556
0.31461
0.315183
-0.203497
-0.195053
-0.170871
-0.1361
-0.0969229
-0.0547695
-0.00981193
0.0379131
0.0882016
0.140607
0.191938
0.234316
0.265579
0.28933
0.307803
0.322371
0.333761
0.341048
0.344574
0.34566
-0.261579
-0.251857
-0.222811
-0.181356
-0.134747
-0.0849127
-0.0322815
0.0229254
0.0804106
0.13967
0.197212
0.244453
0.279222
0.305623
0.326153
0.342343
0.354951
0.363514
0.367971
0.369276
-0.308654
-0.298375
-0.265935
-0.219742
-0.167608
-0.111734
-0.052775
0.00889962
0.0727941
0.138259
0.201363
0.252767
0.29029
0.318527
0.340284
0.357329
0.370586
0.379891
0.384699
0.386025
-0.347618
-0.337273
-0.302753
-0.252903
-0.196301
-0.13556
-0.0713495
-0.0041345
0.0653939
0.136393
0.204464
0.259439
0.299135
0.328679
0.351199
0.368648
0.382082
0.391488
0.396288
0.397734
-0.381402
-0.371076
-0.335015
-0.282256
-0.221994
-0.15716
-0.0884133
-0.0163804
0.0581585
0.134171
0.206755
0.264978
0.306625
0.337263
0.360311
0.377922
0.391354
0.400747
0.405554
0.406966
-0.411548
-0.401274
-0.364065
-0.308884
-0.245601
-0.177236
-0.104527
-0.028183
0.0509134
0.131576
0.208464
0.269788
0.313229
0.344826
0.368313
0.386082
0.39949
0.408868
0.413701
0.414991
-0.439254
-0.42899
-0.390848
-0.333634
-0.267761
-0.196311
-0.120091
-0.03986
0.0434216
0.128462
0.209458
0.273803
0.31909
0.351733
0.375759
0.393743
0.407215
0.41658
0.421419
0.422565
-0.465277
-0.455002
-0.416033
-0.357049
-0.288884
-0.214736
-0.135408
-0.0516762
0.0354586
0.124611
0.209665
0.277202
0.324525
0.358367
0.383041
0.401334
0.414913
0.424254
0.42907
0.43012
-0.490081
-0.479764
-0.440044
-0.379517
-0.309343
-0.232787
-0.150678
-0.063783
0.0269028
0.120021
0.209169
0.280045
0.329602
0.364855
0.390348
0.409077
0.422852
0.432215
0.436995
0.438003
-0.514025
-0.503613
-0.463132
-0.401323
-0.329309
-0.250598
-0.166005
-0.0762408
0.0177524
0.114647
0.207839
0.282238
0.334305
0.371241
0.397775
0.417101
0.431185
0.44063
0.445305
0.446294
-0.537302
-0.526722
-0.485583
-0.422577
-0.348893
-0.268284
-0.181466
-0.0890987
0.0079169
0.108354
0.205567
0.283706
0.3386
0.377515
0.405344
0.425453
0.43996
0.449546
0.454119
0.455071
-0.559931
-0.549162
-0.507494
-0.443318
-0.36817
-0.28588
-0.197084
-0.102404
-0.0026565
0.101105
0.202273
0.284317
0.342378
0.383625
0.413032
0.434125
0.449172
0.45893
0.46341
0.464244
-0.582045
-0.571054
-0.528812
-0.463565
-0.387146
-0.303376
-0.212846
-0.116125
-0.013918
0.0929034
0.197861
0.283911
0.345449
0.38944
0.420768
0.443068
0.45877
0.46872
0.473071
0.473768
-0.60358
-0.592369
-0.549555
-0.483345
-0.4058
-0.320735
-0.228689
-0.130189
-0.0258228
0.0837394
0.192266
0.282328
0.347593
0.394754
0.428441
0.452243
0.468715
0.478845
0.483026
0.483534
-0.624543
-0.61309
-0.569697
-0.502625
-0.424093
-0.337901
-0.24455
-0.144524
-0.0383088
0.0736559
0.185451
0.279417
0.348578
0.399323
0.435917
0.461629
0.478975
0.48914
0.492986
0.493291
-0.644797
-0.63316
-0.589201
-0.521364
-0.441959
-0.354792
-0.260357
-0.159052
-0.0512804
0.0627365
0.177409
0.275056
0.348142
0.402822
0.442977
0.471259
0.489686
0.499584
0.502777
0.502807
-0.664425
-0.652538
-0.608044
-0.53953
-0.459363
-0.371367
-0.276015
-0.173674
-0.0646318
0.0510822
0.168183
0.269159
0.34604
0.404814
0.449203
0.48112
0.501318
0.510527
0.512229
0.511759
-0.683309
-0.671166
-0.626201
-0.557067
-0.476227
-0.387544
-0.291438
-0.188268
-0.0782435
0.0387874
0.157859
0.261691
0.342088
0.404825
0.453897
0.490842
0.514575
0.523472
0.522038
0.519821
-0.701475
-0.689122
-0.643623
-0.57393
-0.492513
-0.403255
-0.306545
-0.202751
-0.0919945
0.0260117