/*--------------------------------*- C++ -*----------------------------------*\
| =========                 |                                                 |
| \\      /  F ield         | OpenFOAM: The Open Source CFD Toolbox           |
|  \\    /   O peration     | Version:  2306                                  |
|   \\  /    A nd           | Website:  www.openfoam.com                      |
|    \\/     M anipulation  |                                                 |
\*---------------------------------------------------------------------------*/
FoamFile
{
    version     2.0;
    format      ascii;
    arch        "LSB;label=32;scalar=64";
    class       surfaceScalarField;
    location    "18";
    object      phi;
}
// * * * * * * * * * * * * * * * * * * * * * * * * * * * * * * * * * * * * * //

dimensions      [0 3 -1 0 0 0 0];

oriented        oriented;

internalField   nonuniform List<scalar> 
17370
(
-0.0910948
0.0935396
0.286566
-0.0749456
0.0569432
0.364778
-0.0409252
0.0299421
0.427151
-0.0211863
0.015582
0.504856
-0.0113209
0.00860495
0.602118
-0.00645435
0.00499478
0.720517
-0.0037828
0.00293039
0.863759
-0.00219013
0.00163887
1.036
-0.00113087
0.000726862
1.24291
-0.000327317
-5.74576e-05
1.49158
0.000436578
-0.00083776
1.49159
0.00123785
-0.0017396
1.24319
0.00228353
-0.00301481
1.03637
0.00385945
-0.0050631
0.86411
0.00651661
-0.0086631
0.721204
0.011374
-0.0156283
0.603469
0.0212266
-0.0299761
0.508189
0.0409538
-0.0569663
0.432181
0.0749636
-0.0935503
0.365362
0.0911036
0.197907
-0.12736
0.0881724
0.0391877
-0.36475
0.353818
-0.0725919
0.0835243
-0.446572
0.454381
-0.0816455
0.0738367
-0.520965
0.529541
-0.0657144
0.0571378
-0.612832
0.621018
-0.0493652
0.0411795
-0.726995
0.733767
-0.034247
0.0274748
-0.867525
0.872421
-0.0221605
0.0172648
-1.03855
1.04186
-0.013579
0.0102631
-1.24469
1.24706
-0.00773961
0.00536537
-1.4928
1.49476
-0.00343527
0.00147217
-1.49264
1.4944
0.000287851
-0.00204809
-1.24408
1.24599
0.00399532
-0.00590233
-1.03759
1.04008
0.00824499
-0.0107382
-0.866176
0.869827
0.0140198
-0.0176713
-0.724503
0.729782
0.0225263
-0.0278049
-0.608888
0.615794
0.0345458
-0.0414527
-0.514991
0.522737
0.0496091
-0.0573554
-0.439778
0.447878
0.0659041
-0.0740041
-0.375184
0.377032
0.0817865
-0.0836342
-0.25696
0.22351
0.0726661
-0.0392161
-0.0686965
0.0589947
0.00970189
-0.0519219
0.0585855
-0.37458
0.367917
-0.0576793
0.0538479
-0.45385
0.457682
-0.0484994
0.0441664
-0.527772
0.532105
-0.0399411
0.0361458
-0.621106
0.624901
-0.0319091
0.0278394
-0.734838
0.738908
-0.0233883
0.0194252
-0.873973
0.877936
-0.0153462
0.0118974
-1.0433
1.04675
-0.00843118
0.00547162
-1.24856
1.25152
-0.00236002
-0.000535053
-1.49681
1.4997
0.00341766
-0.00650103
-1.49732
1.5004
0.00941555
-0.012825
-1.25002
1.25343
0.0162166
-0.0202291
-1.04567
1.04969
0.0241301
-0.0285135
-0.87732
0.881704
0.0325212
-0.0366928
-0.739364
0.743536
0.0404339
-0.0446057
-0.62643
0.630602
0.0488947
-0.0542002
-0.535025
0.54033
0.0579865
-0.0588378
-0.458006
0.458857
0.0521112
-0.0318709
-0.336551
0.316311
0.00973292
-0.0686092
0.0588763
-0.0532651
0.0492571
0.00400792
-0.0328726
0.0432538
-0.3585
0.348118
-0.0468972
0.046279
-0.45953
0.460148
-0.0432929
0.0400335
-0.536007
0.539266
-0.0363353
0.033019
-0.628426
0.631742
-0.0294828
0.0263601
-0.742217
0.74534
-0.0230399
0.0199507
-0.881472
0.884561
-0.0164839
0.0132416
-1.0502
1.05345
-0.00966794
0.00638311
-1.25473
1.25801
-0.00271734
-0.000806072
-1.50296
1.50648
0.00430737
-0.00791457
-1.50382
1.50743
0.0111326
-0.0146152
-1.25699
1.26048
0.0177676
-0.0211314
-1.05346
1.05682
0.0241275
-0.0273475
-0.885345
0.888565
0.0303846
-0.0338361
-0.747069
0.750521
0.0370777
-0.0406983
-0.634623
0.638244
0.0438931
-0.0468092
-0.544566
0.547482
0.0473564
-0.0436164
-0.4571
0.45336
0.0331228
-0.0160152
-0.297113
0.280005
0.00404575
-0.0531121
0.0490664
-0.0461902
0.0437329
0.00245723
-0.0224247
0.0325787
-0.337639
0.327485
-0.0382087
0.0391163
-0.459922
0.459015
-0.0378347
0.035496
-0.541951
0.54429
-0.0328263
0.0302778
-0.634694
0.637242
-0.0273403
0.0245931
-0.748307
0.751055
-0.0215209
0.018704
-0.887453
0.89027
-0.0155813
0.0126639
-1.05647
1.05939
-0.009341
0.00615593
-1.26127
1.26446
-0.00247419
-0.00110625
-1.51011
1.51369
0.00466597
-0.00827561
-1.51109
1.5147
0.0113617
-0.014559
-1.26381
1.267
0.017357
-0.0203461
-1.05991
1.06289
0.0230409
-0.0259811
-0.891648
0.894589
0.0286107
-0.0314251
-0.753701
0.756515
0.033869
-0.0364319
-0.641302
0.643865
0.0386833
-0.039855
-0.549416
0.550588
0.0388372
-0.0330542
-0.448375
0.442592
0.0227386
-0.00992168
-0.265146
0.252329
0.00250349
-0.0459574
0.0434539
-0.0417152
0.0400323
0.00168282
-0.0159952
0.0248573
-0.317909
0.309047
-0.0311726
0.0332149
-0.457488
0.455446
-0.032835
0.0312641
-0.546243
0.547814
-0.0292006
0.027195
-0.63947
0.641476
-0.0248765
0.0226295
-0.753541
0.755788
-0.0199775
0.0174003
-0.892994
0.895572
-0.0144257
0.0116168
-1.06227
1.06508
-0.0084283
0.00540347
-1.26756
1.27059
-0.00192614
-0.00145025
-1.51717
1.52054
0.00479692
-0.00818409
-1.51821
1.52159
0.0110862
-0.0141128
-1.27013
1.27316
0.0167577
-0.0195457
-1.06582
1.06861
0.0219539
-0.0244289
-0.897312
0.899787
0.0265268
-0.0286929
-0.75896
0.761127
0.0305616
-0.0324877
-0.646078
0.648004
0.0339381
-0.0341751
-0.551219
0.551456
0.0319744
-0.0254474
-0.436319
0.429792
0.0163768
-0.0068775
-0.241301
0.231801
0.00173858
-0.0413858
0.0396472
-0.0386193
0.0374371
0.00118225
-0.0114925
0.0187414
-0.300971
0.293722
-0.024912
0.0275706
-0.453029
0.450371
-0.0277483
0.0267053
-0.549088
0.550131
-0.0249222
0.0232074
-0.643299
0.645013
-0.0212513
0.0193497
-0.757866
0.759767
-0.0171544
0.0150233
-0.897953
0.900084
-0.0125407
0.0101119
-1.06773
1.07016
-0.00727161
0.00451141
-1.27349
1.27625
-0.00128499
-0.00188625
-1.52381
1.52699
0.00501261
-0.00811746
-1.52484
1.52795
0.0107209
-0.0133551
-1.27602
1.27865
0.0155796
-0.01783
-1.07116
1.07341
0.0197503
-0.0217141
-0.902016
0.90398
0.023402
-0.0251496
-0.76307
0.764818
0.0266878
-0.0282983
-0.649733
0.651343
0.0291658
-0.0287884
-0.551363
0.550986
0.0259072
-0.0194554
-0.423213
0.416761
0.0119489
-0.00492646
-0.22362
0.216597
0.00124948
-0.0381728
0.0369233
-0.0364511
0.0356309
0.000820207
-0.0080223
0.0136197
-0.287308
0.281711
-0.0191162
0.0219826
-0.447576
0.44471
-0.0226186
0.0220136
-0.550956
0.551561
-0.0205069
0.0190357
-0.646638
0.648109
-0.0173973
0.0158611
-0.761482
0.763018
-0.0140923
0.012372
-0.901963
0.903683
-0.0103302
0.00829039
-1.07236
1.0744
-0.00584681
0.0033997
-1.27886
1.28131
-0.000479076
-0.00239108
-1.53004
1.53291
0.00521005
-0.00796934
-1.5309
1.53366
0.0102145
-0.0123974
-1.28104
1.28322
0.0141717
-0.0159166
-1.07535
1.0771
0.0173599
-0.0188306
-0.905669
0.90714
0.0201036
-0.0214689
-0.766385
0.76775
0.022723
-0.0240013
-0.652839
0.654117
0.0243807
-0.0234762
-0.550353
0.549448
0.0203213
-0.0144757
-0.410573
0.404727
0.00856971
-0.00349793
-0.210601
0.20553
0.000902552
-0.0358627
0.0349601
-0.0349688
0.0344703
0.000498466
-0.00498468
0.00896243
-0.27692
0.272942
-0.0135283
0.0164327
-0.441803
0.438899
-0.017649
0.0175759
-0.551928
0.552001
-0.0167474
0.0157668
-0.649353
0.650333
-0.0145754
0.0133722
-0.764374
0.765577
-0.0118876
0.0103515
-0.905318
0.906854
-0.00845842
0.00656169
-1.07636
1.07826
-0.00429718
0.00208032
-1.28362
1.28584
0.000515717
-0.0030282
-1.53558
1.53809
0.00548195
-0.0078975
-1.53623
1.53864
0.00986193
-0.011784
-1.28527
1.28719
0.0133432
-0.0148429
-1.07873
1.08023
0.0160215
-0.0171313
-0.90843
0.90954
0.0180166
-0.018852
-0.768866
0.769702
0.0195304
-0.0200502
-0.655043
0.655563
0.0198247
-0.018246
-0.548218
0.546639
0.0149691
-0.00997791
-0.399275
0.394284
0.00563748
-0.00226275
-0.201325
0.19795
0.000599127
-0.0342067
0.0336076
-0.0341371
0.0339542
0.000182913
-0.00236975
0.00479095
-0.269774
0.267353
-0.00812085
0.0107101
-0.436087
0.433497
-0.0122883
0.0127127
-0.551772
0.551348
-0.0124499
0.011833
-0.651101
0.651718
-0.0109617
0.0100251
-0.766656
0.767593
-0.00884348
0.00761402
-0.908247
0.909476
-0.00610286
0.00453562
-1.08002
1.08159
-0.00262222
0.0006988
-1.28794
1.28986
0.0015917
-0.00384621
-1.54049
1.54274
0.00601317
-0.00804712
-1.54089
1.54293
0.00963425
-0.0111033
-1.28893
1.29039
0.0122186
-0.0132306
-1.08151
1.08253
0.0139923
-0.0146616
-0.910472
0.911141
0.0151728
-0.0156423
-0.770316
0.770786
0.0158914
-0.0157387
-0.655693
0.65554
0.0149324
-0.0129019
-0.544757
0.542726
0.00986651
-0.00603469
-0.389842
0.38601
0.00317802
-0.00120576
-0.19534
0.193368
0.000307978
-0.033163
0.032855
-0.0338856
0.0338874
-1.82791e-06
-0.000906513
0.00227277
-0.265546
0.26418
-0.00443788
0.00633811
-0.431241
0.429341
-0.00766349
0.00811149
-0.550859
0.550411
-0.00805774
0.00768575
-0.652206
0.652578
-0.00709967
0.00642783
-0.768379
0.769051
-0.00554858
0.00461204
-0.910548
0.911485
-0.00341257
0.00217271
-1.08296
1.0842
-0.000631732
-0.000959624
-1.29158
1.29318
0.00290017
-0.00480775
-1.54482
1.54673
0.00660428
-0.00822848
-1.54473
1.54636
0.00940132
-0.0104021
-1.29161
1.29261
0.0110928
-0.0116483
-1.08328
1.08383
0.0120086
-0.0122802
-0.911555
0.911826
0.0123984
-0.0124348
-0.771052
0.771088
0.0123662
-0.0119295
-0.655221
0.654784
0.0110044
-0.00910989
-0.540726
0.538831
0.00664537
-0.00384573
-0.382758
0.379958
0.00192699
-0.000684134
-0.191853
0.190611
0.000155097
-0.0326473
0.0324922
-0.033923
0.0339788
-5.58168e-05
-0.000392437
0.0013106
-0.263092
0.262174
-0.00288835
0.00435371
-0.42772
0.426255
-0.00541542
0.00577226
-0.550029
0.549673
-0.00572601
0.00537022
-0.652903
0.653258
-0.0047947
0.00420154
-0.769685
0.770278
-0.00345437
0.00263699
-0.912331
0.913149
-0.00157547
0.000432315
-1.08534
1.08649
0.00101732
-0.00250884
-1.29468
1.29617
0.00429591
-0.00600744
-1.54851
1.55022
0.00759312
-0.00899607
-1.54785
1.54926
0.00998534
-0.0107816
-1.29348
1.29427
0.0112997
-0.0116572
-1.08429
1.08464
0.0118373
-0.0119057
-0.911978
0.912046
0.0118424
-0.0115995
-0.770937
0.770694
0.0112585
-0.0106276
-0.654235
0.653605
0.00963065
-0.00782203
-0.537021
0.535212
0.00563875
-0.00326788
-0.377448
0.375077
0.00166292
-0.000606696
-0.189503
0.188447
0.000140751
-0.0323558
0.032215
-0.0340417
0.034112
-7.02955e-05
-0.000139718
0.000849965
-0.261356
0.260646
-0.00225314
0.0037419
-0.42482
0.423331
-0.00502745
0.00560432
-0.549273
0.548696
-0.00563822
0.00536574
-0.653655
0.653927
-0.00489546
0.00429029
-0.770891
0.771496
-0.0034439
0.00245488
-0.914022
0.915011
-0.00112868
-0.000293697
-1.08769
1.08912
0.00204792
-0.00377122
-1.29771
1.29943
0.00574408
-0.00759312
-1.55193
1.55378
0.00928366
-0.0107684
-1.55065
1.55213
0.0118194
-0.0126812
-1.29505
1.29592
0.0131959
-0.0134774
-1.0849
1.08518
0.0134822
-0.0133321
-0.912017
0.911866
0.0131209
-0.0128292
-0.770424
0.770132
0.0124568
-0.0115693
-0.65291
0.652022
0.0102171
-0.00801704
-0.533294
0.531094
0.00564421
-0.00325921
-0.372735
0.37035
0.00169719
-0.000657927
-0.187409
0.18637
0.000168826
-0.0320668
0.031898
-0.0341906
0.0342938
-0.000103157
0.000238571
0.000230471
-0.260034
0.259565
-0.00145548
0.00307718
-0.421748
0.420126
-0.00491205
0.00615313
-0.547846
0.546605
-0.00681851
0.00690666
-0.654023
0.653935
-0.00650679
0.00583459
-0.772221
0.772893
-0.00476106
0.0034365
-0.916173
0.917498
-0.00166152
-0.000205701
-1.09072
1.09259
0.00248001
-0.00470937
-1.30136
1.30359
0.00726683
-0.00963563
-1.55584
1.55821
0.0117948
-0.0137081
-1.55383
1.55574
0.0150743
-0.0162545
-1.29693
1.29811
0.0170614
-0.0176009
-1.08559
1.08613
0.0178333
-0.0177352
-0.911746
0.911648
0.0173096
-0.0166152
-0.769602
0.768908
0.01557
-0.0137378
-0.650746
0.648914
0.0114374
-0.00840977
-0.528505
0.525477
0.00567684
-0.00324291
-0.367922
0.365488
0.00173375
-0.000718508
-0.185345
0.18433
0.000204116
-0.0317188
0.0315147
-0.0344169
0.0345705
-0.000153553
0.000721724
-0.000669452
-0.259293
0.259241
-0.000111655
0.00151993
-0.418581
0.417173
-0.00354321
0.00529412
-0.545114
0.543363
-0.00662266
0.0069572
-0.653716
0.653381
-0.00673881
0.00615776
-0.773618
0.774199
-0.00494153
0.00338232
-0.918943
0.920502
-0.0012629
-0.000939865
-1.09458
1.09679
0.00361105
-0.00627453
-1.30601
1.30867
0.00934616
-0.0121846
-1.56082
1.56366
0.0147409
-0.0169972
-1.55791
1.56016
0.0185953
-0.0198976
-1.29936
1.30067
0.0207279
-0.0212972
-1.08672
1.08729
0.0214125
-0.021141
-0.911382
0.911111
0.0205818
-0.0193101
-0.767962
0.76669
0.0173906
-0.0145847
-0.646589
0.643783
0.0115153
-0.00804634
-0.52219
0.518721
0.00530977
-0.00307628
-0.363147
0.360913
0.00171508
-0.000754231
-0.183362
0.182401
0.000228011
-0.0313145
0.0310865
-0.0347584
0.0349789
-0.000220467
0.00130496
-0.00168356
-0.259375
0.259754
0.00159583
-0.000803814
-0.416104
0.415312
-0.000753195
0.00233993
-0.541722
0.540135
-0.00375388
0.00451996
-0.652722
0.651956
-0.00448089
0.00379623
-0.774904
0.775589
-0.00245282
0.00077879
-0.922086
0.92376
0.00145497
-0.00376247
-1.09898
1.10129
0.00655279
-0.00931428
-1.31136
1.31412
0.0124698
-0.0153265
-1.56653
1.56939
0.0178327
-0.0199277
-1.56245
1.56454
0.0213238
-0.0224284
-1.30194
1.30305
0.023022
-0.0231666
-1.08761
1.08775
0.0229736
-0.0224282
-0.910601
0.910056
0.0213012
-0.0193515
-0.765013
0.763063
0.0169048
-0.013734
-0.640772
0.637601
0.010596
-0.00735379
-0.515382
0.51214
0.004955
-0.00302273
-0.358886
0.356954
0.00178122
-0.000821512
-0.181485
0.180526
0.000256383
-0.0308721
0.0306157
-0.0352574
0.0355577
-0.000300301
0.0018777
-0.00271065
-0.260348
0.261181
0.00328809
-0.00331815
-0.415061
0.415091
0.00267902
-0.00183335
-0.539075
0.538229
0.00102167
-0.000649426
-0.651392
0.65102
0.000816565
-0.00152181
-0.776235
0.77694
0.00283138
-0.00443932
-0.92523
0.926838
0.00657589
-0.00879266
-1.10341
1.10563
0.0114429
-0.0139851
-1.3167
1.31924
0.0167952
-0.019241
-1.57203
1.57447
0.0212504
-0.0227602
-1.56642
1.56793
0.0235971
-0.0240594
-1.30395
1.30441
0.0240685
-0.0237207
-1.08755
1.0872
0.0230417
-0.0217436
-0.908995
0.907697
0.0201234
-0.0178886
-0.760851
0.758616
0.0154429
-0.0124845
-0.634546
0.631588
0.0097542
-0.007032
-0.509285
0.506562
0.00499961
-0.00324922
-0.355245
0.353494
0.00200213
-0.000947551
-0.179587
0.178533
0.000297912
-0.0303749
0.030077
-0.0359361
0.0363349
-0.000398739
0.00251461
-0.00373452
-0.262256
0.263476
0.00490433
-0.0056362
-0.415554
0.416286
0.00596181
-0.00601045
-0.538025
0.538073
0.00604413
-0.00626992
-0.651051
0.651277
0.00688523
-0.00785266
-0.777677
0.778644
0.0093538
-0.0110391
-0.92824
0.929925
0.0131591
-0.0152764
-1.1076
1.10972
0.0177178
-0.0199401
-1.32151
1.32374
0.0222479
-0.0240994
-1.57657
1.57842
0.0254286
-0.0261682
-1.56907
1.56981
0.0262874
-0.0259282
-1.30455
1.30419
0.0252868
-0.0241805
-1.08633
1.08522
0.0228188
-0.0210413
-0.905988
0.90421
0.0191892
-0.0169205
-0.756261
0.753993
0.0146522
-0.0120587
-0.628879
0.626286
0.00973711
-0.00739794
-0.504242
0.501902
0.00554254
-0.00377598
-0.351917
0.35015
0.00238741
-0.00114283
-0.177467
0.176223
0.000359489
-0.0297876
0.0294282
-0.0368213
0.0373419
-0.000520579
0.00326739
-0.00491129
-0.265001
0.266644
0.00664023
-0.0079801
-0.417411
0.418751
0.00905632
-0.00984006
-0.538732
0.539515
0.0106829
-0.0116365
-0.651984
0.652938
0.0129611
-0.0144502
-0.779716
0.781205
0.0163566
-0.018279
-0.931452
0.933374
0.0205358
-0.0226718
-1.11165
1.11378
0.0250037
-0.0269847
-1.3257
1.32768
0.028853
-0.0301245
-1.57989
1.58116
0.0307444
-0.0306483
-1.57012
1.57002
0.0300071
-0.0288773
-1.30346
1.30233
0.0275278
-0.0257634
-1.08364
1.08187
0.0239394
-0.0218044
-0.90211
0.899975
0.0197616
-0.0174524
-0.751579
0.74927
0.0152898
-0.0129033
-0.623882
0.621496
0.0107649
-0.00851629
-0.499869
0.497621
0.00658531
-0.00459275
-0.348473
0.34648
0.00294498
-0.00141677
-0.174941
0.173413
0.000445624
-0.0290758
0.0286301
-0.0379515
0.0386405
-0.000688964
0.00428717
-0.00647074
-0.268616
0.270799
0.00884103
-0.0107927
-0.420529
0.42248
0.0125635
-0.0140006
-0.54095
0.542387
0.0155801
-0.017225
-0.654334
0.655979
0.0192893
-0.0213806
-0.782767
0.784858
0.023836
-0.0261606
-0.935235
0.937559
0.0287446
-0.031063
-1.11581
1.11813
0.0334459
-0.0353225
-1.32945
1.33133
0.0368817
-0.0376678
-1.58208
1.58287
0.0376577
-0.0368219
-1.56949
1.56866
0.0354767
-0.0335501
-1.30077
1.29884
0.0315156
-0.0291299
-1.07974
1.07735
0.0268653
-0.0243498
-0.897507
0.894992
0.0220613
-0.0195921
-0.746723
0.744254
0.0173612
-0.0149333
-0.619158
0.61673
0.0127155
-0.0102722
-0.495588
0.493145
0.00805783
-0.00567897
-0.344542
0.342163
0.00365626
-0.00176034
-0.171834
0.169938
0.000553514
-0.0281954
0.0276419
-0.0394276
0.0403463
-0.000918681
0.00566012
-0.00853143
-0.273322
0.276194
0.0116561
-0.0142498
-0.424889
0.427483
0.0166888
-0.018759
-0.544574
0.546644
0.0210907
-0.0234625
-0.658092
0.660463
0.02633
-0.0291174
-0.787023
0.78981
0.0322714
-0.0351576
-0.939878
0.942764
0.0382492
-0.0409016
-1.12038
1.12304
0.0434797
-0.045365
-1.33304
1.33493
0.0467175
-0.0470865
-1.58334
1.58371
0.0464841
-0.0449239
-1.56741
1.56585
0.0428896
-0.0401972
-1.29649
1.2938
0.0375094
-0.034469
-1.07457
1.07153
0.0316775
-0.0286687
-0.892066
0.889057
0.0260072
-0.0232065
-0.741406
0.738605
0.0207211
-0.0180279
-0.614198
0.611505
0.0155228
-0.0126707
-0.490871
0.488019
0.0100083
-0.0070703
-0.339821
0.336883
0.0045501
-0.00218613
-0.167989
0.165625
0.000686005
-0.0271114
0.0264254
-0.0413711
0.0426291
-0.001258
0.00760661
-0.011399
-0.279432
0.283225
0.015475
-0.0188284
-0.430672
0.434025
0.0220135
-0.0247764
-0.549653
0.552416
0.0279396
-0.0311324
-0.663341
0.666533
0.0349235
-0.03853
-0.792667
0.796273
0.0425226
-0.0460885
-0.945649
0.949215
0.0497966
-0.0528655
-1.12564
1.12871
0.0557153
-0.0576585
-1.33667
1.33862
0.0588277
-0.0587725
-1.58376
1.58371
0.0575448
-0.0551977
-1.56385
1.5615
0.052418
-0.0489173
-1.29067
1.28717
0.0455169
-0.0417272
-1.06804
1.06425
0.0382993
-0.0346589
-0.885536
0.881896
0.0314816
-0.0281776
-0.735268
0.731964
0.0252699
-0.0221243
-0.608549
0.605403
0.0191662
-0.0157365
-0.4853
0.48187
0.0124438
-0.00879934
-0.334007
0.330362
0.0056582
-0.00271464
-0.163223
0.160279
0.000849025
-0.0257816
0.0249326
-0.0439755
0.0457515
-0.00177599
0.0104965
-0.0155795
-0.287397
0.29248
0.0208995
-0.0251824
-0.438234
0.442517
0.0292406
-0.0328135
-0.556412
0.559985
0.036982
-0.0411702
-0.6703
0.674489
0.0460686
-0.0506369
-0.79995
0.804519
0.0555926
-0.0599239
-0.952793
0.957124
0.0643132
-0.0678281
-1.13174
1.13526
0.0709399
-0.0728897
-1.34038
1.34233
0.0737809
-0.0731905
-1.58327
1.58268
0.0712194
-0.0679607
-1.55864
1.55539
0.0643235
-0.059895
-1.28318
1.27875
0.0556642
-0.0509892
-1.05994
1.05527
0.0467936
-0.0423681
-0.877631
0.873205
0.0385291
-0.0345596
-0.727958
0.723988
0.0310818
-0.0273244
-0.601822
0.598064
0.0237665
-0.0195992
-0.478497
0.474329
0.0155266
-0.0109391
-0.326826
0.322239
0.00700035
-0.00332405
-0.157336
0.15366
0.00102705
-0.0241531
0.023126
-0.0475775
0.0501717
-0.00259417
0.0149057
-0.0217844
-0.297939
0.304818
0.0287075
-0.034145
-0.448158
0.453596
0.0393041
-0.0439559
-0.565252
0.569903
0.0494693
-0.0549144
-0.679328
0.684773
0.0611368
-0.0668014
-0.809151
0.814816
0.0728004
-0.0779123
-0.961437
0.966549
0.0829377
-0.0868024
-1.13865
1.14252
0.0900148
-0.0917857
-1.34399
1.34576
0.0921679
-0.0908207
-1.58158
1.58023
0.0879
-0.0835372
-1.55151
1.54715
0.0788865
-0.0733698
-1.27375
1.26823
0.0681698
-0.0624641
-1.04999
1.04429
0.0573673
-0.0520049
-0.868046
0.862684
0.0473634
-0.0425759
-0.719143
0.714355
0.0383928
-0.0338716
-0.593665
0.589144
0.0295509
-0.0244403
-0.470101
0.464991
0.0193784
-0.0136214
-0.317841
0.312084
0.00865018
-0.00406737
-0.150061
0.145479
0.00124106
-0.0221823
0.0209413
-0.0527554
0.0568078
-0.0040524
0.0221652
-0.0316412
-0.312223
0.321699
0.0407331
-0.0477184
-0.461317
0.468302
0.0543215
-0.060415
-0.576843
0.582936
0.0676512
-0.0745944
-0.690856
0.697799
0.0822492
-0.0889861
-0.820472
0.827209
0.095894
-0.101579
-0.971521
0.977206
0.106943
-0.110846
-1.14608
1.14999
0.113791
-0.115037
-1.34705
1.34829
0.114531
-0.112095
-1.57819
1.57576
0.107935
-0.10222
-1.54202
1.53631
0.0963727
-0.0895969
-1.26204
1.25526
0.0832953
-0.0764321
-1.03791
1.03104
0.0703251
-0.0639042
-0.856491
0.85007
0.0583444
-0.0526079
-0.708513
0.702776
0.0476006
-0.0421741
-0.583718
0.578291
0.0369144
-0.0306199
-0.459662
0.453368
0.0243001
-0.0170604
-0.306579
0.29934
0.0107789
-0.00501169
-0.141068
0.135301
0.00150262
-0.0198111
0.0183085
-0.0606174
0.0678313
-0.00721391
0.0356989
-0.0493995
-0.332523
0.346223
0.0615239
-0.0703339
-0.478906
0.487716
0.078597
-0.0863693
-0.591948
0.599721
0.0954272
-0.103695
-0.705138
0.713406
0.112392
-0.119723
-0.833716
0.841047
0.126942
-0.132612
-0.982477
0.988147
0.137658
-0.140989
-1.15327
1.1566
0.143042
-0.143207
-1.34874
1.34891
0.141283
-0.13731
-1.57237
1.56839
0.131556
-0.124219
-1.52966
1.52233
0.116982
-0.108799
-1.24771
1.23953
0.101288
-0.0931824
-1.02344
1.01534
0.0860021
-0.0784712
-0.842753
0.835223
0.0719458
-0.0651938
-0.695826
0.689074
0.0592817
-0.0528481
-0.571641
0.565208
0.0465153
-0.0386975
-0.446585
0.438767
0.030751
-0.0216083
-0.292307
0.283164
0.0136029
-0.0062531
-0.129924
0.122575
0.0017957
-0.0169796
0.0151839
-0.0747696
0.0782761
-0.0035065
0.0253932
-0.0372422
-0.362911
0.37476
0.0478865
-0.0562251
-0.501698
0.510036
0.0651265
-0.0746947
-0.610294
0.619863
0.085379
-0.0949479
-0.721292
0.730861
0.105585
-0.114972
-0.847607
0.856993
0.124712
-0.133054
-0.992888
1.00123
0.141339
-0.147955
-1.15883
1.16544
0.153818
-0.157608
-1.34786
1.35165
0.159545
-0.158764
-1.56316
1.56238
0.155139
-0.149081
-1.51387
1.50781
0.142013
-0.133086
-1.23047
1.22154
0.124398
-0.114025
-1.00645
0.996078
0.104576
-0.0942679
-0.826768
0.816461
0.0851312
-0.0754934
-0.681016
0.671378
0.0666953
-0.0573392
-0.557138
0.547782
0.0484176
-0.0373025
-0.430187
0.419072
0.0270159
-0.0166617
-0.273952
0.263598
0.00893548
-0.00326383
-0.11587
0.110198
0.000619263
-0.0136881
0.0130688
-0.0855759
0.0826579
0.00291801
0.00292433
-0.009918
-0.389437
0.396431
0.0180552
-0.0246972
-0.523158
0.5298
0.0331496
-0.0415772
-0.630126
0.638554
0.0512688
-0.0600913
-0.740291
0.749114
0.0694745
-0.077975
-0.865911
0.874411
0.0868067
-0.0940871
-1.00931
1.01659
0.101522
-0.107133
-1.17191
1.17752
0.112055
-0.11494
-1.35517
1.35805
0.115751
-0.114136
-1.56077
1.55916
0.109812
-0.103193
-1.50093
1.49431
0.0955669
-0.0862295
-1.21209
1.20275
0.0772741
-0.0670739
-0.985351
0.975151
0.0575615
-0.0470705
-0.805136
0.794645
0.037762
-0.0283206
-0.659385
0.649943
0.0203269
-0.0121863
-0.535426
0.527285
0.00530089
0.000942372
-0.407173
0.40093
-0.00447032
0.00592658
-0.252118
0.250662
-0.00545608
0.00345003
-0.103453
0.105459
-0.00143198
-0.0116308
0.0130628
-0.0853644
0.0820862
0.00327816
-0.00525566
0.00200818
-0.406568
0.409815
0.00313927
-0.00849344
-0.540434
0.545788
0.015552
-0.0228091
-0.647421
0.654678
0.0310677
-0.0386416
-0.757399
0.764973
0.0469264
-0.0542868
-0.882259
0.889619
0.0617323
-0.068249
-1.02373
1.03024
0.0747394
-0.0797561
-1.18279
1.18781
0.0837705
-0.0859341
-1.36039
1.36256
0.0864226
-0.0845189
-1.55698
1.55508
0.0801462
-0.0737547
-1.48726
1.48087
0.0666162
-0.058183
-1.19352
1.18508
0.0498352
-0.0406609
-0.964861
0.955687
0.0321739
-0.0229027
-0.784436
0.775165
0.014914
-0.00676241
-0.639473
0.631322
8.09509e-05
0.00646089
-0.516799
0.510257
-0.0112234
0.0145659
-0.392576
0.389234
-0.0149604
0.0125534
-0.245484
0.247891
-0.00912892
0.00494912
-0.105374
0.109554
-0.0017538
-0.0132256
0.0149794
-0.0833009
0.0801547
0.00314623
-0.00801659
0.0068859
-0.417226
0.418357
-0.00372815
-0.000336159
-0.554067
0.558131
0.00649741
-0.0125963
-0.661793
0.667892
0.019663
-0.0261538
-0.772263
0.778754
0.0332136
-0.0395219
-0.896563
0.902871
0.0463036
-0.0518858
-1.03639
1.04198
0.0576694
-0.0617564
-1.19252
1.19661
0.0653584
-0.0673051
-1.36467
1.36661
0.0676027
-0.0655851
-1.55299
1.55097
0.0617296
-0.0561492
-1.47426
1.46868
0.0499231
-0.042332
-1.1768
1.16921
0.0352323
-0.0275355
-0.946675
0.938978
0.0203598
-0.0128895
-0.766342
0.758872
0.00614836
0.000486201
-0.622525
0.615891
-0.00584024
0.010569
-0.502048
0.49732
-0.0135977
0.0153569
-0.383003
0.381244
-0.0148371
0.0115879
-0.245466
0.248716
-0.00819568
0.00428236
-0.110888
0.114801
-0.00147448
-0.0154521
0.0169265
-0.0812046
0.0785867
0.00261793
-0.00834783
0.00849529
-0.424128
0.423981
-0.00604211
0.00279576
-0.565171
0.568417
0.00212951
-0.00753236
-0.673985
0.679388
0.013472
-0.0191964
-0.78484
0.790565
0.0253307
-0.0308436
-0.908866
0.914379
0.0367191
-0.0417688
-1.04749
1.05254
0.0467864
-0.0507078
-1.20065
1.20457
0.0540011
-0.0558246
-1.36837
1.37019
0.0561907
-0.0544738
-1.54905
1.54734
0.051157
-0.0461801
-1.46279
1.45781
0.0408395
-0.0345019
-1.162
1.15566
0.0285236
-0.0219625
-0.931449
0.924887
0.016106
-0.00995843
-0.751569
0.745422
0.0046729
0.000551911
-0.609058
0.603833
-0.00456462
0.00791544
-0.490964
0.487613
-0.00998915
0.0109135
-0.376897
0.375972
-0.010042
0.00756895
-0.246868
0.249342
-0.00517532
0.00260077
-0.115376
0.11795
-0.000935067
-0.0171262
0.0180613
-0.0795099
0.0773271
0.00218282
-0.00772294
0.00810321
-0.42868
0.4283
-0.0067145
0.00393134
-0.573893
0.576677
0.000673011
-0.00529884
-0.684384
0.689009
0.0104672
-0.0154855
-0.795751
0.80077
0.020985
-0.0259711
-0.919677
0.924663
0.0314336
-0.0359589
-1.05741
1.06194
0.0406058
-0.0442825
-1.20831
1.21199
0.0473782
-0.0491598
-1.37188
1.37367
0.0496406
-0.0485761
-1.54575
1.54468
0.0457096
-0.0415424
-1.4527
1.44854
0.0368919
-0.0313902
-1.14946
1.14396
0.0264519
-0.0207469
-0.918546
0.912841
0.0157627
-0.0107341
-0.739504
0.734475
0.00638029
-0.00209337
-0.598584
0.594297
-0.00122581
0.00412787
-0.482752
0.47985
-0.0056213
0.00638037
-0.372456
0.371697
-0.00609136
0.00453545
-0.247105
0.248661
-0.00302348
0.00158933
-0.11749
0.118924
-0.000619614
-0.0178461
0.0184657
-0.0783017
0.0766203
0.00168146
-0.00651229
0.00703962
-0.431994
0.431467
-0.00579709
0.00361725
-0.58165
0.58383
0.000562555
-0.00475291
-0.693485
0.697675
0.00968356
-0.0140622
-0.8056
0.809979
0.018962
-0.0234539
-0.92973
0.934221
0.0287198
-0.0329295
-1.06658
1.07079
0.0371926
-0.0408086
-1.21558
1.2192
0.0442153
-0.0460371
-1.37557
1.37739
0.0468342
-0.0460289
-1.5434
1.54259
0.0439041
-0.0400724
-1.44434
1.44051
0.0361388
-0.0314283
-1.1385
1.13379
0.0269761
-0.0221245
-0.907372
0.90252
0.0176954
-0.0130907
-0.729343
0.724739
0.00946902
-0.00559297
-0.589762
0.585886
0.00249774
6.45143e-05
-0.475784
0.473221
-0.00165447
0.00268942
-0.368554
0.367519
-0.00279686
0.00220706
-0.246226
0.246816
-0.00155084
0.000888762
-0.117671
0.118333
-0.000411671
-0.0179859
0.0183976
-0.0776633
0.0763436
0.00131967
-0.00525871
0.00583009
-0.434624
0.434053
-0.00461215
0.00245133
-0.588438
0.590598
0.00140446
-0.00516836
-0.701734
0.705497
0.00944754
-0.0137042
-0.814462
0.818719
0.0182874
-0.0229593
-0.938625
0.943297
0.0275841
-0.0316829
-1.07517
1.07927
0.0361594
-0.0396426
-1.22279
1.22627
0.0427227
-0.0450873
-1.37922
1.38159
0.046243
-0.0459057
-1.54195
1.54161
0.0441209
-0.0409918
-1.43694
1.43381
0.0374748
-0.033181
-1.12883
1.12454
0.0291831
-0.0247187
-0.897573
0.893109
0.0206537
-0.0165373
-0.720195
0.716078
0.0128763
-0.00930181
-0.58173
0.578155
0.00645573
-0.00375226
-0.469595
0.466891
0.00188699
-0.000736753
-0.364288
0.363138
2.44648e-05
0.000307625
-0.244061
0.243729
-0.000434448
0.000397359
-0.116504
0.116541
-0.00027694
-0.0177461
0.018023
-0.0775714
0.0764643
0.00110712
-0.00389889
0.00425113
-0.43708
0.436728
-0.00321938
0.00100931
-0.594664
0.596874
0.00256031
-0.00621068
-0.709435
0.713085
0.0103448
-0.0142472
-0.822907
0.826809
0.0189798
-0.0229277
-0.947495
0.951443
0.0275637
-0.0315383
-1.08359
1.08756
0.0359697
-0.0397146
-1.22981
1.23356
0.0431701
-0.0454277
-1.38381
1.38606
0.0470252
-0.0471677
-1.54127
1.54141
0.0460633
-0.0432531
-1.43059
1.42778
0.0401214
-0.0361328
-1.1203
1.11631
0.0324084
-0.0281194
-0.888333
0.884044
0.0243204
-0.0202172
-0.71168
0.707577
0.0166359
-0.0130182
-0.57423
0.570612
0.0100154
-0.0073921
-0.46332
0.460696
0.00524442
-0.00367112
-0.359575
0.358001
0.00242091
-0.00137637
-0.24073
0.239686
0.000590068
2.76797e-05
-0.114268
0.11365
-0.000182335
-0.017179
0.0173613
-0.0777463
0.0769658
0.000780452
-0.00272185
0.00266072
-0.439735
0.439797
-0.00178244
-0.000518406
-0.60014
0.60244
0.00379715
-0.00732324
-0.716658
0.720184
0.0112924
-0.0153308
-0.830689
0.834727
0.0194975
-0.0236228
-0.955657
0.959782
0.0282547
-0.0320647
-1.09201
1.09582
0.036631
-0.0403839
-1.23718
1.24093
0.043963
-0.0468052
-1.38878
1.39163
0.0489656
-0.0494576
-1.54166
1.54215
0.0486313
-0.0464918
-1.42515
1.42301
0.043803
-0.0400043
-1.11214
1.10834
0.0363146
-0.0322842
-0.879493
0.875463
0.0281865
-0.0242233
-0.70312
0.699157
0.0206098
-0.0168263
-0.566851
0.563068
0.0138224
-0.0108424
-0.456895
0.453915
0.00846817
-0.00626197
-0.354426
0.35222
0.00463287
-0.00296973
-0.236343
0.23468
0.00149952
-0.000357644
-0.111158
0.110016
-7.92726e-05
-0.0163652
0.0164445
-0.0783113
0.0776839
0.000627456
-0.00177069
0.00176202
-0.442619
0.442627
-0.000407472
-0.00186887
-0.605592
0.607868
0.00522709
-0.0086029
-0.72341
0.726786
0.0124228
-0.0160876
-0.838535
0.8422
0.0203869
-0.0242251
-0.963966
0.967805
0.0288277
-0.03308
-1.10011
1.10437
0.0373322
-0.0414434
-1.24478
1.24889
0.0454863
-0.0484794
-1.39444
1.39743
0.0510757
-0.0523874
-1.54291
1.54422
0.0520316
-0.0504861
-1.42074
1.41919
0.0479363
-0.0444392
-1.1045
1.10101
0.04094
-0.0367968
-0.870877
0.866733
0.0328018
-0.0286749
-0.694568
0.690441
0.0249493
-0.0209367
-0.558978
0.554965
0.0176202
-0.0144161
-0.450108
0.446903
0.0115367
-0.00886476
-0.348366
0.345694
0.00668479
-0.00443898
-0.2309
0.228654
0.002501
-0.000856091
-0.107292
0.105647
8.92824e-05
-0.0153949
0.0153057
-0.0791178
0.0786509
0.000466933
-0.000772747
0.00057773
-0.445643
0.445838
0.000766693
-0.00324074
-0.610768
0.613242
0.00645855
-0.00966485
-0.729906
0.733112
0.0135587
-0.0170808
-0.845907
0.849429
0.0212378
-0.0252014
-0.97215
0.976114
0.0297207
-0.0339528
-1.10852
1.11275
0.0384411
-0.0426068
-1.25298
1.25714
0.0468713
-0.0506375
-1.40077
1.40453
0.053726
-0.0553838
-1.54553
1.54719
0.0557398
-0.0545131
-1.41753
1.4163
0.0524634
-0.0493802