/*--------------------------------*- C++ -*----------------------------------*\
| =========                 |                                                 |
| \\      /  F ield         | OpenFOAM: The Open Source CFD Toolbox           |
|  \\    /   O peration     | Version:  2306                                  |
|   \\  /    A nd           | Website:  www.openfoam.com                      |
|    \\/     M anipulation  |                                                 |
\*---------------------------------------------------------------------------*/
FoamFile
{
    version     2.0;
    format      ascii;
    arch        "LSB;label=32;scalar=64";
    class       volVectorField;
    location    "18";
    object      U;
}
// * * * * * * * * * * * * * * * * * * * * * * * * * * * * * * * * * * * * * //

dimensions      [0 1 -1 0 0 0 0];

internalField   nonuniform List<vector> 
8800
(
(0.984951 -0.0884473 0)
(1.00212 -0.0568164 0)
(0.999681 -0.0305495 0)
(1.00004 -0.0158545 0)
(1.00006 -0.00869474 0)
(1.00001 -0.00502863 0)
(0.999986 -0.00295236 0)
(0.999975 -0.00168758 0)
(0.999979 -0.000818682 0)
(1.00005 -0.00013694 0)
(0.999983 0.000558658 0)
(0.999975 0.00131214 0)
(0.999979 0.00233254 0)
(0.999992 0.0039212 0)
(1.00003 0.00664759 0)
(1.00007 0.0117075 0)
(0.999928 0.0220339 0)
(0.999191 0.0411558 0)
(1.00743 0.0768912 0)
(0.773648 0.045068 0)
(0.361075 -0.0151641 0)
(1.04562 -0.0741612 0)
(1.08715 -0.0678361 0)
(1.04779 -0.0522203 0)
(1.02455 -0.0382824 0)
(1.0123 -0.0259981 0)
(1.00641 -0.0167048 0)
(1.00356 -0.0102487 0)
(1.00215 -0.00565411 0)
(1.00151 -0.00211171 0)
(1.00139 0.00100292 0)
(1.00174 0.00428171 0)
(1.00269 0.00819039 0)
(1.0047 0.0135461 0)
(1.0088 0.0212472 0)
(1.01735 0.0320634 0)
(1.03457 0.0454634 0)
(1.06563 0.0596365 0)
(1.09416 0.0728816 0)
(0.842426 0.0556712 0)
(0.217277 -0.00163624 0)
(1.07603 -0.0502079 0)
(1.09994 -0.0485436 0)
(1.06474 -0.0400036 0)
(1.03997 -0.032839 0)
(1.02368 -0.0255321 0)
(1.01389 -0.0181732 0)
(1.00844 -0.0115319 0)
(1.00563 -0.00588083 0)
(1.00449 -0.000753256 0)
(1.00482 0.00420509 0)
(1.00666 0.00942632 0)
(1.01057 0.0154488 0)
(1.01788 0.0224011 0)
(1.03062 0.0297126 0)
(1.05088 0.0367651 0)
(1.08068 0.0441437 0)
(1.10654 0.0514183 0)
(0.94347 0.0411472 0)
(0.216923 0.00164715 0)
(0.176317 -0.000633766 0)
(1.01918 -0.0351169 0)
(1.10566 -0.0410054 0)
(1.07804 -0.0358294 0)
(1.0527 -0.02983 0)
(1.03538 -0.024127 0)
(1.02337 -0.0184972 0)
(1.01541 -0.0126852 0)
(1.01075 -0.00680829 0)
(1.00874 -0.000793767 0)
(1.00931 0.00518847 0)
(1.01246 0.0109688 0)
(1.01859 0.0166672 0)
(1.02839 0.0222051 0)
(1.0428 0.0276728 0)
(1.06359 0.033386 0)
(1.09413 0.039409 0)
(1.09487 0.0412018 0)
(0.830494 0.0224705 0)
(0.175725 0.000646169 0)
(0.155133 -0.000472052 0)
(0.958721 -0.0250446 0)
(1.10449 -0.0343329 0)
(1.08798 -0.0317876 0)
(1.06118 -0.0271995 0)
(1.04312 -0.0223238 0)
(1.03069 -0.0173209 0)
(1.02205 -0.0121531 0)
(1.01649 -0.00663591 0)
(1.01388 -0.000568638 0)
(1.01459 0.00554466 0)
(1.01848 0.0111349 0)
(1.02538 0.0162393 0)
(1.03567 0.0210767 0)
(1.0505 0.0258198 0)
(1.07246 0.0303616 0)
(1.10156 0.0344317 0)
(1.0709 0.0328821 0)
(0.744769 0.013873 0)
(0.15425 0.000486167 0)
(0.141167 -0.000339765 0)
(0.90344 -0.0182927 0)
(1.09715 -0.0287602 0)
(1.09593 -0.0279239 0)
(1.06861 -0.0244202 0)
(1.04958 -0.0205289 0)
(1.03654 -0.0160805 0)
(1.02753 -0.0111883 0)
(1.02156 -0.00593373 0)
(1.0186 -0.000185876 0)
(1.01935 0.00557417 0)
(1.02355 0.0108299 0)
(1.03074 0.0156063 0)
(1.04142 0.019993 0)
(1.05703 0.0238936 0)
(1.08 0.0272897 0)
(1.10416 0.029925 0)
(1.04069 0.0263205 0)
(0.681122 0.00948131 0)
(0.139934 0.000356447 0)
(0.131393 -0.000245343 0)
(0.856846 -0.0133126 0)
(1.08549 -0.0235844 0)
(1.10098 -0.0237952 0)
(1.07469 -0.0207931 0)
(1.05523 -0.0175722 0)
(1.04164 -0.0139179 0)
(1.03214 -0.00974946 0)
(1.02595 -0.00504388 0)
(1.02293 0.000273213 0)
(1.02355 0.00563957 0)
(1.02772 0.0103567 0)
(1.03515 0.0144193 0)
(1.04631 0.0179362 0)
(1.0624 0.0209911 0)
(1.08572 0.0237636 0)
(1.10373 0.0256205 0)
(1.00904 0.0207427 0)
(0.633932 0.00671935 0)
(0.129736 0.000265663 0)
(0.124547 -0.000180054 0)
(0.819836 -0.00937337 0)
(1.07204 -0.0185558 0)
(1.10425 -0.0195489 0)
(1.08018 -0.0170811 0)
(1.0603 -0.0143535 0)
(1.04646 -0.0114462 0)
(1.03667 -0.0080625 0)
(1.03013 -0.00399626 0)
(1.02685 0.000836092 0)
(1.02742 0.00570053 0)
(1.03172 0.00977749 0)
(1.03936 0.0130212 0)
(1.05067 0.0156264 0)
(1.06696 0.0179413 0)
(1.09069 0.0202537 0)
(1.10117 0.021303 0)
(0.979288 0.0158251 0)
(0.599333 0.00471465 0)
(0.122373 0.000205606 0)
(0.119999 -0.000114192 0)
(0.792274 -0.00590058 0)
(1.05815 -0.0135669 0)
(1.10582 -0.0154772 0)
(1.08437 -0.0140666 0)
(1.06402 -0.0121283 0)
(1.05026 -0.00963124 0)
(1.04078 -0.00649561 0)
(1.0344 -0.00275407 0)
(1.03102 0.00154873 0)
(1.03143 0.00578122 0)
(1.03543 0.00936137 0)
(1.04261 0.0121943 0)
(1.05357 0.0143785 0)
(1.07006 0.0159772 0)
(1.09388 0.0172046 0)
(1.09634 0.0170474 0)
(0.953163 0.0112263 0)
(0.575148 0.00301152 0)
(0.117195 0.00014634 0)
(0.117724 -2.95201e-05 0)
(0.774031 -0.00290858 0)
(1.04463 -0.00851208 0)
(1.10484 -0.0110535 0)
(1.08678 -0.0105501 0)
(1.06677 -0.00909316 0)
(1.05304 -0.00716256 0)
(1.04345 -0.00462928 0)
(1.03692 -0.00144348 0)
(1.03339 0.00235909 0)
(1.03359 0.00609576 0)
(1.03744 0.0089987 0)
(1.04454 0.0110485 0)
(1.05545 0.0124217 0)
(1.07161 0.0133533 0)
(1.09421 0.0138137 0)
(1.08877 0.0124985 0)
(0.931828 0.00701321 0)
(0.560122 0.00161664 0)
(0.114146 7.04959e-05 0)
(0.117227 2.12298e-05 0)
(0.763562 -0.00122222 0)
(1.03375 -0.00485583 0)
(1.10288 -0.00700284 0)
(1.0885 -0.00686057 0)
(1.06919 -0.00586247 0)
(1.05597 -0.0044329 0)
(1.04678 -0.00244469 0)
(1.04047 0.000120346 0)
(1.03694 0.00333566 0)
(1.0368 0.00644224 0)
(1.04014 0.00859466 0)
(1.04656 0.00988372 0)
(1.05668 0.0105221 0)
(1.07244 0.010803 0)
(1.09318 0.010592 0)
(1.08072 0.00903298 0)
(0.91613 0.0045411 0)
(0.551327 0.000951098 0)
(0.112678 2.67087e-05 0)
(0.117462 3.60371e-05 0)
(0.757274 -0.000617914 0)
(1.02593 -0.00325911 0)
(1.10129 -0.00496105 0)
(1.0895 -0.00487065 0)
(1.07073 -0.00392121 0)
(1.05754 -0.002659 0)
(1.04847 -0.000907672 0)
(1.04233 0.00151777 0)
(1.03877 0.0044648 0)
(1.03824 0.00720215 0)
(1.041 0.00902658 0)
(1.04701 0.00996488 0)
(1.05689 0.0103149 0)
(1.07199 0.0101834 0)
(1.09129 0.00956908 0)
(1.07341 0.00779348 0)
(0.90402 0.00383186 0)
(0.544899 0.000846304 0)
(0.111708 2.58706e-05 0)
(0.117897 3.37408e-05 0)
(0.752574 -0.000309289 0)
(1.01903 -0.00266881 0)
(1.09966 -0.00477 0)
(1.09076 -0.00477533 0)
(1.07246 -0.00399893 0)
(1.05967 -0.00259334 0)
(1.05098 -0.000391139 0)
(1.04498 0.00252471 0)
(1.04123 0.00577899 0)
(1.04028 0.00870744 0)
(1.04249 0.0106296 0)
(1.04771 0.0116223 0)
(1.05683 0.0116531 0)
(1.07126 0.0112691 0)
(1.08895 0.0105081 0)
(1.06568 0.0081072 0)
(0.892709 0.00379552 0)
(0.538877 0.000895404 0)
(0.110658 3.95244e-05 0)
(0.118461 3.96503e-05 0)
(0.749086 0.000123392 0)
(1.01143 -0.00195938 0)
(1.0962 -0.00498469 0)
(1.09107 -0.00607213 0)
(1.07441 -0.00543296 0)
(1.06229 -0.00360456 0)
(1.05403 -0.000646233 0)
(1.048 0.00311429 0)
(1.04392 0.00731828 0)
(1.04245 0.0110711 0)
(1.04403 0.0135797 0)
(1.04842 0.0150774 0)
(1.05651 0.0154908 0)
(1.06982 0.0147737 0)
(1.08465 0.0129055 0)
(1.05523 0.0087411 0)
(0.880964 0.00373893 0)
(0.532906 0.000951845 0)
(0.109384 5.64963e-05 0)
(0.119314 4.90309e-05 0)
(0.747514 0.000748992 0)
(1.00394 -0.000610972 0)
(1.09014 -0.00395818 0)
(1.09043 -0.00608666 0)
(1.07634 -0.00571415 0)
(1.06569 -0.00368926 0)
(1.05793 -0.000157216 0)
(1.05191 0.0042524 0)
(1.04738 0.00932735 0)
(1.04528 0.0137675 0)
(1.04603 0.0167049 0)
(1.04959 0.0182728 0)
(1.05597 0.0184948 0)
(1.06718 0.0174757 0)
(1.07679 0.0141385 0)
(1.04189 0.00851579 0)
(0.869544 0.00347851 0)
(0.527201 0.000984201 0)
(0.107934 6.76679e-05 0)
(0.120592 6.57614e-05 0)
(0.748264 0.00135065 0)
(0.998632 0.00114891 0)
(1.08342 -0.00140829 0)
(1.08845 -0.00373579 0)
(1.07822 -0.00366459 0)
(1.06949 -0.00145692 0)
(1.06234 0.0022268 0)
(1.05635 0.00683499 0)
(1.0513 0.0120469 0)
(1.04832 0.0163776 0)
(1.04807 0.0189907 0)
(1.05029 0.0201042 0)
(1.0549 0.0197746 0)
(1.06253 0.0178144 0)
(1.06659 0.0134782 0)
(1.02825 0.00775176 0)
(0.859515 0.00332621 0)
(0.521711 0.00106623 0)
(0.106341 7.78784e-05 0)
(0.122439 8.99011e-05 0)
(0.751564 0.00203273 0)
(0.997135 0.00304143 0)
(1.07886 0.0019153 0)
(1.08662 0.000634983 0)
(1.08016 0.000917232 0)
(1.0732 0.00308146 0)
(1.06666 0.00660938 0)
(1.06065 0.010982 0)
(1.0549 0.0156105 0)
(1.05082 0.0191001 0)
(1.04944 0.0206966 0)
(1.05002 0.0207436 0)
(1.05263 0.0195392 0)
(1.05644 0.0166121 0)
(1.05625 0.012207 0)
(1.01646 0.0072249 0)
(0.850917 0.00349303 0)
(0.516015 0.00123118 0)
(0.104531 9.02214e-05 0)
(0.124948 0.000121038 0)
(0.757557 0.0027538 0)
(0.99905 0.00462648 0)
(1.07772 0.0051839 0)
(1.08662 0.00528179 0)
(1.08238 0.00628496 0)
(1.07679 0.00877589 0)
(1.07074 0.012269 0)
(1.06445 0.0162855 0)
(1.05779 0.0200765 0)
(1.05237 0.0223915 0)
(1.04958 0.0226809 0)
(1.0484 0.0215085 0)
(1.04878 0.0190676 0)
(1.05 0.0157324 0)
(1.04708 0.0116289 0)
(1.00676 0.00738711 0)
(0.84291 0.0039984 0)
(0.509552 0.00148887 0)
(0.102371 0.000108114 0)
(0.128232 0.000159825 0)
(0.766156 0.00357267 0)
(1.00409 0.00639986 0)
(1.07992 0.00817251 0)
(1.08882 0.00963208 0)
(1.08562 0.011823 0)
(1.08069 0.0149621 0)
(1.07465 0.0186709 0)
(1.06769 0.0224981 0)
(1.05979 0.0255515 0)
(1.05277 0.0266446 0)
(1.04835 0.025543 0)
(1.04539 0.0231591 0)
(1.04406 0.0198678 0)
(1.04346 0.0161685 0)
(1.03898 0.0122475 0)
(0.998147 0.00834262 0)
(0.834335 0.00483264 0)
(0.501769 0.00184737 0)
(0.0997326 0.000133409 0)
(0.132474 0.000214531 0)
(0.777509 0.00468805 0)
(1.01225 0.0085648 0)
(1.08507 0.0115254 0)
(1.09341 0.0141503 0)
(1.09035 0.0175905 0)
(1.08531 0.0216241 0)
(1.07871 0.0258676 0)
(1.07061 0.0297699 0)
(1.06103 0.0323024 0)
(1.05203 0.0323076 0)
(1.04579 0.0299297 0)
(1.04127 0.0262977 0)
(1.03849 0.0222128 0)
(1.03661 0.0180682 0)
(1.03114 0.0140171 0)
(0.989437 0.0099736 0)
(0.824364 0.00595522 0)
(0.492163 0.00229724 0)
(0.096469 0.000165337 0)
(0.138048 0.000289238 0)
(0.792203 0.00618662 0)
(1.0233 0.011291 0)
(1.09298 0.0153609 0)
(1.10037 0.0192646 0)
(1.09682 0.0239996 0)
(1.09106 0.0291778 0)
(1.08332 0.0342526 0)
(1.07349 0.0384674 0)
(1.0617 0.0406507 0)
(1.05035 0.0396379 0)
(1.042 0.0360228 0)
(1.03594 0.0311945 0)
(1.03188 0.0261539 0)
(1.02898 0.0213295 0)
(1.02272 0.0168115 0)
(0.979662 0.0122509 0)
(0.812219 0.00741363 0)
(0.480247 0.00285593 0)
(0.0924495 0.000204195 0)
(0.145459 0.000402359 0)
(0.81121 0.00829964 0)
(1.03778 0.0149398 0)
(1.10381 0.0202621 0)
(1.10988 0.0255617 0)
(1.10532 0.0317965 0)
(1.09823 0.0383531 0)
(1.08866 0.044435 0)
(1.07644 0.0490969 0)
(1.06182 0.0509754 0)
(1.04769 0.0488901 0)
(1.03698 0.0439308 0)
(1.02927 0.0378062 0)
(1.02393 0.0316087 0)
(1.0201 0.0258473 0)
(1.01302 0.0205562 0)
(0.968093 0.0151702 0)
(0.797234 0.00924342 0)
(0.465476 0.00354408 0)
(0.0875247 0.000251802 0)
(0.155477 0.000578485 0)
(0.835915 0.0114204 0)
(1.05662 0.0200568 0)
(1.11811 0.0268275 0)
(1.12234 0.0338295 0)
(1.1161 0.0418577 0)
(1.10692 0.049996 0)
(1.09473 0.057204 0)
(1.0794 0.0623046 0)
(1.06128 0.0637282 0)
(1.04388 0.0603668 0)
(1.03058 0.0538537 0)
(1.02103 0.0462172 0)
(1.01433 0.0386225 0)
(1.00949 0.0316588 0)
(1.00143 0.0253266 0)
(0.954033 0.0188525 0)
(0.77894 0.0115294 0)
(0.447399 0.00436323 0)
(0.0815725 0.0002993 0)
(0.169374 0.000858965 0)
(0.868213 0.0161315 0)
(1.08123 0.0273168 0)
(1.13678 0.0358396 0)
(1.13843 0.0451763 0)
(1.12956 0.0553697 0)
(1.11727 0.0652323 0)
(1.10148 0.0735063 0)
(1.08218 0.0787891 0)
(1.05987 0.079383 0)
(1.0387 0.0743847 0)
(1.02255 0.0660232 0)
(1.01094 0.0566148 0)
(1.0027 0.0473758 0)
(0.996704 0.0389495 0)
(0.987419 0.0313239 0)
(0.936765 0.0234776 0)
(0.756564 0.0143842 0)
(0.425503 0.00536702 0)
(0.0744459 0.000354291 0)
(0.189408 0.00136392 0)
(0.911375 0.023702 0)
(1.11372 0.0383521 0)
(1.16121 0.0492299 0)
(1.15876 0.0615591 0)
(1.14591 0.074119 0)
(1.12917 0.0855098 0)
(1.1086 0.0943742 0)
(1.08442 0.0992416 0)
(1.05725 0.0983817 0)
(1.03191 0.0912333 0)
(1.01265 0.0806723 0)
(0.998747 0.0692409 0)
(0.988744 0.0581502 0)
(0.981336 0.0480471 0)
(0.970408 0.0388925 0)
(0.915447 0.0293593 0)
(0.729019 0.0180482 0)
(0.398936 0.00665913 0)
(0.0659945 0.000416362 0)
(0.218957 0.00251882 0)
(0.971718 0.0372848 0)
(1.15629 0.0570849 0)
(1.19263 0.0709724 0)
(1.18333 0.0862579 0)
(1.16451 0.100574 0)
(1.14177 0.112524 0)
(1.11528 0.120887 0)
(1.08544 0.124289 0)
(1.05295 0.121068 0)
(1.02319 0.111124 0)
(1.00066 0.0979935 0)
(0.984281 0.08434 0)
(0.972287 0.0712824 0)
(0.963137 0.0593998 0)
(0.949924 0.0485693 0)
(0.889088 0.0370346 0)
(0.695099 0.0228349 0)
(0.367521 0.00840514 0)
(0.0564593 0.000461354 0)
(0.259987 0.00918601 -2.69147e-20)
(1.05255 0.065116 -2.1385e-20)
(1.20716 0.0895643 6.06188e-21)
(1.22846 0.106598 0)
(1.20968 0.123053 1.93991e-35)
(1.18332 0.13713 5.04151e-23)
(1.1535 0.147908 -2.11287e-21)
(1.1204 0.154388 0)
(1.08438 0.155275 8.81018e-35)
(1.04607 0.149001 -6.84697e-21)
(1.01141 0.135915 0)
(0.985118 0.120116 -9.97818e-21)
(0.965733 0.104269 -3.06014e-20)
(0.951151 0.0893969 -1.48263e-20)
(0.939519 0.0760869 -4.67942e-21)
(0.923028 0.0639946 -2.83327e-21)
(0.85512 0.050383 0)
(0.651506 0.0319589 2.02303e-21)
(0.330089 0.0133703 2.39158e-21)
(0.0476597 0.00158447 4.17671e-20)
(0.286282 0.025473 -4.84162e-20)
(1.11787 0.110157 9.93625e-22)
(1.25073 0.137619 -2.88134e-21)
(1.26065 0.155682 0)
(1.23336 0.170416 4.98799e-21)
(1.19964 0.182737 3.11588e-21)
(1.16282 0.191625 -1.1816e-21)
(1.12297 0.195951 -1.09288e-20)
(1.08037 0.194382 0)
(1.03545 0.185312 2.90974e-20)
(0.994713 0.1695 3.25142e-20)
(0.963324 0.151497 1.05248e-20)
(0.939612 0.133942 4.18183e-20)
(0.921172 0.117623 6.17895e-20)
(0.905729 0.103061 0)
(0.884052 0.0898856 9.19732e-20)
(0.811301 0.0744485 1.33855e-19)
(0.606335 0.0512117 1.48383e-19)
(0.302961 0.0250656 -1.71514e-19)
(0.0431063 0.00368206 -3.11846e-21)
(0.282982 0.0415599 0)
(1.15579 0.168109 -1.48507e-20)
(1.28304 0.198358 0)
(1.28574 0.214534 2.46615e-20)
(1.2518 0.225769 0)
(1.21176 0.234611 1.35192e-20)
(1.16864 0.240256 8.11317e-22)
(1.1226 0.241443 -1.52347e-20)
(1.0739 0.236729 -3.09656e-21)
(1.0229 0.224492 1.40133e-20)
(0.976597 0.205972 7.62395e-20)
(0.940638 0.186129 -5.72796e-22)
(0.913096 0.167479 -3.15095e-20)
(0.89133 0.15064 -6.14166e-20)
(0.872938 0.135852 7.45631e-20)
(0.84908 0.122519 -1.33992e-19)
(0.780396 0.105559 -1.8322e-20)
(0.592725 0.0776679 0)
(0.311982 0.0413429 2.34486e-22)
(0.0493339 0.00700315 0)
(0.273833 0.0553223 -3.62473e-19)
(1.17351 0.22902 1.51809e-19)
(1.30383 0.26426 8.27606e-20)
(1.30219 0.278134 -1.60345e-20)
(1.26368 0.285467 2.45869e-20)
(1.21888 0.290279 -3.21674e-20)
(1.17072 0.292037 -8.49955e-23)
(1.11942 0.289526 0)
(1.06537 0.281248 -5.34282e-20)
(1.009 0.265587 0)
(0.957913 0.244274 -3.88016e-20)
(0.918186 0.222683 -5.51753e-20)
(0.887683 0.203183 -3.54121e-20)
(0.86354 0.186115 -4.58743e-20)
(0.84333 0.171437 0)
(0.819152 0.158173 0)
(0.756528 0.141029 -1.23604e-19)
(0.589545 0.108602 2.4583e-20)
(0.324689 0.0609314 -1.43024e-20)
(0.0560599 0.0110139 -1.64534e-20)
(0.264721 0.0676086 2.66685e-19)
(1.17867 0.289436 0)
(1.31503 0.330897 -2.30908e-19)
(1.31095 0.342847 -5.99392e-20)
(1.26922 0.346518 -4.63075e-20)
(1.22096 0.347354 0)
(1.16893 0.345194 -7.29136e-21)
(1.11344 0.338843 1.27562e-20)
(1.05491 0.326852 2.28488e-20)
(0.993977 0.3076 7.14054e-20)
(0.938936 0.283381 0)
(0.896297 0.259947 -1.2031e-19)
(0.863759 0.239469 -7.73089e-20)
(0.838198 0.222059 -4.66372e-20)
(0.817094 0.207491 3.06954e-19)
(0.793451 0.194555 3.76968e-20)
(0.736877 0.177125 1.79934e-19)
(0.584912 0.139984 -8.64788e-19)
(0.330471 0.080457 5.10302e-19)
(0.0599198 0.0149198 -6.09347e-19)
(0.256755 0.078654 2.80855e-19)
(1.17604 0.347364 -5.30414e-20)
(1.31917 0.396292 4.04827e-20)
(1.31363 0.406908 1.10674e-19)
(1.26963 0.407128 6.85509e-20)
(1.21876 0.404246 3.30842e-21)
(1.16369 0.398383 6.73652e-21)
(1.10481 0.388295 8.26679e-21)
(1.04262 0.372589 -5.03352e-20)
(0.977807 0.34969 0)
(0.919553 0.322405 -5.14357e-20)
(0.874732 0.29687 -2.99418e-21)
(0.840768 0.275102 -8.66497e-20)
(0.814345 0.257026 0)
(0.792954 0.242211 -6.69935e-20)
(0.770305 0.229142 -1.62979e-19)
(0.71861 0.21068 4.50598e-19)
(0.5765 0.168464 -4.46211e-19)
(0.329723 0.0973827 6.298e-19)
(0.0608407 0.0181559 -6.48706e-19)
(0.250338 0.0888969 -8.39187e-22)
(1.16867 0.402261 6.47173e-20)
(1.31808 0.459525 1.93082e-19)
(1.31165 0.469214 -6.75669e-20)
(1.266 0.466282 3.90488e-20)
(1.21309 0.46003 0)
(1.15562 0.450706 1.90277e-20)
(1.09395 0.437102 -5.13917e-21)
(1.02866 0.417801 -2.24806e-20)
(0.960569 0.391243 0)
(0.899457 0.360726 -4.99713e-20)
(0.8528 0.332819 -7.08817e-20)
(0.817806 0.309411 9.48464e-20)
(0.790991 0.290237 -6.09221e-20)
(0.769731 0.274662 -2.95206e-19)
(0.748136 0.261026 1.81576e-19)
(0.700023 0.240993 5.73581e-20)
(0.56441 0.193524 0)
(0.32419 0.111646 -6.12638e-19)
(0.0600507 0.0207592 -2.22254e-20)
(0.245336 0.0986542 4.58701e-20)
(1.15858 0.45401 -7.42921e-20)
(1.31321 0.520052 -1.05444e-19)
(1.30622 0.529061 -2.07984e-19)
(1.25934 0.523409 1.88771e-19)
(1.20482 0.514144 -1.02262e-19)
(1.14537 0.501647 -4.01024e-20)
(1.08135 0.484766 -6.64183e-21)
(1.01334 0.46206 2.38637e-20)
(0.942307 0.431917 -1.74296e-19)
(0.878685 0.398041 -6.18563e-20)
(0.830579 0.367452 0)
(0.794879 0.342071 1.03763e-19)
(0.76789 0.321414 1.28511e-19)
(0.746856 0.304713 1.5842e-19)
(0.726171 0.289976 -1.98086e-19)
(0.680497 0.2681 -5.95581e-20)
(0.549274 0.215231 7.01975e-20)
(0.315097 0.123222 0)
(0.0581533 0.0227277 -4.84174e-20)
(0.241527 0.108053 -5.3133e-19)
(1.14716 0.502755 3.39834e-19)
(1.30563 0.57754 1.15804e-19)
(1.29824 0.586158 -1.58431e-19)
(1.25035 0.578165 1.12531e-19)
(1.19457 0.566211 -7.70581e-21)
(1.1335 0.550864 3.95778e-20)
(1.06746 0.530989 -3.50891e-21)
(0.997061 0.505116 -4.0683e-20)
(0.923395 0.47151 3.26026e-22)
(0.857517 0.434201 -1.83749e-19)
(0.807986 0.40069 1.81129e-19)
(0.771644 0.372986 -1.16393e-19)
(0.74454 0.350492 1.45055e-19)
(0.723808 0.332296 0)
(0.70388 0.316209 -1.07535e-19)
(0.659766 0.291968 -2.489e-21)
(0.531717 0.23357 -3.06976e-19)
(0.303345 0.132413 -4.50919e-20)
(0.0553215 0.0240445 0)
(0.238726 0.117187 0)
(1.13518 0.548733 3.68211e-19)
(1.29611 0.631958 2.69503e-19)
(1.28839 0.640393 1.7848e-19)
(1.23973 0.630343 1.08633e-19)
(1.18292 0.616027 0)
(1.1205 0.598141 3.62679e-20)
(1.05273 0.575576 -2.40862e-21)
(0.980206 0.546801 8.60795e-20)
(0.904011 0.509924 -2.10903e-20)
(0.835786 0.469182 -1.34831e-19)
(0.784779 0.432575 9.04309e-20)
(0.747857 0.402199 -3.8675e-21)
(0.720706 0.377519 1.52658e-19)
(0.700284 0.357525 1.00028e-19)
(0.680933 0.339746 -2.34232e-19)
(0.637758 0.31275 2.83076e-19)
(0.511998 0.248694 8.4141e-20)
(0.289434 0.139249 3.45399e-19)
(0.0517756 0.0246805 -9.13019e-19)
(0.236779 0.126209 -1.35962e-19)
(1.12318 0.592119 2.12105e-19)
(1.2853 0.683346 -1.67396e-19)
(1.27727 0.691716 -2.06642e-19)
(1.22796 0.679871 0)
(1.17031 0.663473 8.78813e-20)
(1.10676 0.643347 -1.05186e-19)
(1.03747 0.618393 -2.57861e-21)
(0.962945 0.587008 0)
(0.884262 0.547093 -3.2925e-19)
(0.813654 0.503006 3.67624e-19)
(0.761008 0.463194 0)
(0.723324 0.429882 1.37826e-19)
(0.696096 0.402709 -3.89035e-21)
(0.675929 0.380611 -3.16345e-19)
(0.657019 0.360824 1.24273e-19)
(0.614308 0.330658 0)
(0.490398 0.260763 4.56455e-19)
(0.273707 0.143753 0)
(0.047702 0.024716 -4.35181e-19)
(0.235506 0.135111 1.5136e-19)
(1.1114 0.63315 2.42135e-19)
(1.27378 0.731721 -1.75284e-19)
(1.26528 0.740185 0)
(1.21544 0.726743 1.48519e-19)
(1.15712 0.708509 0)
(1.0926 0.686416 1.3659e-19)
(1.02194 0.659373 1.5943e-20)
(0.945556 0.625698 7.91219e-21)
(0.864467 0.583049 -1.62522e-19)
(0.791348 0.535756 3.55013e-20)
(0.73679 0.492626 0)
(0.697978 0.456138 -2.93016e-19)
(0.670538 0.426153 4.02024e-21)
(0.650614 0.401674 0)
(0.632038 0.379587 4.82351e-21)
(0.589392 0.345802 4.16731e-19)
(0.466829 0.269666 -3.99786e-19)
(0.256218 0.145862 1.17284e-19)
(0.0430927 0.0241141 0)
(0.234543 0.14378 0)
(1.09999 0.671958 2.70452e-19)
(1.26182 0.777229 2.05013e-19)
(1.25276 0.785865 -4.34555e-21)
(1.20251 0.770991 9.25815e-20)
(1.14365 0.751147 2.06564e-19)
(1.07831 0.727348 -4.41449e-20)
(1.00644 0.698504 7.09167e-21)
(0.928341 0.662861 5.02386e-20)
(0.844826 0.617825 -2.52423e-19)
(0.768989 0.567576 -6.12889e-21)
(0.712262 0.521116 -1.19322e-19)
(0.672032 0.481269 4.80385e-19)
(0.644064 0.448172 -4.80685e-21)
(0.624268 0.421005 -2.49533e-19)
(0.605868 0.396249 -4.55971e-19)
(0.562861 0.358376 0)
(0.441226 0.275545 0)
(0.236993 0.145466 1.29053e-19)
(0.0381108 0.0228506 -7.42785e-20)
(0.234164 0.152311 1.87704e-19)
(1.08919 0.708492 -5.91602e-19)
(1.24958 0.820005 -2.1922e-19)
(1.23998 0.828817 0)
(1.18943 0.812666 -2.97328e-21)
(1.13013 0.79142 2.46903e-19)
(1.06411 0.766153 -1.45986e-19)
(0.991189 0.735781 -6.95634e-20)
(0.911462 0.698492 4.90343e-20)
(0.82552 0.65145 -1.93109e-19)
(0.746768 0.598557 -3.09888e-19)
(0.687479 0.548914 3.17861e-19)
(0.645542 0.505618 0)
(0.616672 0.469155 -1.12283e-19)
(0.596795 0.438884 -2.74105e-19)
(0.578371 0.411018 -3.30496e-19)
(0.534547 0.368335 -4.00792e-19)
(0.413446 0.278241 1.19504e-19)
(0.215938 0.14222 -6.98045e-20)
(0.0327074 0.0208857 8.00793e-22)
(0.233789 0.160682 0)
(1.07911 0.742778 0)
(1.2373 0.86017 4.83105e-21)
(1.22715 0.869125 0)
(1.17638 0.851853 -3.46116e-19)
(1.11675 0.829386 -2.17222e-19)
(1.05019 0.802855 0)
(0.97633 0.77121 -1.6073e-20)
(0.895091 0.732595 5.59989e-20)
(0.806758 0.683951 -4.43015e-19)
(0.724884 0.628819 0)
(0.662592 0.576204 -2.03333e-19)
(0.61843 0.529378 -5.92213e-21)
(0.588296 0.489228 -4.89392e-21)
(0.568108 0.455468 2.925e-19)
(0.549442 0.423923 -8.26658e-22)
(0.504355 0.375618 -8.70774e-19)
(0.383242 0.27746 2.60616e-19)
(0.193154 0.136158 7.70055e-20)
(0.0269235 0.0182411 0)
(0.233441 0.168758 -6.87859e-19)
(1.06948 0.775286 -3.63205e-19)
(1.22508 0.897832 -5.46392e-19)
(1.21443 0.906902 7.6628e-19)
(1.16353 0.888627 -6.47107e-19)
(1.10366 0.865105 0)
(1.03666 0.8375 -1.22515e-19)
(0.961999 0.804819 3.03531e-20)
(0.879377 0.765185 7.31761e-21)
(0.788701 0.715349 3.51662e-20)
(0.703537 0.658435 3.86566e-19)
(0.637837 0.603192 -6.93571e-20)
(0.590779 0.552889 -2.95884e-19)
(0.558806 0.508746 -1.3333e-19)
(0.537988 0.470945 1.6298e-19)
(0.518865 0.434984 -6.8912e-22)
(0.472078 0.380064 2.38986e-19)
(0.350316 0.272966 -5.65313e-19)
(0.168471 0.127023 6.70279e-19)
(0.0210013 0.0150801 9.55688e-20)
(0.232992 0.176481 2.52065e-19)
(1.06027 0.806035 -1.9839e-19)
(1.21305 0.933112 1.15622e-20)
(1.20194 0.942268 4.31628e-19)
(1.15096 0.923096 1.50704e-19)
(1.09095 0.898648 4.31637e-19)
(1.02363 0.870139 -5.37269e-20)
(0.948303 0.836631 1.43822e-19)
(0.864432 0.796258 -1.742e-20)
(0.771488 0.745636 -2.38923e-19)
(0.68293 0.687458 0)
(0.613439 0.630038 -3.1205e-19)
(0.562854 0.576474 4.2921e-19)
(0.528211 0.528151 0)
(0.506191 0.485595 -3.48588e-19)
(0.486349 0.444073 2.16145e-19)
(0.437652 0.381172 -2.58173e-19)
(0.315393 0.264386 -3.09691e-19)
(0.142977 0.115216 -5.45574e-19)
(0.0151235 0.0115005 -4.19186e-19)
(0.232703 0.183961 -2.76288e-19)
(1.05133 0.835026 2.11792e-19)
(1.2013 0.966108 5.06753e-19)
(1.18975 0.97532 5.91943e-19)
(1.13877 0.955352 -3.14927e-19)
(1.07869 0.930103 2.96454e-19)
(1.01117 0.900826 -1.66998e-19)
(0.935307 0.866688 1.75694e-19)
(0.850323 0.825834 1.96764e-21)
(0.75524 0.77481 2.2541e-19)
(0.663239 0.715902 8.16788e-19)
(0.589634 0.656845 0)
(0.534873 0.600443 0)
(0.496522 0.54796 -1.54017e-19)
(0.472326 0.499846 0)
(0.45121 0.450879 4.70659e-19)
(0.400668 0.377823 5.643e-19)
(0.279084 0.25083 0)
(0.117946 0.100912 0)
(0.00979831 0.00787662 4.56462e-19)
(0.232154 0.190922 3.03959e-19)
(1.04268 0.862281 2.52765e-19)
(1.18986 0.996942 3.63184e-19)
(1.17793 1.00619 -5.26646e-19)
(1.12701 0.9855 -3.49952e-19)
(1.06695 0.959545 -3.91591e-19)
(0.999331 0.929625 2.46638e-19)
(0.923056 0.89502 7.22827e-22)
(0.837114 0.853916 -9.35069e-21)
(0.740041 0.802852 -1.18173e-20)
(0.644647 0.743761 4.12617e-19)
(0.566689 0.683665 0)
(0.507177 0.625013 4.31883e-19)
(0.463919 0.568787 3.23947e-19)
(0.435874 0.514513 8.28931e-19)
(0.412118 0.455343 2.53623e-19)
(0.359979 0.368051 -3.11663e-19)
(0.242914 0.229839 -1.82631e-19)
(0.0972168 0.0839981 0)
(0.00628071 0.00474419 4.95892e-19)
(0.231797 0.197792 -6.66193e-19)
(1.03431 0.887909 0)
(1.17875 1.02569 4.0425e-19)
(1.1665 1.03497 -4.30062e-19)
(1.11572 1.01363 3.94518e-19)
(1.05574 0.987062 5.69586e-19)
(0.988136 0.956596 -5.68404e-19)
(0.911572 0.921668 6.53547e-21)
(0.824826 0.880511 0)
(0.725951 0.82972 -2.04758e-19)
(0.627294 0.770986 -8.50227e-19)
(0.544861 0.710495 4.20917e-20)
(0.480203 0.650305 5.84946e-19)
(0.430846 0.591246 0)
(0.396505 0.530917 5.58325e-19)
(0.367037 0.458496 0)
(0.311667 0.349581 0)
(0.20675 0.193374 -2.03465e-19)
(0.0942252 0.054591 0)
(0.0250895 0.0108307 1.33865e-19)
(0.231116 0.204029 -7.25861e-19)
(1.02619 0.912193 0)
(1.16797 1.05257 6.52042e-19)
(1.15543 1.06187 0)
(1.10487 1.04001 -2.13099e-19)
(1.04501 1.01293 0)
(0.977518 0.982041 -4.21273e-20)
(0.90076 0.946957 -2.99489e-20)
(0.813349 0.905974 -2.48822e-21)
(0.712832 0.855788 -1.96625e-19)
(0.61107 0.797983 2.19547e-20)
(0.524061 0.737869 3.47508e-19)
(0.453853 0.676805 5.64729e-19)
(0.397222 0.616294 8.0924e-20)
(0.353417 0.551329 4.35676e-19)
(0.312889 0.463808 0)
(0.244441 0.324567 6.79795e-19)
(0.146391 0.128536 -4.00278e-19)
(0.0566615 0.0624238 4.56323e-19)
(-0.0558275 0.394237 -5.38731e-19)
(0.230419 0.209995 5.90369e-19)
(1.01808 0.935081 9.52647e-19)
(1.15743 1.07788 0)
(1.14462 1.08733 9.22987e-21)
(1.09428 1.06516 5.77534e-19)
(1.03452 1.03779 -1.09447e-18)
(0.967203 1.00672 -2.4857e-19)
(0.890268 0.971789 0)
(0.802231 0.931354 -6.14107e-20)
(0.70012 0.88233 -5.12824e-21)
(0.5952 0.826203 0)
(0.503324 0.767556 0)
(0.426991 0.706396 4.94081e-19)
(0.36219 0.64586 -2.52502e-19)
(0.30493 0.579714 -4.33275e-19)
(0.245886 0.479664 0)
(0.135884 0.307778 3.3991e-19)
(0.0288097 0.440228 -3.98151e-19)
(0.044585 1.77623 -2.08971e-19)
(0.0804354 2.75062 -2.79092e-19)
(0.229538 0.215192 -4.28013e-19)
(1.01017 0.956659 -1.19709e-18)
(1.14714 1.10163 3.73336e-19)
(1.13405 1.11118 3.61416e-19)
(1.08403 1.0889 0)
(1.02433 1.06139 -7.81255e-19)
(0.957362 1.03033 -4.14625e-19)
(0.88025 0.995746 1.9657e-20)
(0.791697 0.956146 -8.29514e-21)
(0.688142 0.908723 1.42079e-19)
(0.580229 0.854916 3.7157e-19)
(0.483591 0.79896 3.53252e-19)
(0.400824 0.738571 4.82791e-19)
(0.328156 0.67819 -5.7294e-19)
(0.257127 0.617479 -6.3787e-19)
(0.171437 0.514905 0)
(0.0755433 0.809927 0)
(0.129815 2.46758 1.7592e-19)
(0.136144 3.16321 0)
(0.13734 3.37227 3.76522e-19)
(0.231513 0.220226 0)
(1.00301 0.977103 0)
(1.13683 1.12368 0)
(1.12351 1.13323 1.00266e-19)
(1.0738 1.11101 5.12674e-19)
(1.01422 1.08358 -5.9403e-19)
(0.947897 1.05278 -2.95996e-19)
(0.870648 1.01872 2.22044e-20)
(0.781697 0.980202 -1.40334e-19)
(0.676908 0.934811 -1.98523e-20)
(0.566275 0.883967 6.61161e-19)
(0.465196 0.831832 -4.13897e-20)
(0.375868 0.773897 5.3821e-20)
(0.29647 0.710728 8.09747e-20)
(0.21641 0.661406 3.26009e-21)
(0.139182 0.912939 3.38114e-21)
(0.179221 2.60055 -8.71734e-19)
(0.199162 3.26751 -3.25846e-19)
(0.181848 3.42434 1.46857e-19)
(0.163205 3.45085 -1.47995e-19)
(0.150738 0.172697 2.34907e-19)
(0.990059 0.999488 0)
(1.12633 1.14419 -7.26245e-19)
(1.11367 1.154 -9.25555e-19)
(1.06421 1.13214 1.06807e-18)
(1.00496 1.10492 6.31073e-19)
(0.938667 1.07413 3.42592e-19)
(0.861526 1.0408 -3.74823e-19)
(0.772387 1.00359 1.47639e-19)
(0.666769 0.960527 0)
(0.553913 0.913148 2.77996e-19)
(0.448956 0.865477 -2.5889e-19)
(0.353314 0.814025 0)
(0.267177 0.747036 6.84903e-20)
(0.199335 0.848167 1.66131e-19)
(0.186929 2.25689 -2.08687e-19)
(0.270494 3.30484 2.27519e-19)
(0.247126 3.44526 1.08018e-19)
(0.206006 3.47165 1.20666e-19)
(0.178822 3.48383 1.4432e-19)
(0.269056 0.254735 -4.23415e-19)
(0.971493 1.00527 0)
(1.1068 1.16659 7.35434e-19)
(1.10003 1.18481 9.53208e-19)
(1.04887 1.1631 -1.0863e-18)
(0.989583 1.13642 -6.64139e-19)
(0.922848 1.10697 -5.27842e-19)
(0.845614 1.07488 -2.78896e-20)
(0.75586 1.03996 -2.10318e-19)
(0.648517 1.00109 -1.5448e-20)
(0.532095 0.960613 9.96244e-21)
(0.421151 0.921724 1.94281e-19)
(0.313555 0.885336 4.26805e-20)
(0.244423 0.984437 -6.19106e-20)
(0.274998 2.14836 -1.43446e-19)
(0.348194 3.30355 9.26492e-20)
(0.337006 3.48537 -7.84669e-20)
(0.294535 3.51144 -4.36488e-20)
(0.251994 3.54211 2.55766e-20)
(0.191395 3.53323 4.79721e-22)
(0.256879 0.251039 0)
(0.967738 1.02553 1.92758e-19)
(1.09841 1.18803 -1.46312e-19)
(1.09007 1.2062 -1.06662e-19)
(1.03926 1.18456 -7.15165e-19)
(0.98027 1.1581 6.49716e-19)
(0.913507 1.12884 3.55475e-19)
(0.836535 1.09756 -2.92364e-20)
(0.746928 1.06417 2.59512e-19)
(0.639307 1.02825 -2.75104e-20)
(0.521661 0.992824 -3.27487e-19)
(0.408369 0.960642 2.73787e-20)
(0.303075 0.947214 -3.61911e-20)
(0.289189 1.3835 -4.96797e-20)
(0.385475 2.98479 3.69724e-20)
(0.42605 3.47264 2.14205e-21)
(0.376114 3.55236 -1.02889e-19)
(0.334014 3.58062 -1.24119e-19)
(0.275555 3.60704 1.63799e-19)
(0.207592 3.59968 5.77126e-20)
(0.24017 0.247853 4.69328e-19)
(0.962112 1.04796 1.30604e-18)
(1.08936 1.21119 -4.18985e-19)
(1.0797 1.22895 -4.06091e-19)
(1.02921 1.20717 0)
(0.970552 1.18072 9.51636e-19)
(0.904054 1.15169 5.42551e-19)
(0.827634 1.12118 -3.0734e-20)
(0.738521 1.08937 2.70084e-20)
(0.631178 1.05657 1.47751e-19)
(0.513117 1.02644 -8.41458e-20)
(0.399288 1.00208 -1.7894e-19)
(0.309569 1.05154 -2.27315e-19)
(0.368006 1.9667 2.48185e-19)
(0.484504 3.34533 9.17609e-20)
(0.483602 3.54938 0)
(0.423919 3.6003 0)
(0.383332 3.65417 1.62228e-19)
(0.30525 3.72776 0)
(0.220416 3.68803 2.65471e-19)
(0.228523 0.248061 -6.87409e-19)
(0.954299 1.07096 -1.09038e-18)
(1.07888 1.2353 0)
(1.06814 1.25241 1.04566e-20)
(1.01802 1.23024 -6.9888e-19)
(0.959814 1.20366 1.41576e-18)
(0.893918 1.17485 3.65014e-19)
(0.818283 1.14499 -3.8072e-20)
(0.729952 1.11467 2.88244e-19)
(0.623341 1.08493 -1.54091e-20)