/*--------------------------------*- C++ -*----------------------------------*\
| =========                 |                                                 |
| \\      /  F ield         | OpenFOAM: The Open Source CFD Toolbox           |
|  \\    /   O peration     | Version:  2306                                  |
|   \\  /    A nd           | Website:  www.openfoam.com                      |
|    \\/     M anipulation  |                                                 |
\*---------------------------------------------------------------------------*/
FoamFile
{
    version     2.0;
    format      ascii;
    arch        "LSB;label=32;scalar=64";
    class       volVectorField;
    location    "54";
    object      U;
}
// * * * * * * * * * * * * * * * * * * * * * * * * * * * * * * * * * * * * * //

dimensions      [0 1 -1 0 0 0 0];

internalField   nonuniform List<vector> 
8800
(
(0.984956 -0.0884528 0)
(1.00212 -0.0568274 0)
(0.999646 -0.0305613 0)
(0.999989 -0.0158701 0)
(1.00006 -0.00873083 0)
(1.00008 -0.00509514 0)
(1.00005 -0.00300565 0)
(1.00002 -0.00169387 0)
(0.999997 -0.000789176 0)
(1.00006 -8.74488e-05 0)
(0.999987 0.000624425 0)
(0.999995 0.00138127 0)
(1.00001 0.00240819 0)
(1.00003 0.00400584 0)
(1.00004 0.00671538 0)
(1 0.01174 0)
(0.999826 0.022051 0)
(0.999163 0.041167 0)
(1.00748 0.0768947 0)
(0.773653 0.0450711 0)
(0.361 -0.0151717 0)
(1.04556 -0.0742031 0)
(1.08709 -0.0678937 0)
(1.04774 -0.0523084 0)
(1.02457 -0.0384089 0)
(1.01238 -0.0261327 0)
(1.00649 -0.0167838 0)
(1.00362 -0.0102622 0)
(1.00219 -0.00561056 0)
(1.00152 -0.00199882 0)
(1.00139 0.00123407 0)
(1.00173 0.00455948 0)
(1.0027 0.00846829 0)
(1.00471 0.0138071 0)
(1.0088 0.0215315 0)
(1.01734 0.0323496 0)
(1.03443 0.0456881 0)
(1.06547 0.0597942 0)
(1.09408 0.0729225 0)
(0.842204 0.0557151 0)
(0.217073 -0.00164695 0)
(1.07585 -0.0503632 0)
(1.09981 -0.0487281 0)
(1.06463 -0.040184 0)
(1.03996 -0.0330263 0)
(1.02377 -0.0257292 0)
(1.014 -0.0183375 0)
(1.00852 -0.0115989 0)
(1.00566 -0.00578586 0)
(1.00448 -0.0004592 0)
(1.0048 0.00468471 0)
(1.00663 0.0100137 0)
(1.01055 0.0160599 0)
(1.01786 0.0229672 0)
(1.0305 0.0302233 0)
(1.05064 0.037223 0)
(1.08034 0.0445604 0)
(1.10617 0.0517744 0)
(0.942808 0.0413349 0)
(0.216459 0.00166792 0)
(0.175892 -0.000645822 0)
(1.01865 -0.035421 0)
(1.10556 -0.0414375 0)
(1.0781 -0.0362807 0)
(1.05284 -0.0302612 0)
(1.03557 -0.0245369 0)
(1.02356 -0.0188011 0)
(1.01564 -0.0127681 0)
(1.01098 -0.00661993 0)
(1.00893 -0.000338578 0)
(1.00946 0.00585856 0)
(1.01256 0.0118191 0)
(1.01859 0.0176326 0)
(1.02832 0.023199 0)
(1.04265 0.0286164 0)
(1.06337 0.0342751 0)
(1.09376 0.0402417 0)
(1.09411 0.0418711 0)
(0.828788 0.0227855 0)
(0.174851 0.000668004 0)
(0.154337 -0.000487715 0)
(0.957269 -0.0255686 0)
(1.10407 -0.0351165 0)
(1.08792 -0.0326831 0)
(1.06139 -0.0281402 0)
(1.04351 -0.0231493 0)
(1.03111 -0.0178816 0)
(1.02242 -0.0123672 0)
(1.01678 -0.00645244 0)
(1.01409 2.48398e-05 0)
(1.01474 0.00650892 0)
(1.01857 0.0123933 0)
(1.02544 0.0176918 0)
(1.03565 0.0226518 0)
(1.05033 0.0274568 0)
(1.07201 0.0319368 0)
(1.10068 0.0358192 0)
(1.0691 0.0339652 0)
(0.741203 0.0143635 0)
(0.15277 0.000512412 0)
(0.139801 -0.000358981 0)
(0.900277 -0.0192273 0)
(1.09641 -0.0301782 0)
(1.09602 -0.0293084 0)
(1.06902 -0.025567 0)
(1.05033 -0.0214765 0)
(1.03739 -0.0167543 0)
(1.02838 -0.011504 0)
(1.02238 -0.00578835 0)
(1.01936 0.000566671 0)
(1.01998 0.00693918 0)
(1.02401 0.012581 0)
(1.03107 0.0175491 0)
(1.04158 0.0220222 0)
(1.05687 0.0259754 0)
(1.07946 0.0294642 0)
(1.10295 0.0321427 0)
(1.03718 0.0281077 0)
(0.674568 0.0102473 0)
(0.137591 0.00038799 0)
(0.129139 -0.000274581 0)
(0.850482 -0.0148577 0)
(1.084 -0.0260823 0)
(1.10168 -0.0264231 0)
(1.07584 -0.02313 0)
(1.05663 -0.0194986 0)
(1.04326 -0.0152994 0)
(1.03388 -0.0104245 0)
(1.02763 -0.00492363 0)
(1.0244 0.00123892 0)
(1.02491 0.00738458 0)
(1.02892 0.0127457 0)
(1.03611 0.0173066 0)
(1.04692 0.0211762 0)
(1.06259 0.0244998 0)
(1.08562 0.0275037 0)
(1.10213 0.0293054 0)
(1.00242 0.023579 0)
(0.62267 0.00786562 0)
(0.126146 0.000309564 0)
(0.121 -0.000212082 0)
(0.808077 -0.0116921 0)
(1.06865 -0.0224948 0)
(1.10517 -0.0238115 0)
(1.08207 -0.0209591 0)
(1.06242 -0.0175505 0)
(1.04877 -0.0136469 0)
(1.03913 -0.00910731 0)
(1.03262 -0.00388304 0)
(1.02916 0.00204594 0)
(1.0295 0.0079229 0)
(1.03347 0.0129337 0)
(1.04072 0.0170345 0)
(1.05163 0.0204192 0)
(1.06755 0.0233446 0)
(1.09094 0.026044 0)
(1.09844 0.0269475 0)
(0.967288 0.0200153 0)
(0.581007 0.00631332 0)
(0.117056 0.000254402 0)
(0.114683 -0.000164115 0)
(0.772316 -0.00932375 0)
(1.05176 -0.0193385 0)
(1.10749 -0.0213996 0)
(1.08791 -0.0189311 0)
(1.06786 -0.0156813 0)
(1.05396 -0.0119475 0)
(1.04413 -0.00761911 0)
(1.03739 -0.002644 0)
(1.03367 0.00301969 0)
(1.03381 0.00858577 0)
(1.03766 0.0132156 0)
(1.04485 0.0169099 0)
(1.05578 0.0199185 0)
(1.07192 0.0225184 0)
(1.095 0.0248762 0)
(1.09196 0.0249827 0)
(0.933128 0.0172548 0)
(0.546582 0.0052483 0)
(0.109582 0.000215422 0)
(0.109744 -0.000126011 0)
(0.742268 -0.00748789 0)
(1.03439 -0.0165417 0)
(1.10885 -0.0191325 0)
(1.09345 -0.0169821 0)
(1.07311 -0.0138345 0)
(1.05893 -0.0102022 0)
(1.04891 -0.0060056 0)
(1.04196 -0.00121131 0)
(1.03797 0.00419308 0)
(1.03784 0.00943059 0)
(1.04148 0.0136944 0)
(1.04854 0.017027 0)
(1.05946 0.0196946 0)
(1.07581 0.0220063 0)
(1.09778 0.0239976 0)
(1.08306 0.0233544 0)
(0.900528 0.0151445 0)
(0.517348 0.00450138 0)
(0.10324 0.00018816 0)
(0.105896 -9.45533e-05 0)
(0.717113 -0.00600991 0)
(1.01737 -0.0140333 0)
(1.10935 -0.0169441 0)
(1.09887 -0.0150823 0)
(1.07826 -0.0119575 0)
(1.06378 -0.00836928 0)
(1.05355 -0.00424794 0)
(1.04635 0.000421191 0)
(1.04206 0.00560243 0)
(1.04159 0.0105274 0)
(1.04494 0.014448 0)
(1.05182 0.017439 0)
(1.06272 0.0197743 0)
(1.07926 0.0218203 0)
(1.09924 0.0234197 0)
(1.07214 0.0220569 0)
(0.869623 0.0135695 0)
(0.491856 0.00398189 0)
(0.0976854 0.000170069 0)
(0.102949 -6.7421e-05 0)
(0.696207 -0.00477271 0)
(1.00132 -0.011746 0)
(1.10915 -0.0147958 0)
(1.10412 -0.0131447 0)
(1.08339 -0.01 0)
(1.0686 -0.0063999 0)
(1.0581 -0.00229763 0)
(1.05061 0.00229444 0)
(1.04595 0.00729826 0)
(1.04506 0.0119413 0)
(1.04806 0.0155287 0)
(1.05473 0.0181795 0)
(1.06559 0.0201855 0)
(1.08227 0.0219738 0)
(1.09973 0.0231661 0)
(1.05951 0.0210923 0)
(0.840278 0.0124372 0)
(0.469029 0.00363304 0)
(0.0926621 0.000159183 0)
(0.10078 -4.25227e-05 0)
(0.679079 -0.00368835 0)
(0.986686 -0.00960889 0)
(1.10845 -0.0126022 0)
(1.10916 -0.011083 0)
(1.08858 -0.00789679 0)
(1.07344 -0.00422931 0)
(1.06263 -8.5967e-05 0)
(1.05479 0.00447547 0)
(1.04966 0.00934887 0)
(1.04826 0.0137331 0)
(1.05084 0.016995 0)
(1.05725 0.0193064 0)
(1.06805 0.0209718 0)
(1.0848 0.0224869 0)
(1.09923 0.0232952 0)
(1.04534 0.0204775 0)
(0.812193 0.0116762 0)
(0.448029 0.00341703 0)
(0.0879701 0.000154066 0)
(0.0993269 -1.80318e-05 0)
(0.665426 -0.00268704 0)
(0.973831 -0.00754691 0)
(1.10756 -0.0103049 0)
(1.11413 -0.00884017 0)
(1.09391 -0.00557896 0)
(1.07838 -0.0017857 0)
(1.0672 0.0024574 0)
(1.05891 0.0070475 0)
(1.05321 0.0118347 0)
(1.0512 0.0159786 0)
(1.05328 0.0189123 0)
(1.05938 0.0208728 0)
(1.0701 0.0221771 0)
(1.08687 0.023423 0)
(1.09754 0.0237851 0)
(1.02973 0.0201905 0)
(0.784977 0.0112294 0)
(0.42818 0.0033075 0)
(0.0834498 0.000153565 0)
(0.098573 8.08092e-06 0)
(0.655092 -0.00171416 0)
(0.963069 -0.00548775 0)
(1.10681 -0.00783702 0)
(1.11914 -0.00633633 0)
(1.09944 -0.00295084 0)
(1.08349 0.00103075 0)
(1.07187 0.00543089 0)
(1.06303 0.0101108 0)
(1.05664 0.014853 0)
(1.05389 0.0187689 0)
(1.05536 0.0213647 0)
(1.06109 0.0229494 0)
(1.07169 0.0238611 0)
(1.08842 0.0248117 0)
(1.0946 0.0246832 0)
(1.01268 0.0202604 0)
(0.758209 0.0110648 0)
(0.40893 0.00328952 0)
(0.0789721 0.00015714 0)
(0.0985389 3.22168e-05 0)
(0.648054 -0.000723256 0)
(0.954702 -0.00335832 0)
(1.10653 -0.00512681 0)
(1.12435 -0.00348553 0)
(1.10527 8.33442e-05 0)
(1.08886 0.00431781 0)
(1.07671 0.00894861 0)
(1.06721 0.0137833 0)
(1.05997 0.0185181 0)
(1.05633 0.0222088 0)
(1.05708 0.0244457 0)
(1.06236 0.0256287 0)
(1.07282 0.0261256 0)
(1.08923 0.0267083 0)
(1.09018 0.0260305 0)
(0.99409 0.0207112 0)
(0.731412 0.0111665 0)
(0.389775 0.0033556 0)
(0.0744175 0.000164433 0)
(0.0992594 7.04062e-05 0)
(0.644391 0.000295964 0)
(0.949046 -0.00108132 0)
(1.10707 -0.00208874 0)
(1.12996 -0.000193149 0)
(1.11151 0.00362769 0)
(1.09459 0.00819991 0)
(1.0818 0.0131423 0)
(1.07149 0.0181975 0)
(1.06322 0.0229674 0)
(1.0585 0.0264378 0)
(1.05839 0.0282843 0)
(1.06312 0.0290237 0)
(1.07341 0.0290811 0)
(1.08916 0.0292367 0)
(1.08417 0.0278608 0)
(0.973755 0.0215627 0)
(0.704065 0.0115218 0)
(0.370245 0.0034982 0)
(0.0696783 0.000174952 0)
(0.100938 0.000103432 0)
(0.64448 0.00145875 0)
(0.946443 0.00142189 0)
(1.10886 0.00138019 0)
(1.13617 0.00364518 0)
(1.11829 0.00784688 0)
(1.10078 0.0128533 0)
(1.08721 0.0181913 0)
(1.0759 0.0235357 0)
(1.06638 0.0283709 0)
(1.06036 0.0316071 0)
(1.05922 0.0330076 0)
(1.06332 0.0332577 0)
(1.07338 0.0328323 0)
(1.088 0.0324934 0)
(1.0763 0.0302589 0)
(0.951376 0.0228532 0)
(0.675621 0.0121308 0)
(0.3499 0.00371436 0)
(0.0646577 0.000188413 0)
(0.103641 0.000152625 0)
(0.648686 0.00288012 0)
(0.947399 0.00429652 0)
(1.1124 0.00539009 0)
(1.14319 0.00819762 0)
(1.12576 0.0129234 0)
(1.10756 0.018471 0)
(1.09304 0.024307 0)
(1.0805 0.0300135 0)
(1.06944 0.0349333 0)
(1.06186 0.0378891 0)
(1.05952 0.0387675 0)
(1.06285 0.0384723 0)
(1.07265 0.0374982 0)
(1.08556 0.036595 0)
(1.06625 0.0333215 0)
(0.926535 0.024625 0)
(0.645478 0.0129964 0)
(0.328301 0.00400079 0)
(0.0592649 0.000204346 0)
(0.107642 0.000217239 0)
(0.657583 0.00455317 0)
(0.952372 0.00769935 0)
(1.11817 0.0101224 0)
(1.15131 0.0136691 0)
(1.13411 0.0190797 0)
(1.11508 0.0253052 0)
(1.09939 0.0317578 0)
(1.08532 0.0378965 0)
(1.07241 0.0428989 0)
(1.06298 0.0454935 0)
(1.05925 0.0457665 0)
(1.06163 0.0448369 0)
(1.07112 0.043228 0)
(1.08181 0.0417006 0)
(1.05365 0.0371463 0)
(0.898702 0.0269115 0)
(0.612985 0.0141141 0)
(0.30502 0.00435019 0)
(0.0534213 0.000221807 0)
(0.113273 0.000305226 0)
(0.671881 0.00664292 0)
(0.962044 0.0118328 0)
(1.12676 0.0158241 0)
(1.16085 0.0203258 0)
(1.1436 0.0266494 0)
(1.12353 0.0337107 0)
(1.10635 0.040894 0)
(1.09038 0.0475095 0)
(1.07521 0.0525479 0)
(1.06359 0.0546593 0)
(1.05824 0.0541953 0)
(1.05956 0.0525258 0)
(1.06865 0.0501969 0)
(1.07657 0.0479215 0)
(1.03799 0.0418339 0)
(0.867227 0.0297444 0)
(0.577453 0.0154727 0)
(0.279658 0.00475051 0)
(0.0470703 0.000239506 0)
(0.121045 0.000430531 0)
(0.692527 0.00937491 0)
(0.977273 0.0170014 0)
(1.13882 0.0228309 0)
(1.1723 0.0285639 0)
(1.15452 0.0360829 0)
(1.13306 0.0441634 0)
(1.11396 0.0521853 0)
(1.09562 0.0592672 0)
(1.07771 0.0642055 0)
(1.06355 0.0656328 0)
(1.0563 0.0642288 0)
(1.05648 0.0617072 0)
(1.06513 0.0585694 0)
(1.06955 0.0553777 0)
(1.01862 0.0474596 0)
(0.831333 0.033124 0)
(0.53817 0.0170365 0)
(0.251874 0.00517903 0)
(0.0401886 0.000255444 0)
(0.131686 0.00061116 0)
(0.72083 0.0131286 0)
(0.999212 0.0236722 0)
(1.15512 0.0316885 0)
(1.18626 0.0389725 0)
(1.16722 0.0480358 0)
(1.14385 0.0573237 0)
(1.12225 0.0662368 0)
(1.10092 0.0736684 0)
(1.07975 0.078243 0)
(1.06269 0.0786812 0)
(1.05334 0.0761013 0)
(1.05226 0.0725554 0)
(1.06031 0.0684422 0)
(1.06022 0.0641361 0)
(0.994763 0.0540768 0)
(0.79015 0.0370181 0)
(0.494462 0.0187357 0)
(0.221457 0.00559979 0)
(0.0328069 0.000267029 0)
(0.146465 0.000902441 0)
(0.758796 0.0185089 0)
(1.0295 0.0326269 0)
(1.17663 0.0433324 0)
(1.20346 0.0526001 0)
(1.182 0.0635639 0)
(1.15594 0.0741626 0)
(1.13105 0.0838309 0)
(1.10604 0.0912752 0)
(1.08107 0.095034 0)
(1.06077 0.0940523 0)
(1.04917 0.090006 0)
(1.04676 0.0852103 0)
(1.0538 0.0799804 0)
(1.04791 0.0743925 0)
(0.965409 0.0616527 0)
(0.74277 0.0413144 0)
(0.445818 0.0204458 0)
(0.188436 0.0059552 0)
(0.025036 0.000270349 0)
(0.16754 0.00140196 0)
(0.809632 0.0266771 0)
(1.07067 0.0454053 0)
(1.20442 0.0595843 0)
(1.22459 0.0715948 0)
(1.19898 0.0842722 0)
(1.16908 0.0959815 0)
(1.1399 0.105905 0)
(1.11045 0.112697 0)
(1.08116 0.114929 0)
(1.05739 0.111932 0)
(1.04351 0.106029 0)
(1.0398 0.0997818 0)
(1.04544 0.0935285 0)
(1.03186 0.0860801 0)
(0.929313 0.0700072 0)
(0.688384 0.0457931 0)
(0.392153 0.0219846 0)
(0.153283 0.00616865 0)
(0.0171096 0.000260116 0)
(0.198268 0.00250938 0)
(0.879009 0.0402884 0)
(1.12634 0.0658211 0)
(1.23895 0.0840233 0)
(1.24934 0.0986523 0)
(1.21751 0.112484 0)
(1.18243 0.124375 0)
(1.14803 0.133448 0)
(1.11353 0.138487 0)
(1.07961 0.138188 0)
(1.0523 0.132427 0)
(1.03616 0.124229 0)
(1.0312 0.116297 0)
(1.03501 0.108909 0)
(1.011 0.0990751 0)
(0.884998 0.0787812 0)
(0.626617 0.0500816 0)
(0.334474 0.0231786 0)
(0.117413 0.00619103 0)
(0.00951409 0.000228889 0)
(0.240195 0.00869036 8.0531e-20)
(0.970935 0.067346 7.21009e-20)
(1.19423 0.100139 -2.53786e-20)
(1.27707 0.120308 0)
(1.27495 0.137339 -6.62365e-34)
(1.23553 0.150509 9.71774e-21)
(1.19452 0.160841 -1.76657e-20)
(1.15436 0.167669 0)
(1.11442 0.169896 3.65828e-34)
(1.07553 0.166296 -2.21272e-20)
(1.04441 0.157303 0)
(1.02581 0.146585 -2.63472e-20)
(1.01954 0.137 -7.77276e-20)
(1.02117 0.128812 -3.67098e-20)
(0.982357 0.116269 -1.10345e-20)
(0.827429 0.0900867 -6.5551e-21)
(0.551835 0.0550394 0)
(0.270745 0.024481 4.5746e-21)
(0.0811787 0.00645785 5.38041e-21)
(0.00244154 0.000252381 9.54318e-20)
(0.269467 0.0238899 5.69758e-20)
(1.04691 0.109804 1.03606e-21)
(1.2502 0.149039 6.65904e-21)
(1.31108 0.16929 0)
(1.29734 0.186271 -3.33437e-20)
(1.25085 0.197261 -3.81339e-20)
(1.2039 0.205278 -1.77794e-20)
(1.15784 0.209599 -6.38379e-20)
(1.11215 0.208999 0)
(1.06776 0.202152 9.45105e-20)
(1.03212 0.189999 9.39374e-20)
(1.01051 0.1768 2.79652e-20)
(1.00205 0.165216 1.02094e-19)
(0.997135 0.15459 1.43551e-19)
(0.938501 0.137879 0)
(0.751173 0.103839 2.01841e-19)
(0.464762 0.0611206 2.89093e-19)
(0.204045 0.0258229 3.20195e-19)
(0.0460027 0.00588932 -3.64477e-19)
(-0.00435281 -0.000321265 -6.74968e-21)
(0.270775 0.039804 0)
(1.09499 0.164974 9.61784e-21)
(1.2878 0.209137 0)
(1.33747 0.22893 -4.17423e-20)
(1.3148 0.242923 0)
(1.26237 0.250061 -7.4392e-20)
(1.20986 0.254377 3.62295e-20)
(1.15819 0.255132 -1.28053e-19)
(1.10702 0.250903 -3.13622e-21)
(1.05734 0.240279 4.88841e-20)
(1.01733 0.224669 2.07174e-19)
(0.992707 0.208839 -5.31195e-22)
(0.981735 0.195245 -7.43362e-20)
(0.970787 0.182269 -1.35694e-19)
(0.898822 0.16074 1.6036e-19)
(0.698008 0.118232 -2.8349e-19)
(0.416603 0.0676175 -3.74188e-20)
(0.173607 0.0276627 0)
(0.0315459 0.00527895 -1.01931e-23)
(-0.00716356 -0.00104611 0)
(0.264591 0.0535071 1.09033e-19)
(1.12099 0.223411 -5.62747e-20)
(1.31094 0.273814 -4.68107e-20)
(1.35485 0.293792 1.93378e-20)
(1.32597 0.303924 -3.28769e-20)
(1.26907 0.306587 1.55761e-19)
(1.21193 0.306552 7.55642e-20)
(1.15539 0.303135 0)
(1.09926 0.294764 -2.43982e-19)
(1.04468 0.279955 0)
(1.00054 0.260621 -1.08812e-19)
(0.973011 0.242035 -1.34785e-19)
(0.95964 0.226396 -8.11706e-20)
(0.943983 0.210942 -9.87773e-20)
(0.865348 0.18464 0)
(0.663601 0.134908 0)
(0.393506 0.077303 -2.43107e-19)
(0.163933 0.0316421 4.80811e-20)
(0.0276587 0.00526548 -2.8047e-20)
(-0.00841734 -0.00170099 -3.23276e-20)
(0.257225 0.0655909 -3.22459e-20)
(1.13249 0.28175 0)
(1.32362 0.33945 8.97397e-20)
(1.36417 0.360085 5.31126e-20)
(1.33091 0.366417 7.71643e-20)
(1.27073 0.364624 0)
(1.20998 0.360155 7.33928e-20)
(1.14941 0.352401 1.41642e-19)
(1.08901 0.339701 1.24718e-19)
(1.03001 0.320536 2.31335e-19)
(0.982031 0.297387 0)
(0.951695 0.275989 -2.9128e-19)
(0.935909 0.258175 -1.75786e-19)
(0.916633 0.240209 -1.03953e-19)
(0.836312 0.209653 6.37542e-19)
(0.640959 0.153824 7.5582e-20)
(0.38511 0.0901785 3.53208e-19)
(0.166866 0.0380273 -1.67393e-18)
(0.0313497 0.00674755 9.89163e-19)
(-0.00792867 -0.00201551 -1.17415e-18)
(0.250223 0.0765408 -1.1531e-21)
(1.1348 0.338182 5.5164e-21)
(1.32874 0.404163 -8.17329e-21)
(1.36705 0.425918 -4.8922e-20)
(1.33058 0.428678 -6.23138e-20)
(1.26796 0.422621 3.57804e-21)
(1.20434 0.413886 -7.96819e-20)
(1.14045 0.401893 1.46258e-19)
(1.07638 0.384918 -2.68793e-19)
(1.01347 0.361428 0)
(0.961969 0.334465 -1.31782e-19)
(0.928931 0.310206 -3.23395e-21)
(0.91076 0.29022 -1.92765e-19)
(0.888736 0.269975 0)
(0.809545 0.23561 -1.38674e-19)
(0.623973 0.174842 -3.27868e-19)
(0.383968 0.10534 8.71462e-19)
(0.175105 0.0467874 -8.57106e-19)
(0.0396152 0.0100798 1.21661e-18)
(-0.00594131 -0.00182066 -1.24501e-18)
(0.244393 0.0866892 -8.07796e-22)
(1.13144 0.392039 2.62531e-21)
(1.32842 0.466953 -1.44194e-20)
(1.3649 0.490087 1.72546e-20)
(1.32604 0.489666 -3.09666e-20)
(1.26156 0.479632 0)
(1.19563 0.46689 -7.3034e-20)
(1.12896 0.45087 -1.52947e-19)
(1.06171 0.429799 -1.39476e-19)
(0.995325 0.40211 0)
(0.940608 0.371348 -1.36699e-19)
(0.905033 0.344215 -1.70074e-19)
(0.884666 0.322215 2.09487e-19)
(0.860513 0.299895 -1.27453e-19)
(0.78321 0.262134 -6.07792e-19)
(0.608726 0.197114 3.59948e-19)
(0.384481 0.121724 1.0711e-19)
(0.184832 0.0571497 0)
(0.0493077 0.0148751 -1.18004e-18)
(-0.00330756 -0.00121438 -4.26519e-20)
(0.239825 0.0963598 5.99938e-21)
(1.12468 0.443124 -8.19054e-21)
(1.32414 0.527339 5.11982e-21)
(1.35895 0.551879 6.53265e-20)
(1.31822 0.548712 -1.09673e-19)
(1.25233 0.535071 1.41551e-19)
(1.18452 0.518622 1.57528e-19)
(1.11548 0.498843 -2.44354e-19)
(1.04545 0.473913 8.70085e-20)
(0.975914 0.442189 -5.69883e-19)
(0.918228 0.407718 -1.55123e-19)
(0.880357 0.377877 0)
(0.858059 0.353964 2.27527e-19)
(0.832237 0.329642 2.73125e-19)
(0.75662 0.28878 3.27354e-19)
(0.59298 0.219936 -3.92187e-19)
(0.38302 0.139007 -1.15986e-19)
(0.192619 0.0687546 1.36044e-19)
(0.0582641 0.0205869 0)
(-0.000557162 -0.000282018 -9.27932e-20)
(0.23641 0.105698 -1.07566e-19)
(1.11612 0.491531 5.74409e-20)
(1.31721 0.585374 -2.18391e-21)
(1.35022 0.610949 3.6149e-20)
(1.30794 0.605418 -4.65045e-20)
(1.24095 0.588528 -8.09024e-21)
(1.1716 0.568721 -1.72627e-19)
(1.10053 0.545496 -8.85383e-20)
(1.028 0.516969 -2.42677e-19)
(0.955572 0.481417 5.91019e-22)
(0.895147 0.443421 -4.85229e-19)
(0.855207 0.411032 4.1168e-19)
(0.831146 0.385186 -2.5045e-19)
(0.803742 0.358674 3.01692e-19)
(0.72973 0.314702 0)
(0.575689 0.242063 -2.13454e-19)
(0.3784 0.1561 -1.0846e-22)
(0.196992 0.0802647 -5.94401e-19)
(0.0649165 0.0263251 -8.68709e-20)
(0.00175907 0.000696865 0)
(0.234022 0.114842 0)
(1.10666 0.537484 6.81952e-20)
(1.30835 0.64081 1.79596e-20)
(1.33948 0.66718 -2.92532e-20)
(1.29585 0.659568 -6.27538e-20)
(1.22801 0.639773 0)
(1.15738 0.616957 -7.66256e-20)
(1.08455 0.590613 -2.15127e-21)
(1.00976 0.558788 5.20103e-19)
(0.934627 0.519653 -7.80543e-20)
(0.871642 0.478324 -3.50548e-19)
(0.829779 0.443358 2.13717e-19)
(0.804074 0.415379 -4.3766e-21)
(0.775282 0.386492 3.206e-19)
(0.702486 0.339308 1.98365e-19)
(0.556525 0.262354 -4.6168e-19)
(0.370382 0.171848 5.45276e-19)
(0.197025 0.0906333 1.60933e-19)
(0.0683882 0.0313085 6.61625e-19)
(0.00335847 0.00155591 -1.74037e-18)
(0.232599 0.123941 -3.96698e-20)
(1.09695 0.58117 5.20361e-20)
(1.29838 0.693332 -3.37052e-20)
(1.32732 0.720549 1.51459e-20)
(1.28251 0.711049 0)
(1.21399 0.688672 -6.09302e-20)
(1.1423 0.663193 2.59176e-19)
(1.06792 0.634063 1.93155e-19)
(0.991047 0.599249 0)
(0.913344 0.556804 -1.12623e-18)
(0.847898 0.512255 9.48319e-19)
(0.80418 0.474538 0)
(0.776949 0.444211 2.92719e-19)
(0.746891 0.412928 -4.39192e-21)
(0.674654 0.36187 -6.33507e-19)
(0.535341 0.280403 2.4756e-19)
(0.359169 0.185531 0)
(0.193177 0.0990058 8.68126e-19)
(0.0685337 0.0349104 0)
(0.00415291 0.00212987 -8.23459e-19)
(0.231968 0.133052 4.87838e-20)
(1.08747 0.622711 7.10731e-20)
(1.2875 0.743035 -3.25277e-20)
(1.31421 0.771056 0)
(1.26836 0.759839 -4.72243e-20)
(1.19931 0.735184 0)
(1.12672 0.707356 -2.52461e-19)
(1.05095 0.675767 -8.82712e-20)
(0.972139 0.638286 9.10522e-20)
(0.891959 0.592817 -5.56898e-19)
(0.824052 0.545097 9.76725e-20)
(0.778486 0.504457 0)
(0.749869 0.471718 -6.24579e-19)
(0.718493 0.437852 4.3656e-21)
(0.646161 0.382327 0)
(0.512328 0.296 3.13507e-21)
(0.344734 0.196611 7.96291e-19)
(0.185753 0.10491 -7.50081e-19)
(0.0660666 0.0368373 2.20123e-19)
(0.00420148 0.00233178 0)
(0.23181 0.142055 0)
(1.07851 0.662188 8.80171e-20)
(1.27606 0.790082 5.30242e-20)
(1.30055 0.818747 -4.8898e-21)
(1.25377 0.805964 -1.10269e-20)
(1.18429 0.779305 -1.3608e-19)
(1.11095 0.749428 9.53393e-20)
(1.03392 0.715687 -1.05265e-19)
(0.953286 0.675857 4.07587e-19)
(0.870665 0.627662 -8.89097e-19)
(0.80021 0.576824 -7.51551e-21)
(0.752751 0.533215 -2.72579e-19)
(0.722825 0.498084 1.01331e-18)
(0.689912 0.461144 -5.11595e-21)
(0.616934 0.400353 -4.91143e-19)
(0.487402 0.308855 -8.75351e-19)
(0.327582 0.204719 0)
(0.175202 0.108136 0)
(0.061457 0.037225 2.37046e-19)
(0.00373807 0.00221522 -1.37339e-19)
(0.232219 0.151104 7.1159e-20)
(1.07 0.699464 -2.03091e-19)
(1.26437 0.83453 -5.70922e-20)
(1.28665 0.863705 0)
(1.23901 0.849482 -3.05034e-21)
(1.1692 0.821063 -1.18486e-19)
(1.09523 0.789415 2.26118e-19)
(1.01706 0.753815 4.10239e-19)
(0.934693 0.711955 5.2794e-19)
(0.849637 0.661335 -7.24711e-19)
(0.776495 0.607515 -8.13163e-19)
(0.727025 0.561044 7.28453e-19)
(0.695719 0.523415 0)
(0.660957 0.482507 -2.23005e-19)
(0.587036 0.415636 -5.31083e-19)
(0.461208 0.318771 -6.28426e-19)
(0.308037 0.209673 -7.42265e-19)
(0.16195 0.108624 2.18638e-19)
(0.0549607 0.0360432 -1.27975e-19)
(0.00291183 0.00185944 5.23399e-22)
(0.232793 0.160042 0)
(1.06214 0.735111 0)
(1.25265 0.876484 4.99583e-21)
(1.27271 0.906019 0)
(1.2243 0.890483 9.08572e-21)
(1.15425 0.86052 7.51295e-20)
(1.07975 0.827342 0)
(1.00055 0.790157 4.79096e-20)
(0.91654 0.746579 8.77969e-19)
(0.82904 0.693855 -1.66495e-18)
(0.753046 0.637313 0)
(0.701363 0.588169 -4.68285e-19)
(0.668405 0.547645 -6.06677e-21)
(0.631437 0.501612 -4.82255e-21)
(0.556596 0.428057 5.67089e-19)
(0.434084 0.325712 -4.65245e-22)
(0.286404 0.211358 -1.5974e-18)
(0.146661 0.106362 4.70026e-19)
(0.0473364 0.0334448 1.38273e-19)
(0.00186828 0.00128897 0)
(0.23341 0.168839 -2.89747e-19)
(1.05465 0.769088 -1.41034e-19)
(1.24097 0.916012 -1.78816e-19)
(1.2589 0.945785 1.55795e-19)
(1.20981 0.929041 -1.49654e-20)
(1.1396 0.897738 0)
(1.06466 0.863255 1.33062e-19)
(0.984533 0.824736 -1.07167e-19)
(0.898971 0.779744 7.70159e-21)
(0.80903 0.725261 1.22771e-19)
(0.730008 0.666373 1.04999e-18)
(0.675807 0.614746 -1.63992e-19)
(0.640729 0.570656 -6.22978e-19)
(0.601219 0.518258 -2.59398e-19)
(0.525757 0.437556 3.0805e-19)
(0.406386 0.32946 -9.51496e-23)
(0.26348 0.209619 4.29913e-19)
(0.13033 0.101573 -1.01026e-18)
(0.0393559 0.0297997 1.18872e-18)
(0.000759736 0.000592683 1.7073e-19)
(0.23389 0.177371 1.11175e-19)
(1.04754 0.801497 -8.02272e-20)
(1.22946 0.953214 1.22196e-20)
(1.24535 0.983126 1.06699e-19)
(1.19567 0.965269 1.66034e-20)
(1.12537 0.93279 -1.24926e-19)
(1.05008 0.897199 3.6638e-20)
(0.969127 0.857572 -4.44521e-19)
(0.882109 0.811449 -9.61622e-19)
(0.78974 0.755571 -9.88317e-19)
(0.70754 0.694819 0)
(0.650406 0.640854 -7.19906e-19)
(0.612584 0.59239 8.97206e-19)
(0.570168 0.532445 0)
(0.494466 0.444006 -6.58921e-19)
(0.378355 0.3295 3.92442e-19)
(0.240335 0.204225 -4.61593e-19)
(0.114297 0.0946688 -5.43005e-19)
(0.0317934 0.0255807 -9.56467e-19)
(-0.000288675 -0.00013022 -7.34564e-19)
(0.234694 0.18576 -1.26238e-19)
(1.04067 0.832319 8.57362e-20)
(1.21818 0.98816 1.95272e-19)
(1.23215 1.01812 1.59816e-19)
(1.18197 0.999258 -2.75943e-20)
(1.11164 0.965762 -5.98606e-20)
(1.03609 0.929226 1.23381e-19)
(0.954415 0.888706 -4.53283e-19)
(0.866037 0.841719 -5.67647e-19)
(0.771293 0.784818 1.03089e-18)
(0.685779 0.722726 2.29877e-18)
(0.625242 0.666531 0)
(0.583925 0.612931 0)
(0.538087 0.544434 -2.98161e-19)
(0.462324 0.447197 0)
(0.349988 0.324919 8.4307e-19)
(0.218164 0.194451 9.91655e-19)
(0.100514 0.0857342 0)
(0.0259101 0.0212431 0)
(-0.00110015 -0.000778441 7.88449e-19)
(0.235141 0.1937 1.44809e-19)
(1.03406 0.861541 1.19465e-19)
(1.20721 1.02097 1.42283e-19)
(1.21934 1.05091 -1.58968e-19)
(1.16878 1.03111 -4.39144e-20)
(1.09848 0.996729 5.06979e-20)
(1.02276 0.959395 -1.67067e-19)
(0.940457 0.918166 -4.385e-22)
(0.85083 0.870559 -9.96179e-21)
(0.753787 0.813011 -1.00186e-20)
(0.664875 0.750117 1.18186e-18)
(0.600432 0.691791 0)
(0.554806 0.632523 9.06095e-19)
(0.504753 0.55471 6.34948e-19)
(0.428511 0.447103 1.53396e-18)
(0.320624 0.314514 4.53368e-19)
(0.198126 0.178022 -5.33311e-19)
(0.0928592 0.0723748 -3.12203e-19)
(0.0268315 0.0157362 0)
(-5.24283e-05 -0.000767107 8.46136e-19)
(0.23587 0.201643 -3.27615e-19)
(1.02768 0.889253 0)
(1.19651 1.0517 1.70001e-19)
(1.20697 1.08158 -1.36701e-19)
(1.15614 1.06093 6.9194e-20)
(1.08592 1.02578 -3.49203e-20)
(1.01011 0.987762 3.13365e-19)
(0.927288 0.945987 -3.78126e-20)
(0.836528 0.89798 0)
(0.737303 0.840129 -1.13024e-18)
(0.644962 0.776965 -2.56136e-18)
(0.576135 0.716667 1.05507e-19)
(0.525405 0.651511 1.24715e-18)
(0.470028 0.563954 0)
(0.391867 0.444316 1.0336e-18)
(0.28803 0.297451 0)
(0.178611 0.150007 0)
(0.0955228 0.041685 -3.37375e-19)
(0.0552728 -0.00167678 0)
(0.0279091 0.0113381 2.264e-19)
(0.236221 0.208973 -3.683e-19)
(1.02149 0.915799 0)
(1.1861 1.08055 2.84494e-19)
(1.19498 1.11036 0)
(1.14402 1.08898 -4.50297e-20)
(1.0739 1.05319 0)
(0.998096 1.01464 1.37301e-20)
(0.914813 0.972512 6.12716e-20)
(0.823012 0.92435 7.04858e-20)
(0.721677 0.866563 -1.23373e-18)
(0.625863 0.803672 7.63754e-20)
(0.552136 0.741743 8.4824e-19)
(0.49541 0.670729 1.21389e-18)
(0.433118 0.57302 1.64081e-19)
(0.350502 0.440434 8.08771e-19)
(0.247515 0.27483 0)
(0.148388 0.107048 1.12323e-18)
(0.0803784 -0.0074745 -6.54104e-19)
(0.0419222 0.0474916 7.50208e-19)
(-0.0595797 0.434641 -8.90007e-19)
(0.236533 0.216096 3.06374e-19)
(1.01524 0.940955 4.79996e-19)
(1.1759 1.10784 0)
(1.18323 1.13769 9.91719e-21)
(1.13222 1.11583 1.38567e-19)
(1.06215 1.07965 -1.54235e-20)
(0.986396 1.04083 1.01876e-19)
(0.902626 0.998681 0)
(0.809757 0.950765 4.62742e-19)
(0.706248 0.893628 -6.39149e-20)
(0.606665 0.831689 0)
(0.52721 0.768686 0)
(0.463032 0.6918 1.0864e-18)
(0.391851 0.582813 -5.07443e-19)
(0.301305 0.437625 -8.18764e-19)
(0.194426 0.250545 0)
(0.0859313 0.108544 5.59897e-19)
(0.00707184 0.442679 -6.42386e-19)
(0.0321218 1.89279 -3.52679e-19)
(0.062978 2.80991 -4.65724e-19)
(0.236605 0.22244 -2.30415e-19)
(1.00902 0.964881 -6.16923e-19)
(1.16592 1.13356 1.70007e-19)
(1.17174 1.16345 1.38172e-19)
(1.12078 1.14127 0)
(1.05077 1.10489 -3.30704e-20)
(0.975214 1.06602 1.29116e-19)
(0.890914 1.02406 -2.90325e-20)
(0.797031 0.976706 6.90536e-20)
(0.691393 0.920707 1.17074e-18)
(0.587951 0.860276 1.28606e-18)
(0.502315 0.797103 9.46528e-19)
(0.429198 0.714844 1.09086e-18)
(0.34788 0.592386 -1.18915e-18)
(0.250257 0.439365 -1.23442e-18)
(0.128906 0.288501 0)
(0.0459991 0.834606 0)
(0.0999973 2.55366 3.07744e-19)
(0.102563 3.2016 0)
(0.104989 3.38794 6.77715e-19)
(0.239723 0.228277 0)
(1.00341 0.987837 0)
(1.15589 1.15756 0)
(1.16025 1.18746 4.23594e-20)
(1.10936 1.16504 1.28882e-19)
(1.03952 1.12874 -5.06476e-20)
(0.96445 1.0901 7.88354e-20)
(0.879622 1.04854 -2.79362e-20)
(0.784783 1.00202 5.69746e-19)
(0.677124 0.947645 -1.85422e-20)
(0.569831 0.889242 2.53253e-18)
(0.477807 0.826879 -1.0918e-19)
(0.394068 0.740915 1.31718e-19)
(0.303648 0.599617 1.71976e-19)
(0.18908 0.453321 -6.11621e-21)
(0.102883 0.966354 3.54519e-21)
(0.140791 2.72289 -1.62184e-18)
(0.148175 3.29351 -6.02182e-19)
(0.136982 3.42623 3.02833e-19)
(0.124303 3.44813 -3.31884e-19)
(0.158798 0.179679 1.31935e-19)
(0.993326 1.01273 0)
(1.14556 1.18004 -3.38518e-19)
(1.14922 1.2101 -3.72301e-19)
(1.0987 1.18785 3.16213e-19)
(1.02923 1.15183 6.35146e-20)
(0.954027 1.11307 -7.52564e-20)
(0.868854 1.07219 2.94064e-19)
(0.773164 1.02684 -4.60452e-19)
(0.6637 0.974587 0)
(0.552657 0.918713 1.23569e-18)
(0.454238 0.857804 -7.6907e-19)
(0.35831 0.773191 0)
(0.253011 0.607459 1.54229e-19)
(0.148249 0.770109 3.77201e-19)
(0.156193 2.49716 -4.42663e-19)
(0.211931 3.32426 4.88966e-19)
(0.192226 3.43938 2.64014e-19)
(0.159363 3.46072 2.91634e-19)
(0.137805 3.47083 4.6593e-19)
(0.280274 0.267291 -2.32736e-19)
(0.977527 1.02282 0)
(1.12763 1.20578 3.73118e-19)
(1.13482 1.24174 4.16232e-19)
(1.08177 1.22118 -3.54834e-19)
(1.0117 1.18561 -1.09864e-19)
(0.935496 1.14842 4.42624e-20)
(0.849844 1.10882 2.32231e-20)
(0.752892 1.06571 4.32551e-19)
(0.640852 1.01758 9.94197e-19)
(0.524705 0.967338 6.92712e-20)
(0.415478 0.909642 6.79498e-19)
(0.295301 0.817744 1.21383e-19)
(0.214812 0.945752 -1.5519e-19)
(0.229117 2.35052 -3.4896e-19)
(0.288325 3.32813 3.25743e-19)
(0.271998 3.46878 -3.66101e-19)
(0.236466 3.49036 -2.12725e-19)
(0.199797 3.51744 -1.69201e-19)
(0.149248 3.51092 -1.63978e-20)
(0.269509 0.264905 0)
(0.975573 1.04607 1.09321e-19)
(1.11956 1.22947 -7.78307e-20)
(1.12453 1.2655 -5.03794e-20)
(1.07122 1.24451 -2.49719e-19)
(1.00116 1.20914 1.17113e-19)
(0.924675 1.17215 -1.22809e-20)
(0.838852 1.13339 2.03464e-20)
(0.741419 1.09179 -4.46419e-19)
(0.628188 1.04654 -2.7592e-20)
(0.509295 1.00034 -2.22222e-18)
(0.395116 0.945826 9.68879e-20)
(0.282578 0.885531 -1.13805e-19)
(0.254557 1.49565 -1.4371e-19)
(0.327266 3.10477 3.46168e-20)
(0.347152 3.46773 1.37565e-21)
(0.306461 3.52246 5.22667e-19)
(0.269553 3.54855 2.50087e-19)
(0.221137 3.57139 -5.19595e-20)
(0.16391 3.56699 -7.42845e-20)
(0.253725 0.262932 2.76634e-19)
(0.972153 1.07191 7.52315e-19)
(1.11103 1.25525 -2.24471e-19)
(1.11365 1.29063 -1.91144e-19)
(1.06011 1.26922 0)
(0.990212 1.23389 2.25865e-19)
(0.913718 1.19715 1.1985e-20)
(0.827993 1.1592 1.7249e-20)
(0.730397 1.11918 -4.99328e-20)
(0.616489 1.07703 -8.8607e-19)
(0.495661 1.03505 -1.01882e-18)
(0.378658 0.984228 -7.85849e-19)
(0.281262 1.01713 -8.63606e-19)
(0.322682 2.21304 8.86555e-19)
(0.412532 3.3797 7.20718e-19)
(0.39063 3.52531 0)
(0.344467 3.56902 0)
(0.306404 3.60842 -4.01614e-20)
(0.256562 3.66637 0)
(0.175834 3.64281 -3.12367e-20)
(0.243167 0.264824 -4.1819e-19)
(0.966602 1.09866 -6.44114e-19)
(1.1011 1.2823 0)
(1.10146 1.31655 1.17992e-20)
(1.04776 1.29456 -2.77503e-19)
(0.978173 1.25915 3.75289e-19)
(0.901997 1.22271 2.53674e-20)
(0.816581 1.18546 7.55195e-21)
(0.719066 1.14696 -3.04432e-19)
(0.604885 1.10783 4.35018e-20)