/*--------------------------------*- C++ -*----------------------------------*\
| =========                 |                                                 |
| \\      /  F ield         | OpenFOAM: The Open Source CFD Toolbox           |
|  \\    /   O peration     | Version:  2306                                  |
|   \\  /    A nd           | Website:  www.openfoam.com                      |
|    \\/     M anipulation  |                                                 |
\*---------------------------------------------------------------------------*/
FoamFile
{
    version     2.0;
    format      ascii;
    arch        "LSB;label=32;scalar=64";
    class       volScalarField;
    location    "24";
    object      p;
}
// * * * * * * * * * * * * * * * * * * * * * * * * * * * * * * * * * * * * * //

dimensions      [0 2 -2 0 0 0 0];

internalField   nonuniform List<scalar> 
8800
(
0.432137
0.384086
0.345708
0.317063
0.29643
0.281659
0.271029
0.263483
0.258582
0.256418
0.25755
0.261623
0.268181
0.277431
0.290122
0.307666
0.332079
0.365667
0.408093
0.465214
0.264671
0.271876
0.280313
0.283728
0.281809
0.276278
0.269552
0.263363
0.258555
0.255606
0.255196
0.257567
0.261952
0.267842
0.27467
0.281227
0.285316
0.284777
0.278684
0.269687
0.24139
0.247569
0.251769
0.255131
0.257628
0.258415
0.257286
0.255099
0.252985
0.251952
0.252764
0.255014
0.257719
0.259828
0.260276
0.25868
0.25578
0.252102
0.24755
0.243759
0.23627
0.238974
0.241706
0.244028
0.245679
0.247001
0.247888
0.248049
0.247707
0.247533
0.248116
0.249099
0.249732
0.249541
0.248638
0.247355
0.245534
0.242974
0.240513
0.238982
0.231109
0.232535
0.234357
0.236437
0.238208
0.239519
0.240525
0.241346
0.241929
0.242373
0.242817
0.243069
0.242919
0.242412
0.241578
0.240253
0.238451
0.236486
0.235119
0.234298
0.226155
0.227072
0.228344
0.229971
0.231664
0.233214
0.234481
0.235512
0.236415
0.237171
0.237611
0.237654
0.237361
0.23672
0.23566
0.234274
0.232775
0.23139
0.230514
0.229977
0.221371
0.222034
0.223048
0.22443
0.225925
0.227466
0.228957
0.230268
0.231369
0.232275
0.232816
0.23288
0.23249
0.231674
0.230575
0.229366
0.228136
0.227045
0.226394
0.226009
0.216785
0.217289
0.218139
0.21938
0.220767
0.222237
0.223758
0.225254
0.226605
0.227715
0.228381
0.228453
0.228011
0.227225
0.226259
0.225212
0.224155
0.223257
0.22275
0.22246
0.21235
0.212735
0.213475
0.214637
0.215986
0.217404
0.218889
0.220431
0.22195
0.223294
0.22412
0.224289
0.223974
0.223364
0.222576
0.22166
0.220717
0.219952
0.219551
0.219333
0.208081
0.208373
0.20902
0.210113
0.211421
0.212833
0.214329
0.215894
0.217505
0.219055
0.220114
0.220526
0.220459
0.220051
0.21941
0.218637
0.217823
0.217183
0.216872
0.216709
0.203949
0.204162
0.204756
0.20585
0.207183
0.208645
0.210259
0.211985
0.213773
0.215533
0.216923
0.217641
0.217778
0.217497
0.216972
0.216302
0.215555
0.214991
0.214752
0.214638
0.200048
0.200185
0.200703
0.201725
0.202997
0.2044
0.205962
0.207743
0.209749
0.211873
0.21362
0.214658
0.215126
0.215214
0.214994
0.21455
0.213989
0.213559
0.213401
0.213331
0.196366
0.196451
0.196874
0.197777
0.198964
0.200363
0.202008
0.20393
0.206135
0.208606
0.210857
0.212411
0.213288
0.213672
0.213735
0.213568
0.213264
0.213023
0.212946
0.212901
0.192614
0.192664
0.193004
0.193784
0.19489
0.196271
0.197986
0.200112
0.202704
0.205715
0.208545
0.210586
0.211917
0.212713
0.213133
0.213291
0.213282
0.21325
0.213241
0.213203
0.188343
0.188391
0.188677
0.189367
0.190425
0.191832
0.193662
0.19602
0.199005
0.20263
0.206209
0.208974
0.210899
0.212179
0.213029
0.213548
0.213846
0.214002
0.214042
0.214001
0.183262
0.183319
0.183618
0.184318
0.185432
0.186989
0.189097
0.191901
0.195524
0.199989
0.204467
0.207988
0.210507
0.212291
0.213521
0.214363
0.214911
0.215193
0.215259
0.215212
0.177119
0.177175
0.177543
0.17832
0.179588
0.181403
0.183907
0.187283
0.191697
0.197213
0.202809
0.207273
0.210549
0.212886
0.214543
0.215718
0.216493
0.216872
0.216964
0.216912
0.169735
0.169785
0.170228
0.171201
0.172758
0.174992
0.178077
0.182262
0.187738
0.194578
0.201554
0.207143
0.211217
0.214163
0.216311
0.217838
0.218787
0.219246
0.21937
0.219316
0.160957
0.161002
0.161534
0.162762
0.16474
0.16755
0.171427
0.176648
0.183471
0.191975
0.200628
0.207565
0.212676
0.216373
0.219035
0.220885
0.222041
0.222603
0.222769
0.22271
0.150511
0.15055
0.151202
0.152754
0.155257
0.158843
0.163752
0.170326
0.178854
0.18942
0.200122
0.208701
0.21502
0.219593
0.222889
0.225113
0.22652
0.227222
0.227435
0.227369
0.137974
0.138017
0.138832
0.140769
0.143997
0.148551
0.154794
0.163111
0.173811
0.186941
0.200127
0.210647
0.2184
0.224026
0.228037
0.230787
0.232512
0.233389
0.233649
0.233566
0.122555
0.122613
0.123658
0.126132
0.13028
0.13618
0.144196
0.154807
0.16829
0.184588
0.200749
0.213562
0.223
0.22984
0.234719
0.238083
0.240219
0.241306
0.241614
0.241509
0.103077
0.103165
0.104587
0.107934
0.113387
0.121135
0.131623
0.145289
0.162312
0.182479
0.202155
0.217616
0.228976
0.237222
0.243122
0.247224
0.249846
0.251171
0.251532
0.2514
0.0777523
0.0779096
0.0799923
0.0847373
0.0923037
0.10282
0.116786
0.134517
0.155999
0.1808
0.204523
0.222973
0.236499
0.246345
0.253442
0.258426
0.26163
0.263227
0.263639
0.26347
0.0435319
0.0438677
0.0472855
0.0546648
0.0658113
0.0806514
0.0995843
0.122666
0.149623
0.179804
0.208046
0.229768
0.245668
0.257305
0.265788
0.271825
0.275728
0.277636
0.278089
0.277873
-0.00542927
-0.00411812
0.00281881
0.015664
0.0330584
0.0545853
0.0803806
0.110214
0.143617
0.179799
0.212892
0.238066
0.25648
0.270067
0.280121
0.287423
0.292198
0.294492
0.294979
0.294693
-0.0781171
-0.0699573
-0.0540097
-0.0313344
-0.0045131
0.0259666
0.0601399
0.0977673
0.138355
0.181126
0.219543
0.248588
0.26993
0.285888
0.297993
0.307059
0.313181
0.316248
0.316982
0.316805
-0.15575
-0.137668
-0.111977
-0.0789228
-0.0423608
-0.00279167
0.0398839
0.0855326
0.133769
0.183926
0.228763
0.26281
0.288108
0.307337
0.322256
0.333842
0.341887
0.346185
0.347528
0.347541
-0.219687
-0.198705
-0.164948
-0.12339
-0.0782377
-0.030163
0.0206975
0.0741311
0.129757
0.186958
0.23777
0.27631
0.305047
0.327045
0.344189
0.357455
0.367095
0.372248
0.373343
0.373493
-0.271628
-0.248504
-0.209838
-0.162222
-0.110375
-0.0552489
0.00274976
0.0632544
0.12573
0.189463
0.245689
0.288119
0.319636
0.343663
0.362346
0.376807
0.387393
0.393019
0.394328
0.394591
-0.314456
-0.290313
-0.24809
-0.195805
-0.138625
-0.077757
-0.013724
0.0529517
0.12157
0.191216
0.252261
0.297977
0.331687
0.357221
0.376964
0.392242
0.403158
0.409212
0.410931
0.411219
-0.35102
-0.326277
-0.281406
-0.225429
-0.163837
-0.0981279
-0.0289009
0.0431892
0.117283
0.192263
0.257614
0.306166
0.341638
0.368261
0.388655
0.404306
0.415444
0.421702
0.423597
0.42385
-0.383264
-0.358156
-0.311238
-0.252155
-0.186861
-0.116969
-0.0431821
0.033741
0.112803
0.192682
0.262009
0.313119
0.350106
0.377569
0.398344
0.414107
0.425255
0.431549
0.433562
0.433788
-0.412625
-0.38719
-0.338606
-0.276885
-0.208409
-0.134851
-0.056988
0.0243217
0.107978
0.192473
0.265597
0.319185
0.357598
0.38579
0.406891
0.422713
0.433859
0.440159
0.442255
0.442455
-0.439968
-0.414239
-0.364218
-0.300226
-0.228958
-0.152151
-0.0706376
0.0146816
0.102633
0.191554
0.268421
0.324464
0.364334
0.393325
0.414809
0.430776
0.441911
0.448101
0.450256
0.450502
-0.465989
-0.439913
-0.3885
-0.322633
-0.248845
-0.169152
-0.0843543
0.00464201
0.0966165
0.189809
0.270424
0.329076
0.370581
0.400525
0.422492
0.438657
0.449837
0.455934
0.458031
0.458277
-0.490985
-0.464538
-0.412023
-0.34434
-0.26832
-0.186045
-0.098279
-0.00591527
0.0898298
0.187181
0.271669
0.333165
0.376505
0.407566
0.430172
0.446657
0.457934
0.463973
0.465941
0.46612
-0.515296
-0.488387
-0.434906
-0.365539
-0.287529
-0.202943
-0.112496
-0.0170492
0.0822358
0.183659
0.27212
0.336667
0.382112
0.414523
0.437942
0.454867
0.466292
0.472283
0.474093
0.474182
-0.538985
-0.511598
-0.457234
-0.386337
-0.306556
-0.219902
-0.127038
-0.0287754
0.0738114
0.179156
0.271639
0.339513
0.387384
0.421409
0.445825
0.463301
0.474908
0.480829
0.4825
0.482465
-0.562137
-0.534287
-0.47903
-0.406783
-0.325421
-0.236921
-0.1419
-0.041101
0.0645161
0.173581
0.270138
0.341611
0.392246
0.42819
0.453807
0.471939
0.483734
0.489529
0.491028
0.490884
-0.58483
-0.556447
-0.500314
-0.42687
-0.344114
-0.253975
-0.15705
-0.053997
0.0543572
0.166924
0.267522
0.342798
0.396576
0.43481
0.461873
0.480749
0.492709
0.498282
0.499554
0.499321
-0.60706
-0.57809
-0.521122
-0.44658
-0.36258
-0.271018
-0.172426
-0.0674009
0.0433965
0.159175
0.263683
0.342906
0.40019
0.441179
0.470025
0.489726
0.50173
0.506958
0.507956
0.507643
-0.628675
-0.599155
-0.541394
-0.465874
-0.380775
-0.287969
-0.187949
-0.0812147
0.0317091
0.150356
0.258544
0.341755
0.402856
0.447144
0.478302
0.498989
0.510789
0.515387
0.516027
0.515647
-0.649617
-0.619584
-0.56109
-0.484688
-0.398633
-0.30476
-0.203518
-0.095351
0.0193799
0.140513
0.252068
0.339173
0.404289
0.452439
0.486715
0.508874
0.520152
0.523499
0.523551
0.523145
-0.669959
-0.639333
-0.580176
-0.50298
-0.416084
-0.321305
-0.219044
-0.109701
0.00651681
0.129738
0.244235
0.335031
0.404174
0.456614
0.495061
0.51989
0.530792
0.531793
0.530407
0.530043
-0.689524
-0.658393
-0.598593
-0.520686
-0.43307
-0.337521
-0.234429
-0.124149
-0.0067479
0.118152
0.235082
0.329224
0.402214
0.459017
0.502642
0.532167
0.54458
0.542971
0.538006
0.536476
-0.708395
-0.676759
-0.616359
-0.53783
-0.449621
-0.353453
-0.249728
-0.138752
-0.0204859
0.105686
0.224488
0.321505
0.398108
0.458829
0.508063
0.544564
0.56246
0.56288
0.552118
0.53809
-0.726511
-0.694425
-0.633606
-0.554599
-0.466027
-0.369433
-0.265355
-0.154
-0.0352528
0.0916722
0.211749
0.310983
0.391125
0.454808
0.508354
0.55244
0.576487
0.573082
0.557882
0.542384
-0.743709
-0.711428
-0.650167
-0.570764
-0.482027
-0.385137
-0.281087
-0.169559
-0.0507147
0.0764256
0.197076
0.297393
0.380852
0.446277
0.498458
0.543726
0.568872
0.554033
0.484408
0.449527
-0.75956
-0.728931
-0.665647
-0.585747
-0.496918
-0.400071
-0.296642
-0.185183
-0.0666222
0.0601215
0.180536
0.280595
0.36649
0.433752
0.47565
0.508931
0.517704
0.470447
0.396924
0.351617
-0.808705
-0.74495
-0.679774
-0.600609
-0.511851
-0.415433
-0.312
-0.201078
-0.0832551
0.042408
0.161703
0.260381
0.345204
0.419033
0.427766
0.438724
0.408755
0.345851
0.266777
0.222597
-0.775251
-0.758747
-0.700375
-0.622216
-0.533802
-0.437828
-0.335389
-0.225511
-0.109259
0.0139981
0.129956
0.225099
0.300798
0.373394
0.375292
0.26709
0.161795
0.0892242
0.0141148
0.0540114
-0.805681
-0.776202
-0.716803
-0.638844
-0.550712
-0.455146
-0.352698
-0.243673
-0.128785
-0.00779715
0.104696
0.195509
0.263016
0.301612
0.256183
0.107334
-0.025255
-0.119037
-0.221516
-0.161207
-0.828641
-0.796661
-0.735766
-0.65751
-0.569486
-0.474096
-0.371915
-0.263917
-0.150704
-0.032518
0.0757423
0.160687
0.218113
0.224893
0.117067
-0.0667362
-0.228907
-0.354837
-0.492748
-0.444382
-0.850895
-0.817569
-0.75555
-0.676586
-0.588454
-0.493242
-0.391681
-0.284831
-0.173475
-0.058415
0.0448758
0.123217
0.166661
0.137315
-0.0290366
-0.241734
-0.446438
-0.634132
-0.837996
-0.825657
-0.872378
-0.838828
-0.776026
-0.69644
-0.608156
-0.513181
-0.412348
-0.306745
-0.197464
-0.0858378
0.0119528
0.083065
0.108521
0.0434673
-0.169597
-0.403644
-0.640933
-0.850611
-1.13555
-1.43114
-0.894027
-0.860644
-0.797433
-0.71743
-0.628993
-0.534208
-0.434029
-0.32968
-0.222542
-0.114511
-0.022415
0.0406778
0.0475589
-0.0689722
-0.293311
-0.53302
-0.769959
-0.961248
-1.05281
-1.2111
-0.916624
-0.883392
-0.820041
-0.739867
-0.651399
-0.556888
-0.457446
-0.354504
-0.249799
-0.145805
-0.0598541
-0.0061656
-0.0244108
-0.186252
-0.403976
-0.628394
-0.825986
-0.936639
-0.961636
-0.983352
-0.940467
-0.90739
-0.843979
-0.763796
-0.675454
-0.581363
-0.482869
-0.381607
-0.279726
-0.180367
-0.10096
-0.0588831
-0.102565
-0.295013
-0.504987
-0.703623
-0.856244
-0.907646
-0.922381
-0.924596
-0.965753
-0.932708
-0.869281
-0.789157
-0.701057
-0.607576
-0.510242
-0.410952
-0.312295
-0.218166
-0.145748
-0.118205
-0.18287
-0.397935
-0.598418
-0.775928
-0.884561
-0.89857
-0.901251
-0.90124
-0.99242
-0.959287
-0.895934
-0.815887
-0.728154
-0.635436
-0.539473
-0.442452
-0.347389
-0.259028
-0.194328
-0.179314
-0.277925
-0.494717
-0.684794
-0.833918
-0.882586
-0.889997
-0.890731
-0.890003
-1.02016
-0.986886
-0.923763
-0.843837
-0.756585
-0.664796
-0.570412
-0.475945
-0.384842
-0.302668
-0.24625
-0.244881
-0.383193
-0.588966
-0.761196
-0.868938
-0.878838
-0.882545
-0.884656
-0.88448
-1.04838
-1.01523
-0.952346
-0.872731
-0.786082
-0.695389
-0.602771
-0.511116
-0.424309
-0.348667
-0.300347
-0.318293
-0.483918
-0.68399
-0.834191
-0.874068
-0.890396
-0.886507
-0.883075
-0.882444
-1.07675
-1.04384
-0.981202
-0.902128
-0.816216
-0.726774
-0.636121
-0.547454
-0.465263
-0.3963
-0.355974
-0.391299
-0.581406
-0.785667
-0.912059
-0.926505
-0.91193
-0.897407
-0.889118
-0.885329
-1.1042
-1.07202
-1.00984
-0.931377
-0.846383
-0.758338
-0.669837
-0.584237
-0.506836
-0.444555
-0.412955
-0.46222
-0.66672
-0.892919
-1.0235
-0.99086
-0.961044
-0.934531
-0.923029
-0.918267
-1.12972
-1.0981
-1.03747
-0.959662
-0.875755
-0.789264
-0.703033
-0.620543
-0.547751
-0.492434
-0.469383
-0.531685
-0.729331
-0.966649
-1.19652
-1.13186
-1.07655
-1.04965
-1.0349
-1.02446
-1.1519
-1.12153
-1.06234
-0.985973
-0.903351
-0.81853
-0.734544
-0.655224
-0.586419
-0.538396
-0.520951
-0.598369
-0.778819
-0.911119
-1.21646
-1.20407
-1.25544
-1.27432
-1.2536
-1.24526
-1.1692
-1.14068
-1.08358
-1.00889
-0.927947
-0.844931
-0.763045
-0.686645
-0.621327
-0.579364
-0.567154
-0.659747
-0.841949
-0.732825
-0.408296
-0.819536
-1.25604
-1.34604
-1.34146
-1.34394
-1.18013
-1.15409
-1.09974
-1.02717
-0.948115
-0.867043
-0.787084
-0.712772
-0.650679
-0.611522
-0.613642
-0.732196
-1.00702
-1.00836
-0.922944
-1.21541
-1.43675
-1.42987
-1.38787
-1.41282
-1.18285
-1.16024
-1.10945
-1.03952
-0.962543
-0.883369
-0.805069
-0.731784
-0.671071
-0.634096
-0.649959
-0.838191
-1.39173
-2.29101
-2.98001
-3.37196
-3.13876
-2.6421
-2.20461
-2.0877
-1.17651
-1.15772
-1.1114
-1.04488
-0.970216
-0.892765
-0.81541
-0.742059
-0.679143
-0.641274
-0.655788
-0.886957
-1.61572
-2.69771
-3.50141
-3.75323
-3.65452
-3.33308
-2.95423
-2.72296
-1.15966
-1.14472
-1.10469
-1.04269
-0.970603
-0.894567
-0.8172
-0.741936
-0.674218
-0.623935
-0.623181
-0.743191
-1.16825
-1.61681
-2.02916
-2.09618
-1.92106
-1.63833
-1.38307
-1.23143
-1.13365
-1.12296
-1.08971
-1.03333
-0.963977
-0.888991
-0.810727
-0.73136
-0.655164
-0.58358
-0.534844
-0.461595
-0.406359
-0.165361
0.188556
0.56127
0.903835
1.12723
1.24708
1.29256
-1.1012
-1.09456
-1.06884
-1.01859
-0.951964
-0.877521
-0.797495
-0.713774
-0.624287
-0.533711
-0.427304
-0.317638
0.0162397
0.608097
1.26575
1.85318
2.27345
2.50981
2.60548
2.63186
-1.06637
-1.06261
-1.04545
-1.00151
-0.937273
-0.862812
-0.781307
-0.692897
-0.598088
-0.49099
-0.377851
-0.256395
-0.0235927
0.556957
1.18423
1.72986
2.12001
2.34362
2.44559
2.47782
-1.03442
-1.03221
-1.02248
-0.985692
-0.923157
-0.847613
-0.764969
-0.676061
-0.579884
-0.470567
-0.36368
-0.256558
-0.124294
0.256287
0.732451
1.11825
1.40399
1.57682
1.65963
1.68601
-1.00554
-1.00574
-1.00159
-0.970239
-0.907585
-0.830632
-0.74904
-0.66323
-0.570965
-0.468776
-0.367442
-0.275318
-0.192038
0.0395261
0.369335
0.643713
0.849801
0.977226
1.0424
1.06293
-0.967528
-0.970023
-0.968227
-0.939352
-0.878175
-0.80445
-0.728365
-0.649979
-0.566322
-0.47371
-0.382316
-0.303068
-0.227014
-0.0978664
0.114724
0.302513
0.443607
0.52993
0.570618
0.579247
-0.887723
-0.890301
-0.888422
-0.866821
-0.818485
-0.759845
-0.697468
-0.631903
-0.560127
-0.47977
-0.400517
-0.332921
-0.266991
-0.187503
-0.0510061
0.0675829
0.155236
0.209113
0.232721
0.237266
-0.777768
-0.778552
-0.776606
-0.764324
-0.73791
-0.701074
-0.65819
-0.609144
-0.551791
-0.485367
-0.419509
-0.367977
-0.320891
-0.276817
-0.190762
-0.107813
-0.0467246
-0.0108562
0.00512453
0.00621624
-0.682445
-0.68224
-0.681339
-0.676868
-0.66593
-0.647511
-0.621934
-0.588083
-0.543954
-0.488536
-0.435124
-0.39901
-0.380076
-0.355677
-0.298177
-0.23701
-0.190737
-0.163379
-0.151565
-0.151832
-0.625297
-0.624793
-0.624368
-0.623917
-0.619945
-0.611008
-0.595823
-0.572114
-0.537418
-0.490952
-0.445794
-0.421891
-0.427949
-0.41553
-0.361157
-0.311837
-0.278516
-0.261403
-0.255067
-0.256112
-0.602523
-0.601915
-0.601358
-0.601102
-0.599192
-0.593864
-0.583641
-0.565872
-0.53681
-0.49366
-0.447688
-0.421098
-0.426328
-0.418043
-0.379853
-0.346539
-0.325767
-0.315689
-0.312397
-0.313037
-0.605878
-0.605051
-0.604116
-0.603414
-0.6016
-0.59732
-0.589314
-0.575165
-0.549104
-0.504526
-0.450296
-0.405528
-0.387535
-0.379633
-0.362978
-0.345562
-0.332954
-0.325518
-0.321881
-0.323037
-0.630709
-0.629789
-0.628814
-0.627985
-0.626381
-0.623253
-0.618107
-0.608821
-0.588249
-0.545147
-0.479813
-0.408678
-0.368487
-0.361299
-0.354249
-0.340644
-0.32755
-0.316839
-0.313583
-0.314971
-0.672397
-0.671724
-0.671179
-0.671088
-0.671299
-0.672241
-0.674604
-0.677737
-0.675783
-0.650949
-0.578911
-0.47654
-0.415028
-0.400768
-0.382474
-0.352023
-0.320473
-0.297825
-0.289714
-0.292693
-0.724173
-0.723991
-0.724629
-0.726636
-0.731301
-0.740958
-0.759035
-0.789745
-0.833061
-0.86205
-0.792227
-0.644223
-0.54521
-0.511288
-0.463462
-0.397076
-0.334049
-0.29543
-0.288944
-0.292133
-0.775487
-0.776235
-0.778724
-0.784261
-0.796076
-0.819369
-0.862785
-0.941281
-1.06802
-1.20098
-1.13636
-0.918072
-0.756586
-0.68273
-0.589633
-0.480773
-0.389255
-0.341713
-0.340034
-0.343261
-0.811489
-0.813411
-0.818108
-0.82798
-0.848372
-0.887804
-0.962287
-1.10243
-1.34241
-1.60953
-1.56461
-1.25733
-1.02426
-0.895264
-0.759053
-0.620195
-0.512136
-0.466881
-0.468478
-0.474779
-0.815894
-0.818868
-0.825446
-0.838568
-0.866248
-0.919281
-1.01976
-1.20967
-1.54425
-1.92638
-1.91715
-1.55108
-1.26436
-1.11462
-0.958838
-0.840622
-0.765901
-0.738617
-0.731954
-0.734764
-0.776512
-0.779815
-0.786925
-0.801835
-0.832195
-0.890439
-1.00112
-1.2112
-1.57701
-1.98818
-1.99809
-1.66374
-1.40272
-1.25696
-1.14319
-1.09585
-1.06457
-1.04019
-1.02413
-1.02006
-0.691879
-0.694839
-0.701199
-0.714597
-0.742169
-0.795318
-0.897105
-1.09219
-1.42647
-1.775
-1.77905
-1.54142
-1.36176
-1.25419
-1.21708
-1.22302
-1.21719
-1.19225
-1.17391
-1.16678
-0.573251
-0.575287
-0.579669
-0.58933
-0.609879
-0.65003
-0.727399
-0.876559
-1.13656
-1.40988
-1.42751
-1.29382
-1.18441
-1.09557
-1.10322
-1.15122
-1.15153
-1.13379
-1.12047
-1.11466
-0.439852
-0.440742
-0.442777
-0.447956
-0.459932
-0.484133
-0.531418
-0.623757
-0.792364
-0.990084
-1.0312
-0.964453
-0.867902
-0.834144
-0.879977
-0.936732
-0.940068
-0.932181
-0.926038
-0.922654
-0.31162
-0.311532
-0.311669
-0.313049
-0.317585
-0.327748
-0.348439
-0.389837
-0.469635
-0.581386
-0.609986
-0.564623
-0.514017
-0.544034
-0.629919
-0.675942
-0.682773
-0.682741
-0.682002
-0.680861
-0.203075
-0.202405
-0.201429
-0.200507
-0.200254
-0.201107
-0.204027
-0.211007
-0.225142
-0.242842
-0.243538
-0.235053
-0.259867
-0.337127
-0.40801
-0.439005
-0.448954
-0.453089
-0.455621
-0.456013
-0.12076
-0.119898
-0.118585
-0.116851
-0.114541
-0.111087
-0.105736
-0.0972345
-0.0832214
-0.0589883
-0.0379367
-0.0572128
-0.12772
-0.197552
-0.241937
-0.264384
-0.272945
-0.278115
-0.281495
-0.282465
-0.0643446
-0.0635564
-0.0623846
-0.0607956
-0.0583056
-0.0540452
-0.0469525
-0.0354855
-0.017761
0.00582434
0.0177266
-0.0074039
-0.0605121
-0.107295
-0.136858
-0.150726
-0.157563
-0.161624
-0.164438
-0.165369
-0.0294249
-0.0288266
-0.0279742
-0.0269163
-0.0251026
-0.021711
-0.0158842
-0.00661349
0.00673634
0.0216585
0.0247598
0.00508907
-0.028065
-0.056382
-0.0743873
-0.0836127
-0.0879736
-0.0905319
-0.0923454
-0.0929782
-0.010326
-0.00993
-0.00941667
-0.00892272
-0.00795016
-0.00585427
-0.00206938
0.00390523
0.0120213
0.0197664
0.0187263
0.00555869
-0.0132512
-0.0290888
-0.0392149
-0.0443796
-0.0467037
-0.0480527
-0.0490482
-0.0494095
-0.001821
-0.00159345
-0.00136294
-0.00130655
-0.00100259
-3.70262e-05
0.00188639
0.00493867
0.00891432
0.0122184
0.0105516
0.00338388
-0.00566339
-0.0131088
-0.0178293
-0.0201777
-0.0211853
-0.0217225
-0.0221647
-0.0223362
0.00020899
0.000250041
0.000402642
0.00056717
0.000672012
0.000768369
0.000967053
0.00133635
0.00187347
0.00243143
0.00253246
0.00158932
-4.56208e-05
-0.00179446
-0.00310469
-0.00379038
-0.00378529
-0.00360097
-0.00369495
-0.00381121
-0.617811
-0.400897
-0.168509
0.0216305
0.174998
0.29802
0.401706
0.488476
0.524296
0.508629
-0.240403
-0.0989378
0.0473332
0.173799
0.280852
0.37028
0.442526
0.493437
0.520346
0.532725
0.0108897
0.105698
0.203922
0.291759
0.367424
0.43078
0.480974
0.517899
0.544452
0.561855
0.189287
0.254849
0.324062
0.387465
0.442486
0.489018
0.527099
0.557582
0.581733
0.599696
0.32596
0.372971
0.424372
0.471794
0.513954
0.550581
0.581779
0.6078
0.628651
0.646398
0.437055
0.472696
0.514215
0.552223
0.586971
0.618065
0.64515
0.66794
0.685671
0.703173
0.534089
0.564531
0.600559
0.634384
0.665701
0.694074
0.718859
0.739407
0.754492
0.771915
0.625494
0.655872
0.691035
0.7242
0.75469
0.782051
0.805583
0.824481
0.837459
0.854932
0.722561
0.756639
0.793792
0.828159
0.858757
0.885384
0.907679
0.925058
0.936726
0.954554
0.838582
0.87732
0.915984
0.950639
0.980242
1.0052
1.02572
1.04161
1.05308
1.07145
0.984056
1.02379
1.0594
1.08999
1.11576
1.13798
1.15713
1.17276
1.1855
1.20366
1.15886
1.1912
1.21717
1.23958
1.25974
1.27857
1.29628
1.3129
1.32869
1.34691
1.34666
1.36434
1.38003
1.39671
1.41293
1.42753
1.4406
1.45462
1.47174
1.49144
1.52862
1.53949
1.55166
1.56249
1.57178
1.58139
1.59233
1.60396
1.61393
1.62911
1.73956
1.74161
1.72647
1.71126
1.70492
1.71063
1.72924
1.75968
1.79184
1.82259
2.04548
1.90844
1.83218
1.79016
1.77275
1.77678
1.80417
1.86032
1.96378
2.17907
0.328426
0.32505
0.319121
0.309313
0.296367
0.283939
0.273618
0.265651
0.259952
0.256592
0.256103
0.258699
0.263693
0.27084
0.280199
0.291828
0.304915
0.316876
0.32432
0.329029
0.246439
0.252324
0.259235
0.264476
0.267322
0.26699
0.264077
0.260133
0.256522
0.254151
0.253859
0.255906
0.259455
0.263697
0.267555
0.269486
0.268321
0.264186
0.258257
0.2512
0.238798
0.241145
0.244499
0.247414
0.249637
0.25144
0.252392
0.252116
0.251037
0.250039
0.250055
0.251319
0.25298
0.25412
0.254053
0.252791
0.250909
0.248507
0.245311
0.242331
0.233671
0.234757
0.236633
0.239032
0.241007
0.242407
0.243496
0.244326
0.244733
0.244876
0.245199
0.245783
0.246142
0.245951
0.245293
0.244306
0.242804
0.240665
0.238494
0.237061
0.228608
0.229259
0.230386
0.232144
0.233987
0.235631
0.236903
0.237902
0.238758
0.239462
0.24
0.240278
0.240196
0.239797
0.239063
0.237875
0.236294
0.234599
0.233193
0.23239
0.223741
0.22419
0.224998
0.226349
0.227904
0.229493
0.230997
0.23228
0.233348
0.234272
0.234953
0.235214
0.235069
0.234534
0.233591
0.232362
0.231023
0.229721
0.228703
0.228163
0.219054
0.219382
0.220022
0.221177
0.222568
0.224039
0.225563
0.227057
0.228397
0.229519
0.230344
0.230682
0.230482
0.229824
0.228867
0.227775
0.226648
0.225551
0.224743
0.224346
0.214548
0.214792
0.215318
0.216343
0.21765
0.219061
0.220538
0.222061
0.223554
0.224899
0.225912
0.226344
0.226185
0.225617
0.224807
0.223867
0.222868
0.221927
0.22127
0.220969
0.210197
0.210376
0.210812
0.211745
0.212995
0.214363
0.215794
0.217303
0.218888
0.220445
0.221687
0.222264
0.222256
0.221884
0.221276
0.220502
0.219633
0.218819
0.218284
0.218058
0.205997
0.206123
0.206492
0.207368
0.208601
0.209981
0.211489
0.213089
0.21473
0.216389
0.217864
0.218784
0.219097
0.218929
0.218429
0.217757
0.216999
0.216282
0.215843
0.215677
0.201964
0.202038
0.202349
0.203187
0.204419
0.205802
0.20731
0.208995
0.210869
0.212831
0.214636
0.215849
0.216362
0.216409
0.216141
0.215652
0.215017
0.214396
0.214045
0.213936
0.198196
0.19823
0.198476
0.199204
0.200321
0.20163
0.203108
0.204795
0.206733
0.208921
0.211124
0.212803
0.213788
0.214253
0.214325
0.214119
0.213744
0.213336
0.213116
0.213057
0.194525
0.194531
0.194725
0.19534
0.196361
0.197643
0.199177
0.201042
0.20327
0.205853
0.208564
0.21075
0.212147
0.212922
0.213294
0.213391
0.213294
0.213124
0.213043
0.213016
0.190561
0.190566
0.190723
0.191231
0.192138
0.19336
0.194902
0.196873
0.199357
0.202398
0.205739
0.208594
0.210584
0.211914
0.212706
0.2132
0.21345
0.213557
0.213606
0.213595
0.185921
0.185918
0.186081
0.186552
0.187436
0.188703
0.190391
0.192644
0.195561
0.199218
0.203358
0.207012
0.209646
0.211475
0.212745
0.213592
0.214143
0.214476
0.214611
0.214607
0.180337
0.180329
0.180518
0.181041
0.181991
0.183397
0.185344
0.187997
0.191517
0.196003
0.201145
0.205747
0.209137
0.211572
0.213289
0.214503
0.215354
0.215863
0.216053
0.216055
0.173593
0.173576
0.173792
0.174438
0.175561
0.177229
0.179584
0.182818
0.187132
0.192666
0.199052
0.204818
0.209118
0.212243
0.214433
0.216023
0.217168
0.217823
0.218066
0.218081
0.165528
0.165495
0.165751
0.166552
0.167972
0.170064
0.172997
0.177037
0.18241
0.189288
0.197222
0.204395
0.209746
0.21363
0.216448
0.218485
0.21985
0.22063
0.220932
0.22096
0.155947
0.155895
0.156209
0.157201
0.15901
0.161651
0.165375
0.170449
0.177167
0.185731
0.195575
0.204465
0.211107
0.215952
0.219439
0.221928
0.22358
0.224532
0.224921
0.224966
0.144511
0.14444
0.144837
0.146072
0.148368
0.151743
0.156471
0.162884
0.171333
0.182022
0.19421
0.205157
0.213345
0.219315
0.223609
0.226642
0.228665
0.229841
0.230334
0.23039
0.130622
0.130534
0.131067
0.132649
0.135513
0.139878
0.145922
0.154101
0.164777
0.17813
0.19318
0.206592
0.216591
0.223895
0.229144
0.23284
0.23532
0.236784
0.237394
0.237458
0.113283
0.113182
0.11394
0.116047
0.119741
0.125382
0.133258
0.143814
0.157397
0.174098
0.192609
0.208922
0.22103
0.229868
0.236227
0.240719
0.243761
0.24556
0.24629
0.246361
0.0910642
0.0909649
0.0920998
0.0949999
0.100012
0.107571
0.118034
0.131828
0.149195
0.17004
0.192657
0.212312
0.22682
0.237408
0.245052
0.250488
0.254208
0.256407
0.25728
0.257351
0.0616122
0.0615599
0.0633885
0.0677064
0.0749217
0.0855536
0.0998505
0.118098
0.140316
0.166175
0.193534
0.216936
0.234107
0.246655
0.255773
0.262323
0.266845
0.269501
0.270526
0.270593
0.0207371
0.0208875
0.0242384
0.0315468
0.0428866
0.0586094
0.0786007
0.102846
0.131106
0.162834
0.195481
0.222939
0.242968
0.257652
0.26843
0.276291
0.281791
0.284982
0.286149
0.286197
-0.0392403
-0.0378437
-0.0297544
-0.0159777
0.00306353
0.0268882
0.0548689
0.0867429
0.122142
0.160415
0.198706
0.230377
0.253363
0.270281
0.282851
0.292173
0.298807
0.302649
0.303982
0.304014
-0.111323
-0.108786
-0.0932974
-0.0693137
-0.0398078
-0.00649331
0.0302474
0.0703232
0.113435
0.159023
0.204004
0.241087
0.268191
0.288428
0.303748
0.315377
0.323858
0.328746
0.330221
0.330401
-0.18521
-0.177715
-0.154832
-0.120893
-0.0816167
-0.0390778
0.00638183
0.0546747
0.105553
0.158512
0.210294
0.252911
0.284197
0.30781
0.32602
0.340153
0.350568
0.356127
0.358424
0.358985
-0.243807
-0.234688
-0.207109
-0.166401
-0.119586
-0.069269
-0.0160308
0.0398555
0.0980528
0.158004
0.21612
0.263711
0.298595
0.324931
0.345244
0.360983
0.372635
0.379361
0.38259
0.383333
-0.291489
-0.281823
-0.250801
-0.205231
-0.152727
-0.0962315
-0.0365248
0.02598
0.0907474
0.157083
0.220968
0.272927
0.310765
0.339168
0.360981
0.377893
0.390477
0.398161
0.401701
0.402512
-0.331306
-0.32148
-0.288231
-0.238926
-0.181808
-0.120244
-0.0551151
0.0130845
0.0836597
0.155722
0.224781
0.280547
0.320826
0.35081
0.373669
0.39129
0.404411
0.412633
0.416392
0.417242
-0.365897
-0.356025
-0.321132
-0.268776
-0.207887
-0.142059
-0.0722377
0.000954824
0.0767035
0.153949
0.22771
0.286891
0.32926
0.360488
0.384048
0.40202
0.415339
0.423732
0.427535
0.428438
-0.396833
-0.386959
-0.350829
-0.295929
-0.231863
-0.162358
-0.0884157
-0.0107596
0.0696921
0.151724
0.229896
0.29227
0.336567
0.36888
0.392968
0.411127
0.424469
0.432958
0.436727
0.437641
-0.425308
-0.415404
-0.378244
-0.321171
-0.254405
-0.18168
-0.104074
-0.0223836
0.0623989
0.148936
0.23135
0.296873
0.343043
0.376396
0.401004
0.419395
0.432796
0.441293
0.445104
0.445854
-0.452088
-0.442133
-0.404036
-0.345138
-0.275953
-0.200368
-0.119505
-0.0341594
0.0546333
0.145446
0.232009
0.300688
0.348837
0.383358
0.408595
0.427271
0.440764
0.449256
0.453053
0.453708
-0.477651
-0.467629
-0.428692
-0.36821
-0.296829
-0.218701
-0.134915
-0.0462451
0.0462565
0.141134
0.231805
0.303807
0.354161
0.39003
0.416031
0.435103
0.448766
0.457256
0.460999
0.461631
-0.502399
-0.492229
-0.452475
-0.390581
-0.317241
-0.236847
-0.15043
-0.0587428
0.0371945
0.135954
0.230761
0.306285
0.359049
0.396486
0.423439
0.443052
0.456978
0.465509
0.469133
0.469744
-0.526508
-0.516111
-0.47568
-0.412405
-0.337317
-0.254904
-0.166123
-0.0716931
0.0274183
0.129886
0.228798
0.307998
0.363472
0.402751
0.430874
0.451175
0.465442
0.474028
0.477524
0.478076
-0.550023
-0.539426
-0.498354
-0.43377
-0.357125
-0.272905
-0.182008
-0.085107
0.0169124
0.122852
0.225785
0.30886
0.367371
0.408808
0.438332
0.459469
0.474137
0.48276
0.486104
0.486551
-0.573075
-0.562205
-0.520424
-0.454694
-0.376674
-0.290848
-0.198071
-0.0989694
0.00567117
0.11482
0.221668
0.30876
0.370614
0.414578
0.445787
0.467915
0.483028
0.49166
0.494792
0.495099
-0.595577
-0.584443
-0.541978
-0.475189
-0.395937
-0.308692
-0.214265
-0.11323
-0.00626444
0.105815
0.216396
0.307544
0.373041
0.419944
0.453204
0.476504
0.492046
0.500565
0.50342
0.503582
-0.617549
-0.606136
-0.562989
-0.495235
-0.414875
-0.326388
-0.230525
-0.127808
-0.0188081
0.0958799
0.209917
0.30508
0.374441
0.424736
0.460542
0.485288
0.501201
0.509383
0.511819
0.511825
-0.638848
-0.62721
-0.583395
-0.514771
-0.433428
-0.343853
-0.246771
-0.142613
-0.0318718
0.085078
0.202226
0.301252
0.374589
0.428696
0.467711
0.494428
0.510672
0.518085
0.519807
0.519628
-0.659548
-0.647612
-0.603166
-0.533759
-0.451552
-0.361037
-0.262904
-0.157556
-0.0453605
0.07351
0.193354
0.295965
0.373255
0.431467
0.474457
0.504122
0.521047
0.527024
0.527285
0.526784
-0.679528
-0.667298
-0.622275
-0.552146
-0.469165
-0.377855
-0.278841
-0.172513
-0.0591526
0.0612681
0.183374
0.289166
0.37024
0.432599
0.480228
0.514299
0.533349
0.537766
0.534941
0.533088
-0.698806
-0.686327
-0.640667
-0.569878
-0.486225
-0.394236
-0.294495
-0.187399
-0.0731254
0.0485057
0.1724
0.280828
0.365409
0.431622
0.484062
0.524043