/*--------------------------------*- C++ -*----------------------------------*\
| =========                 |                                                 |
| \\      /  F ield         | OpenFOAM: The Open Source CFD Toolbox           |
|  \\    /   O peration     | Version:  2306                                  |
|   \\  /    A nd           | Website:  www.openfoam.com                      |
|    \\/     M anipulation  |                                                 |
\*---------------------------------------------------------------------------*/
FoamFile
{
    version     2.0;
    format      ascii;
    arch        "LSB;label=32;scalar=64";
    class       surfaceScalarField;
    location    "24";
    object      phi;
}
// * * * * * * * * * * * * * * * * * * * * * * * * * * * * * * * * * * * * * //

dimensions      [0 3 -1 0 0 0 0];

oriented        oriented;

internalField   nonuniform List<scalar> 
17370
(
-0.0910981
0.0935427
0.286566
-0.0749502
0.0569485
0.364777
-0.0409303
0.0299455
0.427153
-0.0211882
0.0155839
0.504856
-0.0113278
0.00862223
0.602108
-0.0064843
0.00502979
0.720512
-0.00381416
0.00295181
0.863769
-0.00220033
0.00164258
1.03601
-0.00113125
0.000724674
1.24291
-0.000321807
-6.27569e-05
1.49158
0.000442062
-0.000848422
1.4916
0.00125019
-0.00175338
1.24319
0.00230362
-0.0030471
1.03638
0.00390225
-0.00511033
0.864115
0.00655834
-0.00868933
0.721188
0.0113884
-0.0156372
0.603463
0.0212348
-0.029985
0.508189
0.0409635
-0.0569752
0.43218
0.074971
-0.0935551
0.36536
0.0911083
0.197903
-0.127347
0.0881458
0.0392011
-0.364737
0.35379
-0.0726264
0.0835735
-0.446566
0.454367
-0.0817059
0.0739052
-0.520968
0.529526
-0.0657941
0.0572359
-0.612846
0.621016
-0.04948
0.0413093
-0.726997
0.73379
-0.0343783
0.0275859
-0.867508
0.872433
-0.0222435
0.0173179
-1.03854
1.04187
-0.0136184
0.0102964
-1.2447
1.24708
-0.00777042
0.00538916
-1.49283
1.49481
-0.00344789
0.0014649
-1.49267
1.49446
0.000326429
-0.0021175
-1.2441
1.24601
0.00408165
-0.0059954
-1.03759
1.04009
0.00834103
-0.0108321
-0.86616
0.869824
0.0141153
-0.0177794
-0.72449
0.729795
0.0226661
-0.0279716
-0.608899
0.615796
0.0347237
-0.0416201
-0.514994
0.522721
0.0497558
-0.0574822
-0.439772
0.447859
0.0660096
-0.0740959
-0.375174
0.377007
0.0818666
-0.0836993
-0.256941
0.223464
0.0727113
-0.0392335
-0.0686534
0.0589287
0.00972472
-0.052051
0.0587454
-0.374542
0.367847
-0.0578559
0.0540286
-0.453824
0.457651
-0.0486704
0.0443305
-0.527731
0.532071
-0.0401034
0.0363158
-0.621082
0.62487
-0.0320908
0.0280303
-0.734856
0.738917
-0.0235842
0.0196246
-0.874031
0.87799
-0.0155339
0.0120597
-1.04337
1.04684
-0.00854321
0.00552746
-1.24861
1.25163
-0.00234851
-0.000609458
-1.49688
1.49983
0.00355514
-0.0066989
-1.49738
1.50053
0.00966644
-0.0131191
-1.25009
1.25354
0.0165281
-0.0205429
-1.04574
1.04976
0.0244314
-0.0287996
-0.877351
0.881719
0.0327921
-0.0369473
-0.739344
0.7435
0.0406743
-0.0448387
-0.62638
0.630544
0.0491263
-0.0544346
-0.534973
0.540281
0.0582102
-0.059037
-0.457963
0.458789
0.0522703
-0.0319592
-0.336471
0.31616
0.00976074
-0.0685523
0.0587916
-0.0531736
0.049132
0.00404161
-0.0331144
0.04359
-0.358381
0.347905
-0.0472976
0.0467072
-0.459505
0.460095
-0.0437269
0.0404512
-0.536008
0.539283
-0.0367319
0.0333932
-0.628416
0.631755
-0.0298347
0.0266994
-0.742213
0.745348
-0.0233746
0.0202534
-0.881502
0.884624
-0.0167275
0.013421
-1.05029
1.0536
-0.00977311
0.00641448
-1.2549
1.25826
-0.00266945
-0.00091472
-1.50319
1.50677
0.00447916
-0.00816577
-1.50403
1.50772
0.0114513
-0.0150008
-1.25712
1.26067
0.0182094
-0.0216228
-1.0535
1.05691
0.0246396
-0.027851
-0.885337
0.888548
0.0308868
-0.0343427
-0.747022
0.750478
0.0375948
-0.0412265
-0.634589
0.638221
0.0444288
-0.0473286
-0.544539
0.547439
0.0478367
-0.0440161
-0.457
0.453179
0.0334085
-0.0161557
-0.296866
0.279613
0.00408603
-0.0529964
0.0489104
-0.0460201
0.0435098
0.00251028
-0.0228172
0.0331397
-0.33729
0.326967
-0.038894
0.0398746
-0.459797
0.458817
-0.0386639
0.0363821
-0.541926
0.544208
-0.0337601
0.0312141
-0.634715
0.637261
-0.0282265
0.0253949
-0.748382
0.751213
-0.022208
0.019275
-0.887614
0.890547
-0.0160336
0.0130071
-1.05674
1.05977
-0.00956549
0.00626591
-1.26161
1.26491
-0.00245755
-0.00125586
-1.51046
1.51417
0.00494255
-0.00867299
-1.51146
1.51519
0.011869
-0.0151735
-1.26411
1.26742
0.0180645
-0.0211521
-1.06009
1.06318
0.0239449
-0.0269822
-0.891714
0.894751
0.0296826
-0.0325343
-0.753695
0.756547
0.0349637
-0.0374679
-0.641243
0.643748
0.039653
-0.0407405
-0.549288
0.550375
0.0396351
-0.0337033
-0.448064
0.442133
0.02319
-0.0101379
-0.264563
0.251511
0.0025647
-0.0457493
0.0431846
-0.0414289
0.0396686
0.00176031
-0.0166583
0.0258389
-0.317164
0.307983
-0.0323731
0.0344693
-0.457244
0.455147
-0.034026
0.0323351
-0.546183
0.547874
-0.0301336
0.0280424
-0.63951
0.641601
-0.025664
0.0233614
-0.753773
0.756075
-0.0206478
0.0180159
-0.893351
0.895983
-0.0149748
0.0120855
-1.06273
1.06562
-0.00878052
0.00561334
-1.26814
1.2713
-0.00193684
-0.00165684
-1.51785
1.52144
0.00521585
-0.00879173
-1.51886
1.52243
0.0118229
-0.0149509
-1.27063
1.27375
0.017663
-0.0205029
-1.06617
1.06901
0.02295
-0.0254643
-0.89755
0.900064
0.027596
-0.0298025
-0.759016
0.761223
0.0317453
-0.033795
-0.645971
0.648021
0.0353477
-0.0356247
-0.550996
0.551273
0.03334
-0.0265505
-0.435676
0.428886
0.0171176
-0.00721375
-0.240174
0.23027
0.00182649
-0.0410442
0.0392177
-0.0381573
0.036852
0.00130529
-0.0125522
0.0203637
-0.299476
0.291664
-0.0270019
0.029881
-0.452612
0.449733
-0.0300991
0.0290102
-0.549278
0.550367
-0.0270748
0.025211
-0.643584
0.645447
-0.0230845
0.0210409
-0.758226
0.76027
-0.0186698
0.0163449
-0.898445
0.90077
-0.0135995
0.0109107
-1.06841
1.0711
-0.00777793
0.00476051
-1.2744
1.27741
-0.00126701
-0.00212535
-1.52492
1.52832
0.0054728
-0.00883696
-1.5259
1.52927
0.0116818
-0.0145893
-1.27679
1.2797
0.017051
-0.019539
-1.07168
1.07417
0.0216338
-0.0237658
-0.902349
0.904481
0.0255942
-0.0274965
-0.763263
0.765166
0.02917
-0.0309201
-0.649915
0.651665
0.0318087
-0.0313611
-0.551186
0.550739
0.0282183
-0.0212389
-0.421927
0.414948
0.0131102
-0.00544539
-0.221574
0.213909
0.00138556
-0.0376346
0.036249
-0.0357243
0.0347485
0.000975731
-0.00954542
0.0160023
-0.284546
0.27809
-0.022248
0.0255009
-0.446619
0.443366
-0.02626
0.025614
-0.551185
0.551831
-0.0239529
0.0222794
-0.647206
0.648879
-0.0203548
0.0184991
-0.762233
0.764089
-0.0163411
0.0142352
-0.902992
0.905098
-0.0117736
0.00936555
-1.07364
1.07605
-0.00653711
0.00376089
-1.28031
1.28309
-0.000493244
-0.00271124
-1.53162
1.53483
0.00585808
-0.00895236
-1.53251
1.53561
0.0115034
-0.0140408
-1.28243
1.28496
0.0161622
-0.0182961
-1.07648
1.07861
0.0201056
-0.0219557
-0.906472
0.908322
0.0235449
-0.02519
-0.766934
0.768579
0.0266256
-0.0280363
-0.65325
0.654661
0.0284345
-0.0273602
-0.549959
0.548884
0.0237541
-0.0170698
-0.408076
0.401392
0.0102223
-0.00420696
-0.207134
0.201119
0.00107358
-0.0350346
0.033961
-0.0339032
0.0331778
0.000725447
-0.00720465
0.0124225
-0.272261
0.267043
-0.0180221
0.0213674
-0.440039
0.436693
-0.0225424
0.0221242
-0.552377
0.552795
-0.0207316
0.0191911
-0.650504
0.652045
-0.0174242
0.0157603
-0.765872
0.767536
-0.0138468
0.0119781
-0.907086
0.908955
-0.00976844
0.00758927
-1.07831
1.08049
-0.00501134
0.00247634
-1.28572
1.28825
0.000502924
-0.00341853
-1.53788
1.5408
0.00626067
-0.00902079
-1.53854
1.5413
0.0112624
-0.0134692
-1.28732
1.28953
0.0152834
-0.0170817
-1.08057
1.08237
0.0185857
-0.02012
-0.910016
0.91155
0.0214561
-0.0228779
-0.77011
0.771532
0.0241191
-0.0251835
-0.655907
0.656971
0.0252754
-0.0236762
-0.547537
0.545938
0.0198691
-0.01372
-0.394949
0.3888
0.0080269
-0.00328535
-0.195775
0.191034
0.000845563
-0.0330106
0.032165
-0.0325621
0.0320426
0.000519476
-0.00528232
0.00936304
-0.262408
0.258327
-0.0141504
0.017378
-0.433379
0.430151
-0.018867
0.0187541
-0.553075
0.553188
-0.0177189
0.0163948
-0.653499
0.654823
-0.0148412
0.0133446
-0.769142
0.770639
-0.0115837
0.00983532
-0.910757
0.912505
-0.00775002
0.00570009
-1.08257
1.08462
-0.00329702
0.000974582
-1.29065
1.29297
0.00171479
-0.00429842
-1.54353
1.54611
0.00679012
-0.00920014
-1.5439
1.54631
0.0111539
-0.0130852
-1.2916
1.29353
0.0146676
-0.0162219
-1.08404
1.0856
0.0174992
-0.0187826
-0.912935
0.914218
0.0198736
-0.0210067
-0.772805
0.773938
0.0219669
-0.0225622
-0.657826
0.658422
0.0222525
-0.0202133
-0.54411
0.542071
0.0164023
-0.0109402
-0.382985
0.377523
0.00628405
-0.00256509
-0.18684
0.183121
0.000667202
-0.0314219
0.0307547
-0.0316123
0.0312658
0.000346527
-0.00361072
0.00663118
-0.254781
0.25176
-0.010487
0.0133712
-0.427072
0.424187
-0.0149745
0.0151096
-0.553172
0.553037
-0.014396
0.0132653
-0.656055
0.657186
-0.0118755
0.0105104
-0.772115
0.773481
-0.0089059
0.00732162
-0.914186
0.91577
-0.00545037
0.00360885
-1.08653
1.08838
-0.00145285
-0.000644532
-1.29514
1.29724
0.00307576
-0.00541463
-1.54855
1.55089
0.00763668
-0.00971217
-1.54858
1.55066
0.0113396
-0.0128936
-1.29529
1.29685
0.0141378
-0.015344
-1.087
1.0882
0.0163378
-0.0173333
-0.915369
0.916364
0.0181831
-0.0190406
-0.774897
0.775754
0.0197044
-0.0198373
-0.658779
0.658912
0.0191422
-0.0168282
-0.539883
0.537569
0.0132181
-0.00854417
-0.372451
0.367777
0.00483131
-0.00197915
-0.179855
0.177003
0.000529537
-0.0301671
0.0296376
-0.0310108
0.0308432
0.00016759
-0.00201503
0.00401479
-0.249267
0.247267
-0.00687483
0.0092496
-0.42156
0.419185
-0.0107546
0.0110085
-0.552844
0.552591
-0.0104608
0.00951766
-0.658252
0.659195
-0.0083378
0.00718929
-0.774813
0.775961
-0.00582444
0.00444571
-0.917232
0.918611
-0.00278878
0.00116416
-1.09001
1.09164
0.000747173
-0.00260244
-1.29915
1.30101
0.00474687
-0.00677443
-1.55305
1.55508
0.0086494
-0.0103466
-1.55256
1.55426
0.0116052
-0.012734
-1.2982
1.29933
0.0135921
-0.0143608
-1.0892
1.08997
0.0149711
-0.0155752
-0.91715
0.917754
0.0161076
-0.0166609
-0.776408
0.776961
0.0170224
-0.0168617
-0.658897
0.658736
0.0158889
-0.0134865
-0.535239
0.532837
0.0102116
-0.0063529
-0.363541
0.359682
0.00351197
-0.00143692
-0.174576
0.1725
0.000394242
-0.0291903
0.028796
-0.0307632
0.0307543
8.93737e-06
-0.000701331
0.00183313
-0.245732
0.2446
-0.00377963
0.00564673
-0.41708
0.415213
-0.00703263
0.0074153
-0.552286
0.551903
-0.00706685
0.00636943
-0.660041
0.660739
-0.0054185
0.00446232
-0.77708
0.778036
-0.00327508
0.00202626
-0.919874
0.921123
-0.000487506
-0.00107087
-1.09312
1.09468
0.00290423
-0.00466693
-1.30274
1.3045
0.00665804
-0.00847871
-1.55695
1.55877
0.0101229
-0.0115738
-1.55584
1.55729
0.0126216
-0.0135172
-1.30037
1.30127
0.0141254
-0.0146044
-1.09064
1.09111
0.0148987
-0.0151161
-0.918114
0.918331
0.015247
-0.015343
-0.777196
0.777292
0.0152763
-0.0147019
-0.658381
0.657806
0.0133768
-0.0108464
-0.530431
0.5279
0.00787248
-0.0047172
-0.356226
0.35307
0.00256017
-0.00104624
-0.170764
0.16925
0.000290073
-0.0284765
0.0281865
-0.0308061
0.0309158
-0.000109656
0.000218393
0.000237939
-0.243851
0.243395
-0.0013506
0.00264802
-0.413645
0.412348
-0.00381023
0.00426086
-0.551461
0.551011
-0.00408637
0.00356928
-0.66137
0.661887
-0.00277285
0.00190077
-0.77905
0.779922
-0.000744784
-0.000517786
-0.922301
0.923563
0.00208245
-0.00362996
-1.09611
1.09766
0.00542222
-0.00710649
-1.30615
1.30784
0.00896111
-0.010614
-1.56046
1.56212
0.0120467
-0.0132303
-1.55862
1.5598
0.0139907
-0.0145573
-1.30207
1.30263
0.0148844
-0.0150574
-1.09147
1.09164
0.0150979
-0.0150323
-0.918383
0.918317
0.014919
-0.0147114
-0.777112
0.776904
0.0142667
-0.0132789
-0.656976
0.655989
0.0116606
-0.00910338
-0.525407
0.52285
0.00646206
-0.00386328
-0.350275
0.347676
0.00212291
-0.000879559
-0.167941
0.166698
0.000243696
-0.0279466
0.0277029
-0.0310603
0.031239
-0.00017868
0.000761187
-0.000753788
-0.243209
0.243201
0.000301971
0.000392
-0.411389
0.410695
-0.00110171
0.00136779
-0.550607
0.550341
-0.00115652
0.000663833
-0.66242
0.662913
0.000143242
-0.00106442
-0.780941
0.781862
0.00230086
-0.00361563
-0.924758
0.926073
0.00518939
-0.00670351
-1.09908
1.1006
0.00842172
-0.0100199
-1.3094
1.311
0.0117583
-0.0132617
-1.56364
1.56515
0.0144792
-0.0153821
-1.56084
1.56175
0.0158623
-0.0161016
-1.3031
1.30334
0.0161181
-0.0159714
-1.09169
1.09154
0.0157253
-0.0154004
-0.918094
0.917769
0.0150506
-0.0145765
-0.776435
0.775961
0.013875
-0.0126617
-0.654861
0.653647
0.0109488
-0.00850963
-0.520433
0.517994
0.00613751
-0.00380912
-0.345323
0.342995
0.00217149
-0.000925607
-0.165521
0.164275
0.000259757
-0.027479
0.0272193
-0.0314439
0.0316783
-0.000234423
0.00116442
-0.00145045
-0.243331
0.243617
0.00143832
-0.00123741
-0.410318
0.410117
0.00107028
-0.00122297
-0.550273
0.550426
0.00177439
-0.00250716
-0.66358
0.664313
0.00350753
-0.00459325
-0.782969
0.784055
0.00597244
-0.00734793
-0.927284
0.92866
0.00893697
-0.0104259
-1.10197
1.10346
0.0120925
-0.0136197
-1.31247
1.314
0.0152293
-0.0165416
-1.5665
1.56782
0.0175073
-0.0180953
-1.56248
1.56307
0.0182598
-0.0181455
-1.30346
1.30334
0.0178821
-0.0174684
-1.09126
1.09084
0.0170057
-0.0164198
-0.917241
0.916655
0.0158347
-0.0151249
-0.77525
0.77454
0.0142716
-0.0129893
-0.652398
0.651116
0.0113017
-0.00894459
-0.515739
0.513382
0.00661464
-0.00423052
-0.340765
0.338381
0.00247142
-0.00107773
-0.163018
0.161625
0.000308692
-0.0269658
0.0266571
-0.0319442
0.0322422
-0.000298013
0.00161505
-0.00215859
-0.24401
0.244553
0.00245337
-0.00251851
-0.410128
0.410194
0.00264088
-0.00305679
-0.550758
0.551174
0.00390898
-0.0049463
-0.66534
0.666377
0.0062175
-0.00753457
-0.785348
0.786665
0.00916296
-0.0107609
-0.929959
0.931557
0.0125727
-0.0142668
-1.10488
1.10657
0.0161345
-0.0177714
-1.31545
1.31709
0.0194089
-0.0206599
-1.569
1.57025
0.0214919
-0.0218678
-1.56351
1.56389
0.0218323
-0.0214593
-1.30312
1.30275
0.0209007
-0.0201533
-1.09028
1.08953
0.0194439
-0.0186863
-0.915929
0.915171
0.017973
-0.0171567
-0.773627
0.772811
0.0161909
-0.0147554
-0.649791
0.648356
0.0128502
-0.0101781
-0.511083
0.508411
0.00753686
-0.00484491
-0.335972
0.33328
0.00286049
-0.00127126
-0.160202
0.158613
0.000373268
-0.0263528
0.0259795
-0.0325856
0.0329715
-0.000385903
0.00224546
-0.00312542
-0.245242
0.246122
0.00375299
-0.0039802
-0.410371
0.410598
0.00410629
-0.00448616
-0.551667
0.552047
0.00531385
-0.0063841
-0.667612
0.668683
0.00783861
-0.00942744
-0.788194
0.789783
0.0114425
-0.0134264
-0.933136
0.93512
0.0157195
-0.0178816
-1.10831
1.11047
0.0202452
-0.0223025
-1.31879
1.32085
0.0243335
-0.0258698
-1.57154
1.57308
0.0268991
-0.0273841
-1.56425
1.56473
0.0273796
-0.0269902
-1.30235
1.30197
0.0263766
-0.0254945
-1.0886
1.08772
0.0245331
-0.0233629
-0.914175
0.913005
0.0223058
-0.0211787
-0.771791
0.770664
0.019784
-0.0176782
-0.646724
0.644618
0.0150548
-0.0116386
-0.505598
0.502182
0.00850161
-0.00546347
-0.330547
0.327509
0.00326111
-0.00147696
-0.157008
0.155224
0.000443258
-0.0256137
0.0251704
-0.0334207
0.033938
-0.000517256
0.00315768
-0.00454977
-0.247247
0.248639
0.00570018
-0.00625326
-0.41096
0.411513
0.00637271
-0.00652331
-0.55244
0.552591
0.00708001
-0.00801418
-0.66989
0.670824
0.00950943
-0.0113268
-0.791513
0.793331
0.0137373
-0.0162183
-0.937103
0.939584
0.019151
-0.0219205
-1.11274
1.11551
0.0249627
-0.0276457
-1.32308
1.32577
0.0303327
-0.0323935
-1.57479
1.57685
0.0338281
-0.0346374
-1.56534
1.56615
0.0347675
-0.0344631
-1.30163
1.30133
0.0338436
-0.0328868
-1.08673
1.08578
0.0317532
-0.0302927
-0.91155
0.91009
0.028772
-0.0267222
-0.769007
0.766957
0.0242572
-0.0208934
-0.64204
0.638676
0.0172358
-0.0130075
-0.498583
0.494354
0.00944737
-0.00613576
-0.324502
0.32119
0.00372293
-0.00171573
-0.153436
0.151429
0.000522821
-0.0247412
0.0242184
-0.0345306
0.0352287
-0.000698081
0.00437259
-0.00646664
-0.250359
0.252453
0.00842999
-0.00960041
-0.412326
0.413497
0.0100751
-0.0101946
-0.55292
0.553039
0.0105369
-0.0113922
-0.671922
0.672777
0.0129654
-0.015014
-0.795199
0.797247
0.0178981
-0.0209081
-0.942056
0.945066
0.0244661
-0.027823
-1.11838
1.12173
0.0315027
-0.0347469
-1.32861
1.33186
0.0379824
-0.0404274
-1.57905
1.5815
0.0420783
-0.0429526
-1.567
1.56788
0.0430726
-0.0426029
-1.30096
1.30049
0.0417535
-0.04042
-1.08457
1.08324
0.0388855
-0.036866
-0.90821
0.906191
0.0345653
-0.0313869
-0.764198
0.76102
0.0279095
-0.0234213
-0.634805
0.630317
0.0190268
-0.0143331
-0.490146
0.485452
0.0105332
-0.00698347
-0.31799
0.31444
0.00430765
-0.00200731
-0.149412
0.147112
0.000615549
-0.0237144
0.0230988
-0.0360222
0.0369756
-0.000953426
0.00597877
-0.0089625
-0.254941
0.257925
0.0119685
-0.0140523
-0.415142
0.417226
0.01535
-0.0159492
-0.553767
0.554366
0.0165631
-0.0176229
-0.673883
0.674943
0.0196037
-0.0221651
-0.799366
0.801927
0.0255958
-0.029084
-0.94801
0.951498
0.0331515
-0.0369342
-1.12508
1.12886
0.0410105
-0.0445149
-1.3351
1.3386
0.0478816
-0.0502662
-1.58387
1.58625
0.0516681
-0.0521154
-1.56855
1.56899
0.0517667
-0.0507153
-1.29976
1.29871
0.0492429
-0.0471801
-1.0815
1.07944
0.0449346
-0.0420224
-0.90354
0.900628
0.0388576
-0.0347819
-0.757128
0.753052
0.0305797
-0.0255759
-0.625596
0.620592
0.0209413
-0.0160982
-0.481037
0.476194
0.0120949
-0.00818082
-0.31103
0.307116
0.00510306
-0.0023864
-0.144783
0.142066
0.000730028
-0.0225112
0.0217812
-0.0380282
0.0393342
-0.00130603
0.00809067
-0.0121645
-0.261323
0.265397
0.0164032
-0.0195976
-0.420039
0.423234
0.0220407
-0.0236696
-0.556112
0.557741
0.0253267
-0.0272581
-0.676551
0.678482
0.0301357
-0.0333549
-0.804479
0.807698
0.0373643
-0.0412953
-0.954847
0.958778
0.0457514
-0.0497847
-1.13251
1.13654
0.053985
-0.0574109
-1.3419
1.34533
0.0604483
-0.0622903
-1.58829
1.59013
0.0629533
-0.0624735
-1.56897
1.56849
0.0612238
-0.0591471
-1.29714
1.29507
0.056718
-0.053601
-1.07677
1.07365
0.0504003
-0.0465334
-0.89698
0.893113
0.042658
-0.0380448
-0.748395
0.743782
0.0335403
-0.0284213
-0.615557
0.610438
0.0237407
-0.0187257
-0.471716
0.466702
0.0143419
-0.00982871
-0.303325
0.298812
0.00616094
-0.00287214
-0.139309
0.13602
0.000870926
-0.0210861
0.0202152
-0.0407268
0.042558
-0.00183115
0.0111058
-0.0166072
-0.269892
0.275394
0.0223381
-0.0268349
-0.4275
0.431996
0.0306791
-0.033602
-0.560942
0.563865
0.0366905
-0.0399418
-0.681189
0.68444
0.0440343
-0.0481491
-0.81091
0.815025
0.0529374
-0.0574059
-0.962574
0.967042
0.0622545
-0.0664512
-1.14036
1.14456
0.0705788
-0.0736678
-1.34838
1.35147
0.0760216
-0.076941
-1.59139
1.59231
0.0764765
-0.0746729
-1.5673
1.56549
0.0721886
-0.0688004
-1.2923
1.28892
0.0652409
-0.0609604
-1.06984
1.06556
0.0568075
-0.0520877
-0.888517
0.883797
0.0476467
-0.0426601
-0.738623
0.733636
0.0379779
-0.0327355
-0.60528
0.600037
0.0278454
-0.0223605
-0.461971
0.456486
0.017308
-0.0119007
-0.294423
0.289016
0.007431
-0.00343785
-0.132699
0.128706
0.00103134
-0.0193807
0.0183493
-0.0444448
0.0471028
-0.00265801
0.0156254
-0.0230512
-0.281316
0.288741
0.0306087
-0.0365806
-0.438078
0.44405
0.0419097
-0.0462731
-0.568714
0.573077
0.051099
-0.0559116
-0.688526
0.693339
0.0615312
-0.0667972
-0.819204
0.82447
0.072569
-0.0776709
-0.971401
0.976503
0.0829148
-0.0871845
-1.14846
1.15273
0.0910547
-0.0935909
-1.35404
1.35657
0.0949875
-0.0947126
-1.59246
1.59219
0.0928686
-0.0895284
-1.56283
1.55949
0.0856558
-0.0808137
-1.28474
1.2799
0.0760351
-0.0705725
-1.06055
1.05509
0.0654988
-0.0599574
-0.87832
0.872779
0.0549523
-0.0495365
-0.727983
0.722568
0.0445519
-0.0389353
-0.594585
0.588969
0.0335182
-0.0271738
-0.451166
0.444822
0.0211067
-0.0144827
-0.283721
0.277097
0.0089876
-0.00411524
-0.124699
0.119826
0.0012178
-0.0173691
0.0161513
-0.0497468
0.0538517
-0.00410492
0.0229391
-0.0330825
-0.296703
0.306847
0.0430226
-0.050813
-0.452505
0.460295
0.0578313
-0.0638399
-0.579857
0.585866
0.0706904
-0.0772244
-0.698938
0.705472
0.0844544
-0.0908748
-0.82976
0.83618
0.0975517
-0.10315
-0.981419
0.987016
0.108567
-0.112658
-1.15657
1.16067
0.115962
-0.117659
-1.35843
1.36012
0.117787
-0.116048
-1.59098
1.58924
0.112604
-0.107571
-1.55518
1.55015
0.102224
-0.0958635
-1.27422
1.26786
0.0898338
-0.0831673
-1.04888
1.04221
0.0771428
-0.0707127
-0.8664
0.85997
0.0650382
-0.0590145
-0.716256
0.710232
0.0534963
-0.047178
-0.582851
0.576532
0.040867
-0.0332501
-0.438488
0.430871
0.0258163
-0.017636
-0.270622
0.262442
0.0108482
-0.00489639
-0.115009
0.109058
0.00142088
-0.0150043
0.0135834
-0.0577064
0.0649167
-0.00721027
0.0363664
-0.0507007
-0.318195
0.33253
0.0642011
-0.0740907
-0.471896
0.481786
0.0827214
-0.0904239
-0.594843
0.602546
0.0993812
-0.10741
-0.712512
0.720541
0.115804
-0.122885
-0.842398
0.849479
0.129895
-0.135445
-0.992177
0.997727
0.140448
-0.14382
-1.16405
1.16743
0.146014
-0.14639
-1.36088
1.36125
0.144804
-0.141234
-1.58636
1.58279
0.13592
-0.129015
-1.54402
1.53711
0.122096
-0.114182
-1.26061
1.2527
0.106878
-0.0989738
-1.03476
1.02686
0.0919497
-0.0845631
-0.852609
0.845223
0.0781227
-0.0713397
-0.703035
0.696252
0.0650998
-0.0577475
-0.569327
0.561974
0.0501403
-0.0407887
-0.423041
0.413689
0.0315659
-0.0214421
-0.254413
0.24429
0.01306
-0.00579564
-0.103362
0.0960975
0.00162908
-0.0122795
0.0106504
-0.0717819
0.0754777
-0.0036958
0.0266517
-0.0391124
-0.349755
0.362215
0.0508995
-0.060062
-0.49682
0.505982
0.0690856
-0.078512
-0.613537
0.622964
0.089153
-0.098615
-0.728197
0.737659
0.109112
-0.118381
-0.855799
0.865067
0.128022
-0.136315
-1.00233
1.01062
0.144596
-0.151262
-1.16964
1.17631
0.157243
-0.161202
-1.36034
1.3643
0.163414
-0.162977
-1.57784
1.5774
0.159743
-0.1541
-1.52895
1.5233
0.147367
-0.138773
-1.24383
1.23523
0.130405
-0.120401
-1.01812
1.00812
0.11132
-0.101464
-0.83682
0.826964
0.0927623
-0.0835174
-0.687986
0.678742
0.0747224
-0.0646182
-0.553388
0.543283
0.0542175
-0.0415451
-0.403816
0.391143
0.0299005
-0.0183179
-0.234176
0.222594
0.0098835
-0.0037623
-0.0894335
0.0833123
0.000818481
-0.00928779
0.00846931
-0.0826875
0.0801709
0.00251655
0.00463944
-0.0124165
-0.377638
0.385416
0.0211591
-0.0282402
-0.519823
0.526904
0.0364766
-0.0447218
-0.633821
0.642066
0.0543703
-0.0631499
-0.746974
0.755754
0.072461
-0.080888
-0.873885
0.882312
0.0896467
-0.0968746
-1.01863
1.02586
0.10428
-0.109883
-1.18278
1.18838
0.114823
-0.117741
-1.36791
1.37083
0.118597
-0.117033
-1.576
1.57444
0.112766
-0.106195
-1.51666
1.51009
0.0985856
-0.0892584
-1.22597
1.21664
0.0803356
-0.070197
-0.997606
0.987467
0.0607711
-0.0504255
-0.815767
0.805421
0.0413269
-0.0322132
-0.666458
0.657344
0.0245231
-0.0165867
-0.530078
0.522141
0.00959025
-0.00335438
-0.377702
0.371466
-0.00036771
0.00243607
-0.210559
0.208491
-0.0028254
0.001962
-0.0765722
0.0774356
-0.000843461
-0.00707147
0.00791493
-0.0831281
0.0800333
0.00309474
-0.00384464
-1.74587e-05
-0.396225
0.400087
0.00570927
-0.0112539
-0.537893
0.543437
0.0181618
-0.0253002
-0.651297
0.658436
0.0335594
-0.0411237
-0.763972
0.771536
0.0493764
-0.0566991
-0.890102
0.897425
0.0640885
-0.0705514
-1.03295
1.03942
0.076981
-0.0819405
-1.1936
1.19856
0.0858904
-0.0879843
-1.37312
1.37521
0.0883772
-0.0863332
-1.57222
1.57017
0.0817664
-0.0751237
-1.50293
1.49629
0.0677164
-0.0589642
-1.20727
1.19851
0.0503146
-0.0408237
-0.977022
0.967531
0.0320638
-0.022536
-0.795037
0.785509
0.0143757
-0.00614635
-0.646543
0.638313
-0.000469414
0.00672833
-0.511507
0.505248
-0.0109934
0.0132006
-0.362963
0.360756
-0.0127423
0.0104149
-0.20349
0.205817
-0.00740233
0.00392083
-0.0769939
0.0804754
-0.00135268
-0.00789029
0.00924297
-0.0814259
0.078498
0.00292786
-0.00679051
0.00516495
-0.408018
0.409644
-0.0018574
-0.00236417
-0.551887
0.556108
0.00853556
-0.0145594
-0.665814
0.671837
0.0216329
-0.028142
-0.778803
0.785312
0.0352063
-0.0415002
-0.904335
0.910629
0.0482462
-0.0537793
-1.04552
1.05105
0.0594886
-0.0634833
-1.2032
1.2072
0.0669591
-0.0687574
-1.37719
1.37899
0.0688421
-0.0665556
-1.56783
1.56555
0.0623564
-0.056336
-1.4893
1.48328
0.0496562
-0.0415207
-1.18979
1.18166
0.0338823
-0.0255596
-0.958016
0.949693
0.0177816
-0.00965857
-0.776103
0.76798
0.00236254
0.00471443
-0.628858
0.621781
-0.0102224
0.0147776
-0.496736
0.49218
-0.0173348
0.0178937
-0.355194
0.354635
-0.0158766
0.0119043
-0.20469
0.208662
-0.0081958
0.00412323
-0.0822617
0.0863343
-0.00134705
-0.00972719
0.0110742
-0.0796617
0.0771733
0.00248839
-0.0073881
0.00712536
-0.415781
0.416044
-0.00461189
0.00140695
-0.563337
0.566542
0.00364058
-0.00907137
-0.678113
0.683544
0.0150522
-0.0208183
-0.791397
0.797163
0.0269796
-0.0324968
-0.916606
0.922123
0.0383575
-0.0433722
-1.05653
1.06154
0.0483177
-0.0521377
-1.21115
1.21497
0.0552715
-0.0569026
-1.38056
1.38219
0.056994
-0.0549371
-1.56327
1.56121
0.051201
-0.0456887
-1.47685
1.47134
0.0398021
-0.0328284
-1.17378
1.1668
0.0262388
-0.0189677
-0.941405
0.934133
0.0124239
-0.00550458
-0.759846
0.752927
-0.000464853
0.00631214
-0.614063
0.608216
-0.0106744
0.0141005
-0.485333
0.481907
-0.0159561
0.0160377
-0.350884
0.350802
-0.0138974
0.0103573
-0.208616
0.212156
-0.00704143
0.00346552
-0.0881481
0.091724
-0.00115219
-0.0115519
0.0127041
-0.078183
0.0761003
0.00208276
-0.00691887
0.00696074
-0.421027
0.420985
-0.00548851
0.00273785
-0.572317
0.575067
0.00194735
-0.00660905
-0.688651
0.693313
0.0118217
-0.0168891
-0.802359
0.807427
0.0224252
-0.0274237
-0.927418
0.932416
0.0328801
-0.0373778
-1.06637
1.07086
0.0419645
-0.045548
-1.21861
1.22219
0.0484866
-0.0500677
-1.38368
1.38526
0.0502565
-0.0488431
-1.55923
1.55782
0.0455538
-0.0408675
-1.46565
1.46096
0.0356974
-0.0295938
-1.15992
1.15382
0.0240926
-0.0177443
-0.927014
0.920666
0.0121506
-0.00644507
-0.746181
0.740476
0.0015155
0.00325239
-0.602111
0.597343
-0.00678761
0.00962083
-0.476583
0.47375
-0.0107977
0.0107601
-0.347821
0.347859
-0.00935044
0.00670973
-0.211703
0.214344
-0.00437766
0.00216736
-0.0926116
0.0948219
-0.000742323
-0.0129298
0.0136721
-0.0771437
0.0755452
0.00159852
-0.00581462
0.00604762
-0.424928
0.424695
-0.00470803
0.00255251
-0.580305
0.582461
0.001684
-0.00591994
-0.69789
0.702126
0.0109165
-0.0153513
-0.812276
0.816711
0.0202931
-0.0248048
-0.937494
0.942006
0.0300738
-0.0342633
-1.07547
1.07966
0.0384714
-0.0420056
-1.22568
1.22922
0.0452749
-0.0469128
-1.38696
1.3886
0.0474358
-0.0462981
-1.55615
1.55502
0.0437813
-0.0394748
-1.45624
1.45193
0.035086
-0.0298597
-1.14776
1.14254
0.0249314
-0.0195747
-0.914541
0.909184
0.0146993
-0.00962365
-0.734697
0.729622
0.00560881
-0.00140687
-0.592199
0.587997
-0.00180042
0.00413052
-0.469356
0.467026
-0.00532051
0.00565266
-0.3452
0.344868
-0.00494487
0.00347802
-0.213181
0.214648
-0.00221878
0.00113357
-0.0947202
0.0958054
-0.000434415
-0.0135516
0.0139861
-0.0766527
0.0754081
0.00124462
-0.00462193
0.00488885
-0.428066
0.427799
-0.00355135
0.00146681
-0.587342
0.589426
0.00246525
-0.00628942
-0.706272
0.710096
0.0106321
-0.0149506
-0.821227
0.825546
0.019581
-0.0242805
-0.946425
0.951125
0.0289134
-0.0330002
-1.08401
1.0881
0.0374336
-0.0408432
-1.23271
1.23612
0.0437953
-0.0459942
-1.39024
1.39244
0.0468955
-0.0462519
-1.55403
1.55338
0.044123
-0.0406116
-1.4479
1.44438
0.0367487
-0.0320672
-1.13711
1.13243
0.0277001
-0.0228411
-0.903776
0.898917
0.0184503
-0.014018
-0.724612
0.72018
0.0101101
-0.00635003
-0.583432
0.579672
0.00346713
-0.000955126
-0.463152
0.46064
-0.000515561
0.00104956
-0.342027
0.341493
-0.00118715
0.000969692
-0.212739
0.212956
-0.000730412
0.000468127
-0.0948685
0.0951307
-0.000257844
-0.0136318
0.0138896
-0.0766964
0.0756606
0.00103578
-0.00331051
0.00335975
-0.430984
0.430935
-0.0022137
0.000116853
-0.593837
0.595934
0.00360184
-0.00734018
-0.714125
0.717863
0.0115367
-0.0154962
-0.829776
0.833736
0.0202822
-0.0242609
-0.955345
0.959324
0.0289159
-0.0328873
-1.0924
1.09637
0.0372867
-0.0409693
-1.23958
1.24326
0.0443084
-0.0464143
-1.39447
1.39658
0.0477933
-0.0476794
-1.55274
1.55262
0.0462902
-0.0431684
-1.44079
1.43767
0.0397709
-0.0354954
-1.12783
1.12356
0.0314949
-0.0269019
-0.893849
0.889256
0.0228661
-0.0185621
-0.715471
0.711167
0.0148567
-0.0111838
-0.575488
0.571815
0.00822834
-0.00580638
-0.456963
0.454541
0.00399515
-0.00289712
-0.338156
0.337058
0.00195547
-0.00115019
-0.210527
0.209722
0.000513307
8.81545e-06
-0.0934014
0.0928793
-0.000144615
-0.0132649
0.0134095
-0.0770085
0.0762944
0.000714132
-0.00215684
0.0018188
-0.434101
0.434439
-0.000831939
-0.00156799
-0.599475
0.601875
0.00487785
-0.00846899
-0.721523
0.725114
0.01251
-0.0166158
-0.83766
0.841766
0.0208403
-0.025007
-0.96357
0.967737
0.0296676
-0.0334821
-1.10081
1.10462
0.038029
-0.0417323
-1.24681
1.25051
0.0452129
-0.0479212
-1.39914
1.40185
0.049877
-0.050128
-1.5526
1.55285
0.0490394
-0.0466266
-1.43471
1.4323
0.0437213
-0.0397242
-1.1191
1.11511
0.0358757
-0.0316838
-0.884527
0.880335
0.0274567
-0.0233892
-0.70656
0.702492
0.0197263
-0.0159533
-0.567913
0.56414
0.0130223
-0.0102082
-0.450663
0.447849
0.00807408
-0.00620271
-0.33351
0.331638
0.00468813
-0.00301813
-0.206766
0.205096
0.00156612
-0.000434635
-0.0906853
0.0895538
-1.84695e-05
-0.0125854
0.0126039
-0.0777221
0.0771579
0.000564222
-0.00121471
0.000946343
-0.437447
0.437715
0.000611831
-0.0029038
-0.605263
0.607555
0.0063329
-0.00979132
-0.728432
0.731891
0.0136911
-0.0174259
-0.845629
0.849364
0.0217937
-0.0256808
-0.971964
0.975851
0.0303225
-0.0345932
-1.10892
1.1132
0.0388337
-0.0429048
-1.25431
1.25838
0.046858
-0.0497218
-1.40451
1.40738
0.0521201
-0.0531998
-1.55335
1.55443
0.052595
-0.0507987
-1.42976
1.42796
0.0480552
-0.0443977
-1.11107
1.10741
0.0408043
-0.0365962
-0.875634
0.871426
0.032561
-0.0284191
-0.697859
0.693717
0.0247119
-0.0207584
-0.560005
0.556052
0.0175305
-0.0144532
-0.443976
0.440899
0.0117175
-0.00920795
-0.327676
0.325166
0.00699071
-0.00460009
-0.201506
0.199116
0.00260133
-0.000945071
-0.0869963
0.0853401
0.0001482
-0.0117113
0.0115631
-0.0786765
0.0782809
0.00039559
-0.000251119
-0.000157652
-0.440956
0.441365
0.00179357
-0.00429968
-0.610743
0.61325
0.00761017
-0.0109027
-0.735105
0.738397
0.0148845
-0.0184845
-0.853139
0.856739
0.0227184
-0.0267407
-0.98025
0.984272
0.031309
-0.035567
-1.11736
1.12162
0.0400521
-0.0441836
-1.26241
1.26654
0.0483656
-0.0520126
-1.41057
1.41421
0.0549121
-0.056343
-1.55549
1.55693
0.0564527
-0.0549779
-1.42605
1.42458
0.052742
-0.0495158
-1.10362
1.1004
0.0458741
-0.0417266
-0.866842
0.862695
0.0377085
-0.0333654
-0.689124
0.684781
0.0296332