/*--------------------------------*- C++ -*----------------------------------*\
| =========                 |                                                 |
| \\      /  F ield         | OpenFOAM: The Open Source CFD Toolbox           |
|  \\    /   O peration     | Version:  2306                                  |
|   \\  /    A nd           | Website:  www.openfoam.com                      |
|    \\/     M anipulation  |                                                 |
\*---------------------------------------------------------------------------*/
FoamFile
{
    version     2.0;
    format      ascii;
    arch        "LSB;label=32;scalar=64";
    class       volVectorField;
    location    "24";
    object      U;
}
// * * * * * * * * * * * * * * * * * * * * * * * * * * * * * * * * * * * * * //

dimensions      [0 1 -1 0 0 0 0];

internalField   nonuniform List<vector> 
8800
(
(0.984962 -0.0884511 0)
(1.00213 -0.0568209 0)
(0.999681 -0.0305532 0)
(1.00002 -0.0158557 0)
(1.00005 -0.00870412 0)
(1.00002 -0.00505904 0)
(1.00001 -0.00297584 0)
(1 -0.00169228 0)
(0.999998 -0.000818288 0)
(1.00005 -0.000129483 0)
(0.999996 0.000566931 0)
(0.999997 0.00132282 0)
(1 0.00235383 0)
(1.00001 0.00396211 0)
(1.00003 0.00667944 0)
(1.00006 0.0117161 0)
(0.999922 0.022041 0)
(0.999202 0.0411641 0)
(1.00745 0.0768946 0)
(0.773649 0.0450697 0)
(0.361009 -0.0151708 0)
(1.04557 -0.0741992 0)
(1.08713 -0.0678902 0)
(1.04779 -0.0522984 0)
(1.02458 -0.038389 0)
(1.01234 -0.0261068 0)
(1.00641 -0.0167597 0)
(1.00355 -0.0102778 0)
(1.00215 -0.00568028 0)
(1.00152 -0.00211871 0)
(1.0014 0.00105476 0)
(1.00174 0.0043596 0)
(1.00269 0.00827469 0)
(1.00469 0.0136282 0)
(1.00881 0.0213809 0)
(1.0174 0.032216 0)
(1.03456 0.0455801 0)
(1.06559 0.0597206 0)
(1.09412 0.0729444 0)
(0.842327 0.0556963 0)
(0.217091 -0.00164454 0)
(1.07588 -0.0503352 0)
(1.09985 -0.0486984 0)
(1.06464 -0.0401512 0)
(1.0399 -0.0329861 0)
(1.02367 -0.0256895 0)
(1.01392 -0.0183472 0)
(1.00848 -0.0116856 0)
(1.00564 -0.00595529 0)
(1.00449 -0.000721724 0)
(1.00482 0.00435016 0)
(1.00669 0.0096627 0)
(1.0106 0.0157241 0)
(1.01789 0.0226534 0)
(1.03055 0.0299361 0)
(1.05077 0.0369754 0)
(1.08055 0.044346 0)
(1.10641 0.0516028 0)
(0.943149 0.0412518 0)
(0.216681 0.00165718 0)
(0.175948 -0.00064347 0)
(1.01874 -0.0353657 0)
(1.10561 -0.041365 0)
(1.0781 -0.0361999 0)
(1.05274 -0.0301653 0)
(1.03539 -0.0244467 0)
(1.02337 -0.0187755 0)
(1.01549 -0.0128649 0)
(1.01088 -0.00686701 0)
(1.00887 -0.000723426 0)
(1.00944 0.00537206 0)
(1.01257 0.0112707 0)
(1.01861 0.0170687 0)
(1.02836 0.0226616 0)
(1.04277 0.0281217 0)
(1.0636 0.0338393 0)
(1.09411 0.0398689 0)
(1.09457 0.0415826 0)
(0.829606 0.0226523 0)
(0.175262 0.000657967 0)
(0.154466 -0.000484235 0)
(0.957511 -0.0254537 0)
(1.10409 -0.0349549 0)
(1.08784 -0.0325317 0)
(1.06121 -0.028023 0)
(1.04325 -0.0230646 0)
(1.03085 -0.0178746 0)
(1.0222 -0.012503 0)
(1.01661 -0.00677066 0)
(1.01398 -0.000495892 0)
(1.01469 0.00582506 0)
(1.0186 0.0116186 0)
(1.0255 0.0169025 0)
(1.03575 0.0219101 0)
(1.05052 0.0267768 0)
(1.07231 0.0312972 0)
(1.10118 0.0352293 0)
(1.06999 0.0335043 0)
(0.742804 0.0141622 0)
(0.153438 0.000500561 0)
(0.140061 -0.00035355 0)
(0.900915 -0.0190085 0)
(1.09652 -0.0298343 0)
(1.09587 -0.0289224 0)
(1.0687 -0.0251824 0)
(1.0499 -0.0211732 0)
(1.03695 -0.01664 0)
(1.02796 -0.0116394 0)
(1.02201 -0.00619319 0)
(1.01907 -0.000105502 0)
(1.01979 0.00603293 0)
(1.02395 0.0115284 0)
(1.0311 0.0164213 0)
(1.0417 0.0208657 0)
(1.05712 0.0248208 0)
(1.07988 0.0283713 0)
(1.10374 0.0311736 0)
(1.03889 0.0273966 0)
(0.677368 0.00995083 0)
(0.138619 0.000372834 0)
(0.129606 -0.00026793 0)
(0.85184 -0.014485 0)
(1.0843 -0.0255017 0)
(1.10147 -0.0258312 0)
(1.07534 -0.0226149 0)
(1.0559 -0.0191058 0)
(1.04243 -0.0151382 0)
(1.03306 -0.010547 0)
(1.02688 -0.00537339 0)
(1.02378 0.000389829 0)
(1.02443 0.00615369 0)
(1.02862 0.0113022 0)
(1.03595 0.0157875 0)
(1.04693 0.0196417 0)
(1.06286 0.022972 0)
(1.08617 0.0259984 0)
(1.10334 0.0278957 0)
(1.00541 0.0225315 0)
(0.62721 0.00744528 0)
(0.127662 0.00029133 0)
(0.121799 -0.000201229 0)
(0.810779 -0.0110881 0)
(1.06932 -0.0214694 0)
(1.10471 -0.0227132 0)
(1.0812 -0.0199919 0)
(1.06139 -0.0167999 0)
(1.04764 -0.013232 0)
(1.03791 -0.0091329 0)
(1.03138 -0.00442228 0)
(1.02805 0.000973102 0)
(1.02862 0.00638193 0)
(1.03291 0.0110227 0)
(1.04046 0.0149033 0)
(1.05163 0.0181902 0)
(1.06781 0.0210658 0)
(1.09142 0.0237277 0)
(1.10018 0.0247808 0)
(0.972353 0.0184695 0)
(0.588109 0.0057253 0)
(0.119247 0.000229983 0)
(0.115956 -0.000151021 0)
(0.777177 -0.00841321 0)
(1.05333 -0.0177435 0)
(1.10687 -0.0196144 0)
(1.08656 -0.0172704 0)
(1.0663 -0.0143364 0)
(1.05227 -0.0111649 0)
(1.04238 -0.00751262 0)
(1.03568 -0.00324124 0)
(1.03216 0.00170625 0)
(1.03257 0.00661833 0)
(1.03679 0.0106966 0)
(1.04431 0.0140009 0)
(1.05555 0.0167292 0)
(1.07202 0.0191542 0)
(1.09551 0.0214842 0)
(1.09473 0.0218524 0)
(0.941362 0.0150721 0)
(0.557277 0.00445024 0)
(0.112661 0.000186738 0)
(0.111688 -0.000108329 0)
(0.75043 -0.00620022 0)
(1.0374 -0.014203 0)
(1.10802 -0.0165753 0)
(1.09147 -0.0147586 0)
(1.07082 -0.0121993 0)
(1.05657 -0.00927562 0)
(1.04662 -0.00580406 0)
(1.03981 -0.00183811 0)
(1.03606 0.00261255 0)
(1.0363 0.00692014 0)
(1.04035 0.010466 0)
(1.04769 0.0133589 0)
(1.05885 0.0157051 0)
(1.07566 0.0176806 0)
(1.09841 0.0194323 0)
(1.08737 0.0190223 0)
(0.913344 0.0121522 0)
(0.53303 0.00345736 0)
(0.107486 0.000152722 0)
(0.108702 -7.42888e-05 0)
(0.729969 -0.00427012 0)
(1.02257 -0.0107464 0)
(1.1079 -0.013317 0)
(1.09549 -0.0119916 0)
(1.07476 -0.00967938 0)
(1.06021 -0.00702897 0)
(1.04998 -0.00393215 0)
(1.04294 -0.000337288 0)
(1.03901 0.00368662 0)
(1.03894 0.00750966 0)
(1.04273 0.0104936 0)
(1.05002 0.0127605 0)
(1.06133 0.0145662 0)
(1.07826 0.0161089 0)
(1.09951 0.017282 0)
(1.07848 0.0161482 0)
(0.888874 0.00958159 0)
(0.514131 0.00264095 0)
(0.103381 0.000130256 0)
(0.106945 -3.17586e-05 0)
(0.715594 -0.00244041 0)
(1.00994 -0.00726329 0)
(1.10714 -0.00969452 0)
(1.09909 -0.00868428 0)
(1.07855 -0.00672054 0)
(1.06393 -0.00445485 0)
(1.0536 -0.00171068 0)
(1.04639 0.00144715 0)
(1.04216 0.00499326 0)
(1.04175 0.00824558 0)
(1.04526 0.0105444 0)
(1.05228 0.0121145 0)
(1.06338 0.0132214 0)
(1.08024 0.0141822 0)
(1.09945 0.0148382 0)
(1.06902 0.0132065 0)
(0.868386 0.00720792 0)
(0.500043 0.00190398 0)
(0.100243 0.000102295 0)
(0.106389 6.87067e-06 0)
(0.706722 -0.000938305 0)
(0.999777 -0.00423224 0)
(1.10592 -0.00649312 0)
(1.1019 -0.00586378 0)
(1.08155 -0.00428526 0)
(1.06683 -0.00232413 0)
(1.05646 0.000251932 0)
(1.0492 0.00328144 0)
(1.04473 0.00656321 0)
(1.04385 0.00940765 0)
(1.04677 0.0113186 0)
(1.05337 0.0124832 0)
(1.0642 0.013022 0)
(1.08101 0.01324 0)
(1.09827 0.0131634 0)
(1.0592 0.0108605 0)
(0.851583 0.00538705 0)
(0.48989 0.0013887 0)
(0.0979672 7.61887e-05 0)
(0.106749 4.71067e-05 0)
(0.702354 0.000105358 0)
(0.992154 -0.00177213 0)
(1.1041 -0.00368354 0)
(1.10392 -0.00336647 0)
(1.0842 -0.00204225 0)
(1.06963 -0.000116813 0)
(1.0593 0.0024627 0)
(1.05177 0.00542462 0)
(1.04682 0.0084827 0)
(1.04543 0.0109596 0)
(1.04792 0.0123999 0)
(1.05397 0.0129767 0)
(1.06427 0.0130673 0)
(1.08062 0.0128658 0)
(1.09549 0.0121158 0)
(1.04898 0.00922702 0)
(0.837909 0.00438013 0)
(0.482172 0.00117962 0)
(0.096224 6.24136e-05 0)
(0.107754 6.31937e-05 0)
(0.701236 0.000767765 0)
(0.987472 -2.22391e-05 0)
(1.10251 -0.00119835 0)
(1.10569 -0.000837472 0)
(1.08693 0.000485356 0)
(1.0726 0.00254466 0)
(1.06231 0.00514404 0)
(1.05457 0.00797768 0)
(1.04915 0.010836 0)
(1.04705 0.0129584 0)
(1.04875 0.0138603 0)
(1.05412 0.01393 0)
(1.06385 0.0134802 0)
(1.07955 0.0128805 0)
(1.09174 0.0116642 0)
(1.03905 0.00856925 0)
(0.826332 0.00424763 0)
(0.475184 0.00124588 0)
(0.0945763 6.67816e-05 0)
(0.10916 7.92332e-05 0)
(0.701962 0.00119033 0)
(0.985522 0.00115842 0)
(1.10222 0.000895237 0)
(1.10778 0.00182964 0)
(1.08983 0.00346961 0)
(1.0755 0.00577119 0)
(1.06493 0.0083712 0)
(1.0568 0.0111205 0)
(1.05077 0.0137605 0)
(1.04782 0.0154403 0)
(1.04872 0.0157887 0)
(1.05345 0.0153396 0)
(1.06258 0.0144989 0)
(1.07767 0.0134494 0)
(1.08752 0.0119454 0)
(1.0297 0.0088917 0)
(0.815294 0.00467153 0)
(0.467705 0.00144201 0)
(0.0927042 8.21191e-05 0)
(0.110984 9.63212e-05 0)
(0.704218 0.00170045 0)
(0.985432 0.00216318 0)
(1.10354 0.00237131 0)
(1.1111 0.00381968 0)
(1.09336 0.00592038 0)
(1.07877 0.00862972 0)
(1.06791 0.0116149 0)
(1.05933 0.0146746 0)
(1.0525 0.0173575 0)
(1.0485 0.0188037 0)
(1.04838 0.0187798 0)
(1.05237 0.0178049 0)
(1.06098 0.016529 0)
(1.07533 0.0152215 0)
(1.08309 0.0135629 0)
(1.02012 0.0101081 0)
(0.803334 0.00533312 0)
(0.459219 0.00168626 0)
(0.0904551 0.000103499 0)
(0.113358 0.000119967 0)
(0.708218 0.00241049 0)
(0.986183 0.00339451 0)
(1.10541 0.0036146 0)
(1.11504 0.00502749 0)
(1.09754 0.00742212 0)
(1.08269 0.0107506 0)
(1.07144 0.0145379 0)
(1.06213 0.0184238 0)
(1.05422 0.0217524 0)
(1.04894 0.0235408 0)
(1.04766 0.0235887 0)
(1.05056 0.0225062 0)
(1.05865 0.0207643 0)
(1.07262 0.0188288 0)
(1.07756 0.0164681 0)
(1.0084 0.0116832 0)
(0.789745 0.00597932 0)
(0.449636 0.00194708 0)
(0.0877596 0.000126503 0)
(0.116499 0.000157449 0)
(0.714789 0.00342608 0)
(0.987851 0.00530845 0)
(1.10673 0.00543393 0)
(1.1188 0.00647493 0)
(1.10235 0.00892761 0)
(1.08759 0.0129419 0)
(1.07603 0.017763 0)
(1.06585 0.0227722 0)
(1.05656 0.0271801 0)
(1.04976 0.0296807 0)
(1.04711 0.0300239 0)
(1.04872 0.0289562 0)
(1.05539 0.0269363 0)
(1.06812 0.024111 0)
(1.0688 0.019761 0)
(0.993442 0.013159 0)
(0.774731 0.00665533 0)
(0.438921 0.00225516 0)
(0.0845841 0.000151543 0)
(0.120698 0.000212674 0)
(0.724897 0.00479292 0)
(0.991646 0.00796414 0)
(1.10756 0.00862521 0)
(1.12218 0.00939783 0)
(1.10764 0.0119566 0)
(1.09365 0.0167446 0)
(1.08175 0.0226128 0)
(1.07052 0.0286681 0)
(1.05955 0.0339807 0)
(1.0509 0.0368619 0)
(1.04648 0.0371415 0)
(1.04643 0.0356611 0)
(1.05122 0.0329122 0)
(1.06065 0.0286512 0)
(1.05576 0.0223699 0)
(0.975964 0.0144285 0)
(0.758669 0.00750635 0)
(0.42679 0.00263887 0)
(0.0808472 0.000178744 0)
(0.126372 0.000293968 0)
(0.739515 0.00656672 0)
(0.999147 0.0114327 0)
(1.10956 0.013508 0)
(1.12558 0.014654 0)
(1.11379 0.0179861 0)
(1.10085 0.0235998 0)
(1.08845 0.030306 0)
(1.07586 0.0370128 0)
(1.06276 0.0425391 0)
(1.05179 0.0450001 0)
(1.04529 0.0444492 0)
(1.04313 0.0418377 0)
(1.0453 0.0378044 0)
(1.05015 0.0320554 0)
(1.03996 0.0244316 0)
(0.957583 0.0159949 0)
(0.741427 0.00874337 0)
(0.41272 0.00314296 0)
(0.0764583 0.000210206 0)
(0.134008 0.000408939 0)
(0.759527 0.00887778 0)
(1.01181 0.0157823 0)
(1.11515 0.0197842 0)
(1.1307 0.0225482 0)
(1.12141 0.0274066 0)
(1.10907 0.033982 0)
(1.09576 0.0413145 0)
(1.08131 0.0482224 0)
(1.06554 0.0532077 0)
(1.05178 0.0544032 0)
(1.04278 0.0522251 0)
(1.03804 0.0478785 0)
(1.03711 0.0421086 0)
(1.03762 0.0350907 0)
(1.02324 0.0268974 0)
(0.938954 0.0183717 0)
(0.722216 0.0104842 0)
(0.396061 0.00379428 0)
(0.0712712 0.000246793 0)
(0.144333 0.000584393 0)
(0.786097 0.0121586 0)
(1.03078 0.0214918 0)
(1.12608 0.0278324 0)
(1.13962 0.0330237 0)
(1.13097 0.0398274 0)
(1.11829 0.0476996 0)
(1.10337 0.055678 0)
(1.08633 0.0624691 0)
(1.06729 0.0663302 0)
(1.0502 0.065584 0)
(1.03836 0.0611653 0)
(1.03078 0.0547659 0)
(1.02678 0.0472554 0)
(1.02383 0.0392011 0)
(1.00628 0.0306692 0)
(0.919395 0.0217707 0)
(0.700139 0.0127034 0)
(0.376144 0.00456325 0)
(0.0651114 0.000286984 0)
(0.158608 0.000865691 0)
(0.821044 0.0170194 0)
(1.05734 0.0292811 0)
(1.14298 0.0381625 0)
(1.15321 0.0462752 0)
(1.14325 0.0554853 0)
(1.12879 0.0649813 0)
(1.11114 0.0736265 0)
(1.0906 0.0800072 0)
(1.06757 0.0822966 0)
(1.04667 0.0791699 0)
(1.03169 0.07222 0)
(1.02124 0.0635919 0)
(1.0145 0.0543981 0)
(1.00885 0.0453011 0)
(0.98856 0.0362036 0)
(0.897529 0.0263614 0)
(0.673694 0.0155061 0)
(0.352212 0.00548942 0)
(0.0578971 0.000331251 0)
(0.179031 0.00136455 0)
(0.867501 0.0247181 0)
(1.09314 0.0407916 0)
(1.16658 0.0525054 0)
(1.17193 0.0640648 0)
(1.15861 0.0758504 0)
(1.14057 0.086875 0)
(1.11879 0.0958351 0)
(1.09375 0.101305 0)
(1.06608 0.101511 0)
(1.04099 0.0956105 0)
(1.02262 0.0859545 0)
(1.00941 0.075024 0)
(1.00022 0.0640839 0)
(0.992295 0.0537469 0)
(0.969003 0.0436627 0)
(0.871872 0.0322126 0)
(0.641755 0.0189559 0)
(0.323694 0.00657816 0)
(0.0495423 0.000373568 0)
(0.208911 0.00249472 0)
(0.931169 0.0382095 0)
(1.14019 0.0600329 0)
(1.19744 0.0743187 0)
(1.19546 0.0896753 0)
(1.17646 0.103385 0)
(1.15293 0.115009 0)
(1.12568 0.123306 0)
(1.09526 0.126951 0)
(1.06247 0.124312 0)
(1.03297 0.115131 0)
(1.01112 0.102566 0)
(0.995257 0.0892877 0)
(0.983779 0.0765056 0)
(0.973615 0.0647432 0)
(0.946369 0.0533047 0)
(0.840886 0.0395366 0)
(0.603257 0.0231268 0)
(0.290788 0.00786674 0)
(0.0403385 0.000402105 0)
(0.250066 0.00892832 -2.21293e-20)
(1.01547 0.0656265 -1.7394e-20)
(1.19585 0.0928051 4.75783e-21)
(1.23394 0.109935 0)
(1.22114 0.126962 -8.19744e-36)
(1.19467 0.140605 4.45155e-22)
(1.16442 0.151084 -2.77634e-21)
(1.13082 0.157413 0)
(1.0944 0.15832 1.00443e-34)
(1.05598 0.152258 -7.54644e-21)
(1.02164 0.139536 0)
(0.995916 0.124034 -1.07426e-20)
(0.977038 0.108471 -3.28068e-20)
(0.962923 0.0939476 -1.58508e-20)
(0.950046 0.0809348 -4.97565e-21)
(0.918459 0.0683712 -3.00113e-21)
(0.801008 0.0515584 0)
(0.554634 0.0303711 2.13321e-21)
(0.253135 0.011297 2.51758e-21)
(0.0319328 0.00110187 4.40354e-20)
(0.277191 0.0247822 -4.33411e-20)
(1.08479 0.109421 9.95194e-22)
(1.24257 0.140663 -2.48109e-21)
(1.26688 0.159095 0)
(1.24423 0.174591 3.40565e-21)
(1.21049 0.186599 1.39914e-21)
(1.17342 0.195206 -1.89197e-21)
(1.13328 0.199334 -1.32818e-20)
(1.09041 0.197645 0)
(1.04547 0.188494 3.21471e-20)
(1.00513 0.172652 3.54137e-20)
(0.974329 0.154605 1.1361e-20)
(0.951231 0.137051 4.46985e-20)
(0.933364 0.120828 6.56173e-20)
(0.916176 0.106248 0)
(0.877568 0.0918406 9.69301e-20)
(0.752211 0.0716467 1.40281e-19)
(0.50534 0.0446539 1.55465e-19)
(0.223249 0.0188439 -1.78523e-19)
(0.0262084 0.00225189 -3.26815e-21)
(0.275847 0.040558 0)
(1.12695 0.166324 -1.37897e-20)
(1.27594 0.200459 0)
(1.29232 0.218086 2.19734e-20)
(1.26231 0.230061 0)
(1.22225 0.238737 9.84475e-21)
(1.17895 0.244128 2.34395e-21)
(1.1327 0.245055 -2.02655e-20)
(1.08381 0.240084 -3.13123e-21)
(1.03278 0.227566 1.56711e-20)
(0.986862 0.208684 8.26337e-20)
(0.951515 0.188442 -6.06778e-22)
(0.924632 0.169403 -3.36015e-20)
(0.903444 0.152222 -6.50402e-20)
(0.883213 0.136847 7.86543e-20)
(0.842817 0.121365 -1.41099e-19)
(0.72292 0.0975862 -1.90808e-20)
(0.491433 0.0647845 0)
(0.228915 0.0301363 1.12069e-22)
(0.0300521 0.00422328 0)
(0.268038 0.0541838 -3.40369e-19)
(1.14797 0.226044 1.42589e-19)
(1.29711 0.265292 7.73284e-20)
(1.30904 0.281758 -1.46128e-20)
(1.27397 0.289886 2.22716e-20)
(1.22909 0.294623 -2.4221e-20)
(1.18074 0.296157 3.25202e-21)
(1.12923 0.29335 0)
(1.075 0.284695 -6.24701e-20)
(1.01856 0.268545 0)
(0.967717 0.24662 -4.23354e-20)
(0.928471 0.224331 -5.9243e-20)
(0.898499 0.204077 -3.77598e-20)
(0.874827 0.186188 -4.85642e-20)
(0.852786 0.170278 0)
(0.813181 0.153886 0)
(0.704638 0.127705 -1.28838e-19)
(0.493761 0.0896747 2.55435e-20)
(0.243723 0.0446852 -1.48642e-20)
(0.0362546 0.00706092 -1.71006e-20)
(0.259915 0.0663534 2.53524e-19)
(1.1557 0.285468 0)
(1.309 0.331328 -2.1833e-19)
(1.31805 0.346649 -5.54888e-20)
(1.27941 0.351139 -4.12866e-20)
(1.23097 0.351957 0)
(1.17867 0.349593 -3.74209e-21)
(1.12291 0.342916 1.86841e-20)
(1.06414 0.330449 2.77264e-20)
(1.00303 0.310544 7.95935e-20)
(0.948024 0.285512 0)
(0.905634 0.261135 -1.295e-19)
(0.873318 0.239681 -8.27195e-20)
(0.847837 0.221177 -4.98502e-20)
(0.824712 0.204991 3.25753e-19)
(0.786917 0.187912 3.99272e-20)
(0.689694 0.160257 1.89172e-19)
(0.497528 0.116086 -9.0564e-19)
(0.256544 0.0607938 5.37768e-19)
(0.0415853 0.0102676 -6.38329e-19)
(0.252633 0.0773649 2.68885e-19)
(1.15513 0.342702 -5.06435e-20)
(1.31389 0.396589 3.86591e-20)
(1.32098 0.41099 1.04644e-19)
(1.27973 0.412099 6.34238e-20)
(1.22858 0.409194 3.36748e-21)
(1.17316 0.403101 2.87762e-21)
(1.11391 0.392663 1.47209e-20)
(1.05137 0.376415 -6.10724e-20)
(0.986281 0.352753 0)
(0.927804 0.324515 -5.5743e-20)
(0.882917 0.297941 -3.08385e-21)
(0.848926 0.275135 -9.27214e-20)
(0.82232 0.255947 0)
(0.798765 0.239459 -7.1238e-20)
(0.76303 0.222023 -1.73129e-19)
(0.674593 0.192966 4.75602e-19)
(0.496696 0.142632 -4.69973e-19)
(0.262539 0.0764358 6.64442e-19)
(0.0447658 0.0133117 -6.82875e-19)
(0.246774 0.0876087 -8.18201e-22)
(1.14954 0.397124 6.23336e-20)
(1.31351 0.459771 1.85445e-19)
(1.31919 0.473616 -6.44629e-20)
(1.27601 0.471699 3.63367e-20)
(1.22274 0.465393 0)
(1.16481 0.455815 1.50309e-20)
(1.10267 0.441811 -1.21064e-20)
(1.03693 0.421917 -2.82558e-20)
(0.968427 0.394524 0)
(0.906965 0.362994 -5.47654e-20)
(0.860066 0.334026 -7.65771e-20)
(0.824895 0.309609 1.01609e-19)
(0.797693 0.289466 -6.49226e-20)
(0.774236 0.27238 -3.14521e-19)
(0.740553 0.254307 1.92956e-19)
(0.658754 0.223424 6.03576e-20)
(0.490622 0.166598 0)
(0.262097 0.0897044 -6.44727e-19)
(0.045519 0.0157207 -2.34324e-20)
(0.24227 0.0974014 4.43217e-20)
(1.14104 0.448576 -7.18808e-20)
(1.30926 0.520322 -1.01543e-19)
(1.31389 0.533908 -1.98084e-19)
(1.26923 0.529341 1.77512e-19)
(1.21427 0.519976 -9.23466e-20)
(1.15426 0.507194 -3.14011e-20)
(1.08968 0.489861 -1.79613e-20)
(1.02113 0.466507 2.7214e-20)
(0.94961 0.435464 -1.9567e-19)
(0.885545 0.400545 -6.71808e-20)
(0.836898 0.368941 0)
(0.800812 0.342601 1.11231e-19)
(0.773369 0.321113 1.37406e-19)
(0.750241 0.303011 1.6897e-19)
(0.718331 0.283905 -2.10645e-19)
(0.641353 0.250696 -6.31845e-20)
(0.479897 0.187117 7.42454e-20)
(0.257031 0.100326 0)
(0.0447754 0.0174975 -5.10763e-20)
(0.23892 0.10687 -5.15957e-19)
(1.13105 0.497189 3.29722e-19)
(1.3023 0.577994 1.1187e-19)
(1.30601 0.591506 -1.5159e-19)
(1.26013 0.584652 1.06718e-19)
(1.20381 0.572567 -7.83982e-21)
(1.14209 0.55689 3.00905e-20)
(1.0754 0.536507 -7.62112e-21)
(1.00436 0.509907 -5.09358e-20)
(0.930062 0.475342 3.92844e-22)
(0.863589 0.436987 -2.01164e-19)
(0.81349 0.402528 1.95011e-19)
(0.776684 0.373957 -1.24653e-19)
(0.749109 0.350718 1.54861e-19)
(0.726368 0.331297 0)
(0.695859 0.31072 -1.14392e-19)
(0.622186 0.27452 -2.18628e-21)
(0.465298 0.204387 -3.24932e-19)
(0.248004 0.10827 -4.76335e-20)
(0.0427527 0.0185782 0)
(0.236563 0.116123 0)
(1.12041 0.543205 3.58389e-19)
(1.29337 0.632651 2.6137e-19)
(1.29626 0.646304 1.71371e-19)
(1.24935 0.637439 1.02185e-19)
(1.19191 0.622943 0)
(1.12876 0.604679 3.14409e-20)
(1.06023 0.581541 -2.38507e-21)
(0.986943 0.551963 1.08483e-19)
(0.910062 0.514052 -2.42007e-20)
(0.841291 0.472246 -1.47417e-19)
(0.789755 0.434744 9.78039e-20)
(0.752254 0.403667 -3.94459e-21)
(0.724552 0.378391 1.63123e-19)
(0.702216 0.357279 1.06359e-19)
(0.672784 0.334825 -2.48918e-19)
(0.60119 0.294988 2.99839e-19)
(0.44752 0.218127 8.88661e-20)
(0.235896 0.113741 3.64326e-19)
(0.0397846 0.018951 -9.63299e-19)
(0.235093 0.125296 -1.32909e-19)
(1.1097 0.586791 2.07097e-19)
(1.28328 0.68438 -1.63405e-19)
(1.28516 0.698268 -1.99403e-19)
(1.23741 0.687608 0)
(1.17906 0.670983 8.21867e-20)
(1.11467 0.650433 -8.92744e-20)
(1.04452 0.624838 6.95924e-21)
(0.969182 0.592568 0)
(0.889816 0.551534 -3.7378e-19)
(0.818669 0.506326 4.0195e-19)
(0.765522 0.465635 0)
(0.7273 0.431744 1.47429e-19)
(0.69949 0.404138 -3.93978e-21)
(0.677488 0.381035 -3.36444e-19)
(0.648748 0.356311 1.32151e-19)
(0.578296 0.312293 0)
(0.427137 0.228457 4.81969e-19)
(0.221478 0.116791 0)
(0.036188 0.0187765 -4.58643e-19)
(0.234301 0.134411 1.48346e-19)
(1.09921 0.628138 2.37048e-19)
(1.27237 0.733199 -1.71117e-19)
(1.27318 0.747402 0)
(1.22472 0.735141 1.41632e-19)
(1.16561 0.716647 0)
(1.10017 0.694082 1.19992e-19)
(1.02857 0.666324 1.11041e-20)
(0.951305 0.631665 1.2153e-20)
(0.869459 0.587776 -1.84694e-19)
(0.795817 0.539291 3.91517e-20)
(0.740939 0.495317 0)
(0.701797 0.458411 -3.13503e-19)
(0.673784 0.428178 4.05996e-21)
(0.652009 0.402781 0)
(0.623594 0.375376 4.75873e-21)
(0.553387 0.326538 4.40812e-19)
(0.404164 0.235364 -4.20944e-19)
(0.2051 0.117423 1.23587e-19)
(0.0320969 0.0179972 0)
(0.23386 0.143339 0)
(1.08918 0.667275 2.65591e-19)
(1.26096 0.779271 2.00905e-19)
(1.26067 0.793759 -4.42522e-21)
(1.21162 0.780066 8.92055e-20)
(1.15187 0.759934 1.93578e-19)
(1.08552 0.735609 -3.80701e-20)
(1.01261 0.705968 1.63833e-21)
(0.933526 0.669226 6.89208e-20)
(0.849214 0.622809 -2.88701e-19)
(0.772957 0.57125 -6.40316e-21)
(0.716071 0.523968 -1.28704e-19)
(0.675751 0.483839 5.13302e-19)
(0.64735 0.450712 -4.8184e-21)
(0.625689 0.422698 -2.64555e-19)
(0.597229 0.39213 -4.82351e-19)
(0.526522 0.337791 0)
(0.378856 0.238997 0)
(0.187007 0.115571 1.35243e-19)
(0.0277017 0.0166402 -7.79581e-20)
(0.23398 0.152234 1.84867e-19)
(1.07967 0.704169 -5.82963e-19)
(1.24927 0.822707 -2.15068e-19)
(1.24791 0.83741 0)
(1.19836 0.822438 -3.05238e-21)
(1.13808 0.800872 2.33626e-19)
(1.07095 0.775022 -1.3029e-19)
(0.996872 0.74377 -4.68955e-20)
(0.91607 0.705264 7.40221e-20)
(0.829322 0.656673 -2.2348e-19)
(0.750232 0.60231 -3.40364e-19)
(0.690963 0.55178 3.43112e-19)
(0.649155 0.508253 0)
(0.62014 0.471917 -1.19075e-19)
(0.598451 0.440926 -2.89975e-19)
(0.56959 0.406633 -3.48935e-19)
(0.497653 0.345945 -4.21345e-19)
(0.351326 0.23922 1.25221e-19)
(0.16734 0.11113 -7.31581e-20)
(0.0229826 0.0147089 7.19605e-22)
(0.234096 0.160961 0)
(1.0708 0.739126 0)
(1.23751 0.863565 5.01039e-21)
(1.23509 0.878436 0)
(1.18513 0.86234 -3.35434e-19)
(1.12442 0.839518 -2.07072e-19)
(1.05664 0.81235 0)
(0.981521 0.779745 -1.31672e-20)
(0.899124 0.739782 9.88473e-20)
(0.809929 0.689391 -5.13397e-19)
(0.7278 0.632574 0)
(0.665784 0.578957 -2.19837e-19)
(0.622023 0.531884 -5.90366e-21)
(0.592082 0.491993 -4.85324e-21)
(0.570187 0.457585 3.09192e-19)
(0.540579 0.418888 -8.40081e-22)
(0.466779 0.35095 -9.13523e-19)
(0.321533 0.235854 2.72035e-19)
(0.146285 0.104146 8.02671e-20)
(0.0180925 0.0123091 0)
(0.234243 0.169418 -6.7979e-19)
(1.06231 0.772359 -3.58572e-19)
(1.22581 0.901962 -5.38667e-19)
(1.22238 0.916947 7.51693e-19)
(1.1721 0.899836 -6.29124e-19)
(1.11105 0.87593 0)
(1.04273 0.847638 -1.12172e-19)
(0.966698 0.813913 2.39821e-20)
(0.882805 0.772793 7.49121e-21)
(0.791197 0.720992 4.0328e-20)
(0.70586 0.662135 4.27471e-19)
(0.640685 0.605685 -7.52775e-20)
(0.594438 0.555025 -3.16266e-19)
(0.563087 0.511207 -1.41029e-19)
(0.540749 0.472761 1.71686e-19)
(0.510121 0.428759 -6.26453e-22)
(0.434062 0.352553 2.4959e-19)
(0.289673 0.228726 -5.89034e-19)
(0.124457 0.0948452 6.96502e-19)
(0.0132663 0.00958402 9.95297e-20)
(0.234264 0.177577 2.49637e-19)
(1.05421 0.803905 -1.96322e-19)
(1.21429 0.938016 1.18086e-20)
(1.2099 0.953067 4.24762e-19)
(1.15936 0.935037 1.47261e-19)
(1.09806 0.910175 4.12952e-19)
(1.02932 0.880931 -5.03147e-20)
(0.952494 0.846294 1.16759e-19)
(0.867229 0.804294 -6.66387e-20)
(0.773278 0.751479 -2.82493e-19)
(0.684596 0.691055 0)
(0.615855 0.632133 -3.3811e-19)
(0.566498 0.577984 4.58668e-19)
(0.533056 0.529886 0)
(0.50984 0.486522 -3.67185e-19)
(0.477976 0.435885 2.26244e-19)
(0.399611 0.350177 -2.69308e-19)
(0.256814 0.21774 -3.20971e-19)
(0.102857 0.0837238 -5.65163e-19)
(0.00875457 0.00671951 -4.34211e-19)
(0.234479 0.185501 -2.74148e-19)
(1.04632 0.83375 2.09579e-19)
(1.203 0.971804 5.01783e-19)
(1.19771 0.98688 5.83416e-19)
(1.147 0.968029 -3.07526e-19)
(1.08554 0.942338 2.85165e-19)
(1.01647 0.91228 -1.55923e-19)
(0.938985 0.87693 1.4713e-19)
(0.852478 0.834311 -2.77956e-20)
(0.756287 0.78086 2.72598e-19)
(0.664176 0.719371 9.1016e-19)
(0.591519 0.658435 0)
(0.538387 0.60107 0)
(0.501887 0.548494 -1.62886e-19)
(0.476961 0.499057 0)
(0.443559 0.439644 4.91386e-19)
(0.363495 0.342681 5.86247e-19)
(0.224215 0.202377 0)
(0.0828843 0.0712354 0)
(0.0048732 0.00400328 4.70788e-19)
(0.23439 0.192945 3.02135e-19)
(1.03869 0.861903 2.51341e-19)
(1.19202 1.00345 3.59947e-19)
(1.18588 1.01852 -5.20455e-19)
(1.13508 0.998913 -3.42624e-19)
(1.07353 0.972493 -3.7834e-19)
(1.00425 0.941748 2.31123e-19)
(0.926223 0.905853 6.26115e-22)
(0.838617 0.862846 -9.61428e-21)
(0.740311 0.809118 -1.16165e-20)
(0.644779 0.747092 4.61573e-19)
(0.567906 0.684668 0)
(0.510379 0.624567 4.62928e-19)
(0.469598 0.567631 3.43822e-19)
(0.441413 0.510903 8.72382e-19)
(0.405562 0.439455 2.65079e-19)
(0.325257 0.327852 -3.21419e-19)
(0.194361 0.180513 -1.87789e-19)
(0.0687373 0.0573194 0)
(0.00287871 0.0019255 5.09592e-19)
(0.234496 0.200312 -6.62986e-19)
(1.03129 0.888466 0)
(1.18133 1.03302 4.01685e-19)
(1.17445 1.04805 -4.25713e-19)
(1.12364 1.02778 3.87653e-19)
(1.06207 1.00072 5.52633e-19)
(0.992686 0.969393 -5.36637e-19)
(0.914231 0.933099 4.38503e-21)
(0.82567 0.889909 0)
(0.725416 0.836217 -2.59358e-19)
(0.626549 0.774186 -9.60682e-19)
(0.545264 0.710872 4.63334e-20)
(0.482846 0.648656 6.30234e-19)
(0.436416 0.587973 0)
(0.402485 0.523126 5.89326e-19)
(0.361706 0.435707 0)
(0.281687 0.302685 0)
(0.16859 0.143459 -2.07713e-19)
(0.0767252 0.0311875 0)
(0.0248042 0.00996102 1.37237e-19)
(0.234267 0.207043 -7.24029e-19)
(1.02409 0.913734 0)
(1.17094 1.06071 6.4862e-19)
(1.16338 1.07573 0)
(1.11264 1.05488 -2.09966e-19)
(1.05109 1.02731 0)
(0.981705 0.995518 -4.02941e-20)
(0.902915 0.959 -2.58671e-20)
(0.813525 0.915859 1.37521e-21)
(0.711458 0.862541 -2.57896e-19)
(0.60936 0.801076 2.54329e-20)
(0.523475 0.737601 3.81852e-19)
(0.455635 0.673881 6.09972e-19)
(0.402054 0.610555 8.67729e-20)
(0.358878 0.537748 4.61914e-19)
(0.308308 0.431133 0)
(0.221479 0.268466 6.97737e-19)
(0.11904 0.0807534 -4.07118e-19)
(0.0482009 0.0516948 4.64513e-19)
(-0.0577126 0.408949 -5.4788e-19)
(0.234009 0.213507 5.89476e-19)
(1.01686 0.937615 9.50966e-19)
(1.16076 1.08685 0)
(1.15255 1.10195 9.75316e-21)
(1.10193 1.08078 5.70186e-19)
(1.04036 1.05291 -1.0674e-18)
(0.971025 1.0209 -2.3671e-19)
(0.891905 0.984478 0)
(0.801705 0.94177 -3.46832e-20)
(0.697835 0.889378 -8.47835e-21)
(0.592389 0.829221 0)
(0.501512 0.766632 0)
(0.427543 0.702075 5.36862e-19)
(0.365415 0.637317 -2.71481e-19)
(0.308236 0.558474 -4.63017e-19)
(0.240834 0.43239 0)
(0.125528 0.248162 3.53354e-19)
(0.0194931 0.430789 -4.04531e-19)
(0.0408389 1.82675 -2.13417e-19)
(0.0740384 2.77517 -2.86449e-19)
(0.233552 0.219191 -4.28109e-19)
(1.00973 0.960206 -1.19671e-18)
(1.15081 1.11143 3.72323e-19)
(1.14196 1.12658 3.59639e-19)
(1.09154 1.10527 0)
(1.02993 1.07725 -7.63501e-19)
(0.960825 1.04523 -3.97259e-19)
(0.881365 1.00911 1.75752e-20)
(0.790448 0.967127 -4.27987e-21)
(0.684891 0.916108 2.02944e-19)
(0.576204 0.857899 4.32476e-19)
(0.480325 0.797446 3.9619e-19)
(0.399763 0.732818 5.28485e-19)
(0.328872 0.666534 -6.21168e-19)
(0.256741 0.58802 -6.8741e-19)
(0.162045 0.459772 0)
(0.0652754 0.813987 0)
(0.119391 2.50496 1.82387e-19)
(0.123576 3.17557 0)
(0.125407 3.37777 3.91305e-19)
(0.23602 0.22455 0)
(1.0033 0.981711 0)
(1.14082 1.13432 0)
(1.13139 1.14941 1.00048e-19)
(1.08118 1.12811 5.07044e-19)
(1.01958 1.10018 -5.82491e-19)
(0.951007 1.06842 -2.84462e-19)
(0.871235 1.03278 2.01195e-20)
(0.779703 0.99178 -1.05251e-19)
(0.672633 0.942574 -1.99318e-20)
(0.560918 0.886948 7.87328e-19)
(0.460265 0.829836 -4.64909e-20)
(0.372801 0.766737 5.98765e-20)
(0.294183 0.695153 8.83811e-20)
(0.206022 0.624972 2.62725e-21)
(0.128018 0.926429 3.53703e-21)
(0.165656 2.64529 -9.3061e-19)
(0.181022 3.27638 -3.4789e-19)
(0.165844 3.42453 1.57823e-19)
(0.148916 3.44956 -1.61739e-19)
(0.155088 0.176466 2.35344e-19)
(0.991622 1.00517 0)
(1.1306 1.15568 -7.18127e-19)
(1.12143 1.1709 -9.15328e-19)
(1.07147 1.14997 1.05992e-18)
(1.0101 1.12228 6.19559e-19)
(0.941423 1.09052 3.3042e-19)
(0.861583 1.05558 -3.50035e-19)
(0.76963 1.0158 1.18529e-19)
(0.661395 0.968778 0)
(0.547027 0.91629 3.42992e-19)
(0.442006 0.863283 -2.96721e-19)
(0.347617 0.805906 0)
(0.262716 0.726588 7.57224e-20)
(0.183726 0.833936 1.83805e-19)
(0.180141 2.3594 -2.29639e-19)
(0.250861 3.31318 2.51069e-19)
(0.227331 3.44341 1.22785e-19)
(0.188842 3.46749 1.36276e-19)
(0.163629 3.47876 1.76742e-19)
(0.274776 0.261063 -4.23928e-19)
(0.974327 1.01287 0)
(1.11189 1.17944 7.37786e-19)
(1.10757 1.20268 9.5354e-19)
(1.05592 1.18216 -1.0808e-18)
(0.994294 1.155 -6.55264e-19)
(0.924919 1.12459 -5.13563e-19)
(0.844716 1.09084 -2.59512e-20)
(0.75181 1.05326 -1.80864e-19)
(0.641432 1.01019 4.2533e-20)
(0.522885 0.964124 1.38374e-20)
(0.411194 0.919201 2.31282e-19)
(0.302002 0.875192 4.91839e-20)
(0.235013 0.980859 -7.03557e-20)
(0.256826 2.22016 -1.6297e-19)
(0.325272 3.31609 1.17789e-19)
(0.31246 3.4802 -1.11209e-19)
(0.272401 3.50425 -6.28593e-20)
(0.23229 3.53269 -3.18146e-22)
(0.17567 3.52467 -1.61769e-21)
(0.263178 0.25789 0)
(0.971348 1.03441 1.94011e-19)
(1.10379 1.20181 -1.46997e-19)
(1.09774 1.22502 -1.06968e-19)
(1.04619 1.20448 -7.1308e-19)
(0.984732 1.17754 6.4177e-19)
(0.91518 1.14732 3.47144e-19)
(0.835041 1.11437 -2.74436e-20)
(0.742019 1.07827 2.28075e-19)
(0.631013 1.03803 -2.81179e-20)
(0.510746 0.996765 -4.55788e-19)
(0.396229 0.958065 3.28532e-20)
(0.290291 0.939273 -4.27117e-20)
(0.275806 1.41479 -5.85099e-20)
(0.36212 3.03524 3.57948e-20)
(0.395173 3.47347 2.16265e-21)
(0.348896 3.543 -1.85847e-20)
(0.308796 3.5679 -6.96574e-20)
(0.255484 3.59263 1.28316e-19)
(0.191265 3.58703 3.82903e-20)
(0.246796 0.255184 4.72927e-19)
(0.966665 1.05825 1.31627e-18)
(1.0951 1.22608 -4.21687e-19)
(1.08744 1.24876 -4.0765e-19)
(1.036 1.22807 0)
(0.974765 1.20114 9.44206e-19)
(0.905319 1.17115 5.3198e-19)
(0.825526 1.13895 -2.91056e-20)
(0.732722 1.10439 2.35104e-20)
(0.621622 1.06714 9.11127e-20)
(0.500427 1.03098 -1.46531e-19)
(0.385009 0.99963 -2.26034e-19)
(0.295612 1.05524 -2.80055e-19)
(0.349413 2.04252 3.06945e-19)
(0.455182 3.36322 1.60527e-19)
(0.446045 3.54292 0)
(0.391778 3.59023 0)
(0.352428 3.63575 1.26767e-19)
(0.288337 3.70225 0)
(0.204027 3.67003 2.32137e-19)
(0.235572 0.256035 -6.94366e-19)
(0.959818 1.08279 -1.10046e-18)
(1.08498 1.25143 0)
(1.07594 1.2733 1.12814e-20)
(1.02466 1.2522 -6.99681e-19)
(0.96376 1.22514 1.40805e-18)
(0.894749 1.19538 3.59312e-19)
(0.815527 1.16383 -3.68873e-20)
(0.723208 1.13072 2.64679e-19)
(0.612435 1.09642 -1.24629e-20)
(0.491113 1.06548 0)
(0.377153 1.0437 0)