/*--------------------------------*- C++ -*----------------------------------*\
| =========                 |                                                 |
| \\      /  F ield         | OpenFOAM: The Open Source CFD Toolbox           |
|  \\    /   O peration     | Version:  2306                                  |
|   \\  /    A nd           | Website:  www.openfoam.com                      |
|    \\/     M anipulation  |                                                 |
\*---------------------------------------------------------------------------*/
FoamFile
{
    version     2.0;
    format      ascii;
    arch        "LSB;label=32;scalar=64";
    class       volScalarField;
    location    "36";
    object      p;
}
// * * * * * * * * * * * * * * * * * * * * * * * * * * * * * * * * * * * * * //

dimensions      [0 2 -2 0 0 0 0];

internalField   nonuniform List<scalar> 
8800
(
0.951188
0.903135
0.864754
0.836105
0.815468
0.800693
0.790061
0.782521
0.777634
0.775505
0.776705
0.780856
0.787482
0.796786
0.809518
0.827091
0.851525
0.885131
0.927571
0.984695
0.783728
0.790932
0.799365
0.802774
0.800848
0.795309
0.788576
0.782384
0.777581
0.774662
0.77431
0.776755
0.781215
0.787174
0.794057
0.800655
0.804773
0.804252
0.798181
0.789198
0.760456
0.76663
0.770822
0.774173
0.776659
0.777436
0.776298
0.774112
0.772017
0.771028
0.771916
0.774247
0.777029
0.779208
0.779713
0.778161
0.775297
0.771647
0.767108
0.763321
0.755352
0.758051
0.760764
0.763064
0.764694
0.765996
0.76687
0.767027
0.766698
0.766576
0.767239
0.76832
0.76905
0.768941
0.76811
0.766886
0.765116
0.7626
0.760166
0.758635
0.750202
0.751622
0.753415
0.755458
0.757193
0.758473
0.759462
0.760281
0.760884
0.761383
0.761925
0.762288
0.762244
0.761834
0.76109
0.759849
0.758122
0.756219
0.754885
0.754063
0.745249
0.746162
0.747392
0.748962
0.750597
0.752094
0.753326
0.754342
0.755254
0.756061
0.756621
0.75681
0.756656
0.756145
0.755212
0.753944
0.752551
0.751253
0.750417
0.749874
0.740452
0.741116
0.742069
0.74336
0.744759
0.746206
0.747612
0.748871
0.749981
0.750968
0.751639
0.751862
0.751657
0.751042
0.750135
0.7491
0.748026
0.747058
0.746456
0.746059
0.73579
0.736301
0.737079
0.738199
0.739461
0.740815
0.74223
0.743645
0.744974
0.74616
0.746986
0.747278
0.747088
0.746552
0.745823
0.744996
0.74414
0.743399
0.742946
0.742638
0.731206
0.731611
0.732263
0.733265
0.734458
0.735761
0.737167
0.738659
0.740174
0.741601
0.742621
0.743044
0.742992
0.742635
0.742094
0.741446
0.740766
0.740199
0.739853
0.739606
0.726624
0.726953
0.727518
0.728445
0.729592
0.730877
0.732305
0.733872
0.735541
0.737214
0.738497
0.73916
0.739338
0.739191
0.738838
0.738371
0.737849
0.737423
0.737159
0.736955
0.721974
0.722243
0.722749
0.723632
0.724764
0.726072
0.727561
0.72924
0.731097
0.733052
0.734671
0.735649
0.736103
0.736189
0.736033
0.73574
0.735369
0.735062
0.734863
0.734692
0.717182
0.717404
0.717871
0.718744
0.719902
0.721278
0.722879
0.724735
0.726848
0.729149
0.731186
0.732548
0.733309
0.733643
0.733695
0.73357
0.733342
0.733137
0.732991
0.732846
0.71218
0.712363
0.71281
0.713702
0.714928
0.716413
0.718177
0.720277
0.722738
0.725507
0.728044
0.729838
0.730948
0.731566
0.731848
0.731898
0.731811
0.731698
0.731599
0.731473
0.706896
0.707046
0.707488
0.708423
0.709751
0.711385
0.713353
0.715752
0.718633
0.721971
0.725135
0.727467
0.729017
0.729984
0.730541
0.730791
0.730843
0.730821
0.730764
0.730653
0.701244
0.701364
0.701809
0.702806
0.704268
0.706101
0.708352
0.711131
0.714525
0.718556
0.722488
0.725501
0.727592
0.728963
0.729815
0.730314
0.730535
0.73061
0.730593
0.730494
0.695109
0.695196
0.695661
0.696751
0.698403
0.700502
0.703123
0.706421
0.710509
0.715423
0.720295
0.7241
0.726791
0.728632
0.729847
0.730591
0.731004
0.731183
0.731207
0.731118
0.688365
0.688438
0.688919
0.690109
0.691971
0.694385
0.697454
0.701361
0.706284
0.712289
0.718306
0.723084
0.726564
0.729012
0.730682
0.731768
0.732408
0.732705
0.732772
0.732689
0.680744
0.680801
0.681334
0.682642
0.684774
0.687595
0.691239
0.695935
0.701896
0.709226
0.716671
0.722651
0.727039
0.730202
0.73246
0.733976
0.734905
0.735348
0.735457
0.735375
0.672003
0.672038
0.672637
0.674124
0.676601
0.67995
0.684337
0.690058
0.697377
0.706396
0.715533
0.722906
0.728387
0.7324
0.735336
0.737355
0.738637
0.739249
0.7394
0.739312
0.661659
0.661685
0.66237
0.664101
0.667023
0.67105
0.676385
0.683383
0.692354
0.703416
0.714657
0.723754
0.730563
0.735602
0.739357
0.741997
0.743697
0.744498
0.744686
0.744583
0.649072
0.649098
0.649922
0.652014
0.655583
0.660566
0.667201
0.675921
0.687057
0.700683
0.714407
0.725471
0.733789
0.740001
0.744664
0.748004
0.750156
0.751149
0.751369
0.751246
0.633409
0.633441
0.634489
0.637137
0.641645
0.647958
0.656359
0.667337
0.681208
0.697963
0.714652
0.728037
0.73809
0.745644
0.751345
0.755466
0.758097
0.759282
0.759531
0.759383
0.613511
0.613557
0.614962
0.618489
0.624407
0.632655
0.643537
0.657554
0.674923
0.695481
0.715627
0.731632
0.74364
0.752689
0.759545
0.764512
0.767642
0.769012
0.769283
0.769107
0.587627
0.587711
0.589738
0.594712
0.602883
0.614013
0.628438
0.646517
0.66829
0.693387
0.717473
0.736396
0.750557
0.761256
0.769365
0.775276
0.778919
0.780455
0.780732
0.780524
0.552797
0.553017
0.556315
0.563931
0.57588
0.591476
0.610939
0.634367
0.661551
0.691916
0.720387
0.742467
0.758935
0.771419
0.780929
0.787838
0.791979
0.793634
0.79389
0.793646
0.503308
0.50441
0.511038
0.524059
0.542527
0.564978
0.591382
0.621575
0.655155
0.691417
0.72459
0.749968
0.768833
0.783172
0.79419
0.802136
0.806716
0.808423
0.80862
0.808331
0.430277
0.437814
0.453099
0.476124
0.504259
0.535828
0.570714
0.608721
0.649456
0.692218
0.730568
0.759643
0.781254
0.797805
0.810627
0.819766
0.824932
0.826816
0.827037
0.826798
0.352055
0.368984
0.393662
0.427322
0.4656
0.506482
0.549968
0.596048
0.644427
0.694522
0.739189
0.773109
0.798465
0.818026
0.833262
0.844076
0.849993
0.852052
0.852336
0.852269
0.286512
0.306497
0.339068
0.38162
0.428805
0.478462
0.530291
0.58426
0.640106
0.697266
0.747915
0.786349
0.815152
0.837366
0.854473
0.866389
0.872835
0.875374
0.875693
0.875697
0.232974
0.254873
0.292724
0.341582
0.395764
0.452748
0.511925
0.573129
0.635959
0.699803
0.756041
0.798554
0.830284
0.854543
0.872974
0.885982
0.89354
0.89608
0.896491
0.896556
0.188659
0.211642
0.253062
0.30689
0.36669
0.429695
0.495139
0.562737
0.631926
0.701939
0.763316
0.809454
0.843631
0.869554
0.8892
0.903063
0.91121
0.914138
0.914727
0.91483
0.150959
0.174565
0.218732
0.276391
0.340807
0.408915
0.479798
0.55305
0.627979
0.703645
0.769703
0.819052
0.855334
0.882618
0.903176
0.917694
0.926313
0.929677
0.930431
0.930546
0.117911
0.141929
0.188209
0.248993
0.317256
0.389774
0.465463
0.543804
0.623981
0.704857
0.775223
0.827442
0.865511
0.893878
0.915102
0.930076
0.939018
0.9427
0.943587
0.943702
0.0880212
0.112425
0.160369
0.223781
0.295349
0.371704
0.451692
0.534673
0.619705
0.705468
0.779875
0.834754
0.874415
0.90371
0.925426
0.940744
0.949865
0.95377
0.954702
0.954794
0.0603317
0.085102
0.134465
0.20011
0.274542
0.354284
0.438135
0.525368
0.614943
0.705355
0.78366
0.841107
0.882286
0.912445
0.934611
0.950139
0.959416
0.963399
0.964358
0.964401
0.0340623
0.0592387
0.110064
0.17749
0.254467
0.337206
0.424543
0.515688
0.609526
0.704409
0.786563
0.846589
0.889321
0.920345
0.942975
0.958697
0.967995
0.971997
0.97302
0.973055
0.00885686
0.034479
0.0863128
0.155647
0.234849
0.320265
0.410755
0.505498
0.603341
0.702554
0.78857
0.851285
0.895689
0.927675
0.950805
0.966732
0.976064
0.980004
0.980981
0.980996
-0.0156779
0.0105319
0.0633166
0.134325
0.215502
0.303321
0.396671
0.494717
0.596313
0.699723
0.789668
0.855253
0.901511
0.934603
0.958323
0.974494
0.983853
0.987732
0.988587
0.98854
-0.039657
-0.012972
0.0409318
0.113393
0.196336
0.286309
0.382238
0.483307
0.588406
0.695878
0.789831
0.858519
0.906869
0.941235
0.96565
0.982094
0.991432
0.995179
0.995923
0.995795
-0.0631905
-0.035915
0.0189883
0.0927777
0.177319
0.269214
0.367453
0.471262
0.579609
0.690983
0.788999
0.861045
0.911778
0.947641
0.972846
0.989557
0.998796
1.00233
1.00292
1.00273
-0.0863357
-0.058423
-0.00257606
0.0724643
0.158438
0.25205
0.352348
0.45862
0.569937
0.685004
0.787089
0.862744
0.916225
0.953872
0.979982
0.996913
1.00594
1.00916
1.00959
1.00935
-0.109095
-0.0804834
-0.0237047
0.0524766
0.139738
0.234859
0.33698
0.445433
0.559426
0.677921
0.784023
0.863512
0.920148
0.959975
0.98717
1.00422
1.01282
1.0156
1.01585
1.01558
-0.131295
-0.102028
-0.0443532
0.0328564
0.121262
0.217714
0.321417
0.431784
0.548143
0.669768
0.779739
0.863218
0.923407
0.965958
0.994594
1.01166
1.01948
1.02158
1.02161
1.02133
-0.152895
-0.123009
-0.0644942
0.0136613
0.103077
0.200681
0.305755
0.41776
0.536179
0.660585
0.774194
0.861706
0.925807
0.971728
1.00249
1.0197
1.02619
1.0271
1.02681
1.02656
-0.173955
-0.143377
-0.0840858
-0.00506707
0.0852484
0.183849
0.290089
0.403471
0.523635
0.650447
0.767349
0.858835
0.927085
0.977007
1.01094
1.02911
1.03397
1.03264
1.03144
1.0314
-0.194289
-0.163107
-0.103059
-0.0232582
0.0678399
0.167301
0.274516
0.389031
0.510636
0.639465
0.759213
0.854471
0.926937
0.981271
1.01958
1.04057
1.04497
1.04067
1.03675
1.03581
-0.213985
-0.182191
-0.121424
-0.0409371
0.0508194
0.150992
0.258978
0.374381
0.497108
0.627565
0.749652
0.848351
0.925035
0.983812
1.02733
1.05367
1.06109
1.05661
1.04598
1.03484
-0.23296
-0.200612
-0.139306
-0.0582961
0.0338919
0.134581
0.243053
0.359022
0.482493
0.614087
0.737979
0.839623
0.920723
0.983555
1.03173
1.06474
1.07636
1.06732
1.04827
1.03831
-0.251036
-0.218374
-0.15653
-0.0751144
0.0173385
0.118401
0.226965
0.343292
0.467118
0.599318
0.724352
0.827885
0.913461
0.979438
1.02782
1.06077
1.07611
1.05485
0.987326
0.956445
-0.267744
-0.236667
-0.172719
-0.0908125
0.0018967
0.102967
0.211009
0.327442
0.451235
0.583421
0.708806
0.812878
0.90226
0.971253
1.01159
1.03666
1.03555
0.985166
0.915304
0.87288
-0.318327
-0.253712
-0.187625
-0.106242
-0.013655
0.0870354
0.195209
0.311256
0.43454
0.566006
0.690847
0.794288
0.883653
0.95929
0.971451
0.97782
0.93998
0.875531
0.799927
0.757872
-0.285339
-0.268469
-0.209615
-0.128429
-0.0367091
0.0637023
0.170984
0.286196
0.408234
0.537811
0.660106
0.761065
0.841219
0.91933
0.915439
0.810701
0.711207
0.641283
0.56978
0.604882
-0.317241
-0.286947
-0.226793
-0.146262
-0.0544566
0.0456236
0.153021
0.267525
0.388407
0.516026
0.635268
0.732312
0.804299
0.845689
0.802336
0.660946
0.538716
0.450588
0.353784
0.407582
-0.341504
-0.30878
-0.246852
-0.166084
-0.074226
0.0257252
0.132966
0.246573
0.365968
0.491059
0.606392
0.697786
0.759956
0.768344
0.667279
0.499802
0.352491
0.237065
0.108822
0.14684
-0.365283
-0.331172
-0.267904
-0.186329
-0.0942999
0.00551498
0.112227
0.224808
0.342522
0.464739
0.57536
0.660345
0.707204
0.684376
0.530378
0.338096
0.153938
-0.0108074
-0.197744
-0.203093
-0.388549
-0.353993
-0.2898
-0.20751
-0.115252
-0.0156238
0.0904405
0.201886
0.317684
0.436691
0.542029
0.619793
0.648662
0.590876
0.400126
0.190761
-0.0211655
-0.201342
-0.453214
-0.728059
-0.412133
-0.37753
-0.312824
-0.230024
-0.137525
-0.0380236
0.067468
0.177765
0.291565
0.407164
0.507017
0.576437
0.586774
0.478548
0.28615
0.0742866
-0.131534
-0.297129
-0.373127
-0.491951
-0.436972
-0.402281
-0.3373
-0.254219
-0.161615
-0.0623247
0.0425062
0.151494
0.262994
0.374698
0.468655
0.527877
0.513708
0.37045
0.184271
-0.0107738
-0.179294
-0.270987
-0.293777
-0.310907
-0.463348
-0.42856
-0.363387
-0.28018
-0.187646
-0.0887265
0.0152136
0.122598
0.231394
0.338558
0.426178
0.472257
0.438722
0.269147
0.0917908
-0.0778457
-0.206779
-0.244945
-0.258063
-0.25929
-0.491472
-0.456519
-0.391133
-0.307891
-0.215558
-0.117219
-0.0144105
0.0910462
0.196713
0.298729
0.37927
0.41101
0.359207
0.174598
0.00662489
-0.143482
-0.22224
-0.238657
-0.24003
-0.239985
-0.521384
-0.486159
-0.42055
-0.337334
-0.245348
-0.147773
-0.0463478
0.0568461
0.158968
0.255314
0.327731
0.347527
0.260495
0.087477
-0.0728732
-0.194287
-0.229524
-0.230403
-0.230901
-0.230429
-0.552783
-0.517399
-0.451518
-0.368405
-0.276905
-0.180306
-0.0805369
0.0200581
0.118205
0.208459
0.272198
0.275548
0.165351
0.00551386
-0.136344
-0.214752
-0.224065
-0.225999
-0.226245
-0.226045
-0.585084
-0.549611
-0.48379
-0.400864
-0.310016
-0.214626
-0.116785
-0.0191429
0.0746453
0.158436
0.213456
0.199737
0.0772627
-0.0677966
-0.184904
-0.217865
-0.225689
-0.224545
-0.223468
-0.223081
-0.617831
-0.582278
-0.516865
-0.4343
-0.344303
-0.250372
-0.15476
-0.0604145
0.0286568
0.10586
0.151071
0.124471
-0.00855313
-0.135778
-0.219532
-0.240132
-0.229871
-0.225685
-0.22363
-0.222621
-0.650201
-0.61485
-0.549841
-0.468051
-0.37919
-0.287017
-0.193944
-0.103195
-0.0192104
0.051539
0.0865616
0.0523251
-0.0909311
-0.202111
-0.245387
-0.241363
-0.240868
-0.237823
-0.234094
-0.232104
-0.680588
-0.646221
-0.58185
-0.501195
-0.413858
-0.323791
-0.233595
-0.146672
-0.0680824
-0.00370411
0.025184
-0.0254726
-0.166937
-0.284061
-0.303935
-0.295425
-0.266725
-0.246856
-0.241388
-0.240006
-0.707515
-0.674015
-0.611873
-0.532591
-0.447243
-0.359672
-0.272723
-0.189835
-0.1166
-0.0589927
-0.0313313
-0.102847
-0.235877
-0.358521
-0.369296
-0.334006
-0.301512
-0.281566
-0.273597
-0.270396
-0.728988
-0.697319
-0.637575
-0.56082
-0.478019
-0.393424
-0.310067
-0.231452
-0.16319
-0.112998
-0.085116
-0.163393
-0.282004
-0.389063
-0.436421
-0.412804
-0.418842
-0.417059
-0.40459
-0.394596
-0.743013
-0.713976
-0.657501
-0.584029
-0.5046
-0.423599
-0.344167
-0.269998
-0.206402
-0.163166
-0.135536
-0.206901
-0.287461
-0.371516
-0.433845
-0.511959
-0.576452
-0.587444
-0.572759
-0.567598
-0.74707
-0.721904
-0.669809
-0.600519
-0.525243
-0.448549
-0.373388
-0.3037
-0.244752
-0.206775
-0.177756
-0.259646
-0.289232
-0.294947
-0.36813
-0.517783
-0.605721
-0.613542
-0.616888
-0.619195
-0.739499
-0.718909
-0.67249
-0.60873
-0.538476
-0.466597
-0.395951
-0.330544
-0.276276
-0.242846
-0.225671
-0.343547
-0.383955
-0.159903
-0.154746
-0.456188
-0.655664
-0.672905
-0.681312
-0.682212
-0.718176
-0.702247
-0.663963
-0.607523
-0.543249
-0.476494
-0.410173
-0.348311
-0.297941
-0.269
-0.280743
-0.450356
-0.71934
-0.943832
-1.1887
-1.4261
-1.30389
-1.04322
-0.894848
-0.893645
-0.685019
-0.674346
-0.644738
-0.597081
-0.539382
-0.477657
-0.414947
-0.354992
-0.30465
-0.277277
-0.299308
-0.542152
-1.1564
-2.0479
-2.53388
-2.69909
-2.53826
-2.14829
-1.81049
-1.6485
-0.645199
-0.639018
-0.618713
-0.579646
-0.528401
-0.470622
-0.409897
-0.349408
-0.2945
-0.258559
-0.273454
-0.46258
-0.894566
-1.38409
-1.73429
-1.85615
-1.73575
-1.4991
-1.27776
-1.16137
-0.606056
-0.602606
-0.590935
-0.559949
-0.513232
-0.457668
-0.396382
-0.33165
-0.267299
-0.206522
-0.165236
-0.14771
-0.11828
0.0564937
0.283129
0.566826
0.825632
1.00807
1.12726
1.17873
-0.574023
-0.571977
-0.566007
-0.542439
-0.498997
-0.442414
-0.378061
-0.305131
-0.225881
-0.134485
-0.029118
0.121382
0.460761
0.991123
1.58718
2.11881
2.51041
2.73881
2.83321
2.85836
-0.546119
-0.545454
-0.543924
-0.528523
-0.488127
-0.429283
-0.359541
-0.279664
-0.187302
-0.0820413
0.0437683
0.173549
0.484621
1.00988
1.58117
2.08769
2.45352
2.66697
2.76665
2.79638
-0.524182
-0.523893
-0.523871
-0.515069
-0.479218
-0.418592
-0.343674
-0.259075
-0.163158
-0.0549404
0.0576986
0.177718
0.352523
0.810753
1.29242
1.70199
2.01746
2.20671
2.29217
2.31553
-0.505131
-0.504096
-0.50388
-0.500605
-0.470194
-0.408012
-0.329673
-0.242784
-0.149276
-0.0449857
0.0601753
0.168469
0.291851
0.588645
0.973714
1.28706
1.52057
1.6569
1.71859
1.73514
-0.495551
-0.494575
-0.495629
-0.49371
-0.462148
-0.394866
-0.313024
-0.225964
-0.135181
-0.0360267
0.0588402
0.148788
0.234055
0.428441
0.690887
0.913178
1.07938
1.1742
1.21531
1.22568
-0.487151
-0.489644
-0.494122
-0.489615
-0.449635
-0.37355
-0.28824
-0.203715
-0.119764
-0.0320998
0.0480097
0.11828
0.18342
0.313523
0.493718
0.639434
0.747372
0.810167
0.836677
0.842523
-0.438715
-0.444211
-0.451431
-0.443328
-0.400275
-0.326702
-0.248763
-0.174235
-0.1022
-0.0284655
0.0389462
0.0945284
0.147301
0.224795
0.343503
0.441088
0.510061
0.549388
0.564389
0.565479
-0.31513
-0.320698
-0.326286
-0.320365
-0.289814
-0.241501
-0.188256
-0.13355
-0.0788648
-0.0212146
0.0306703
0.0702954
0.107658
0.155379
0.230451
0.295186
0.341057
0.365908
0.376408
0.376821
-0.155625
-0.158533
-0.162781
-0.16381
-0.155445
-0.139096
-0.115285
-0.0860351
-0.051405
-0.0119021
0.0232733
0.0496428
0.0737937
0.103363
0.150747
0.194183
0.224228
0.240912
0.247394
0.24681
-0.0254294
-0.0267728
-0.0307011
-0.0385812
-0.0478375
-0.0528634
-0.0509407
-0.0414874
-0.0242086
-0.00066551
0.0208096
0.0358498
0.0479809
0.0668983
0.0980023
0.127238
0.147243
0.157555
0.160916
0.159892
0.0496095
0.048891
0.0451207
0.0352069
0.0199868
0.00555786
-0.00366935
-0.00583119
-0.000473208
0.011142
0.022305
0.0275544
0.0285577
0.04175
0.0666637
0.0868485
0.0991002
0.104587
0.105923
0.104792
0.0810126
0.080413
0.0772285
0.0685409
0.0544837
0.0395222
0.0273045
0.0199213
0.0186362
0.0227508
0.0272003
0.026941
0.0236918
0.0328558
0.0508176
0.0646314
0.0723525
0.0751848
0.0756367
0.0746543
0.0886669
0.0881651
0.0858114
0.0795217
0.0689427
0.0567032
0.0454619
0.0372573
0.0332309
0.0336585
0.0355598
0.0345034
0.0322275
0.0404767
0.0528372
0.0607367
0.0644056
0.0654952
0.0654759
0.0645863
0.0860671
0.0856632
0.0840502
0.0799394
0.072811
0.0640143
0.0552069
0.0480661
0.0438863
0.0437894
0.0462958
0.0484925
0.0505365
0.0581141
0.0653402
0.0689738
0.0706577
0.0709458
0.0707392
0.0698127
0.0802151
0.0798908
0.0788039
0.076242
0.0717294
0.0658383
0.059562
0.0542052
0.0510069
0.0514829
0.0568367
0.0648009
0.0730143
0.0798779
0.0822699
0.0832301
0.083847
0.0844389
0.0844758
0.0835363
0.0742096
0.073951
0.073201
0.0715898
0.0688193
0.064995
0.0607082
0.0569196
0.0548016
0.0565227
0.0647827
0.0788187
0.0938072
0.0984044
0.0967425
0.096175
0.09818
0.100014
0.100424
0.0992005
0.0690504
0.0688506
0.0683037
0.0671761
0.0653756
0.0628073
0.0597845
0.0569952
0.0555278
0.0575396
0.0668489
0.0842744
0.10231
0.104725
0.101111
0.102321
0.104612
0.108774
0.109512
0.107962
0.0647092
0.0645462
0.0641189
0.0631862
0.0617273
0.0598941
0.0575811
0.0551768
0.0534253
0.0540352
0.0607851
0.076047
0.0924114
0.0918627
0.0872628
0.0899021
0.0961632
0.101043
0.10166
0.100083
0.0609311
0.0608051
0.0604963
0.059699
0.0584435
0.0566808
0.0546046
0.0520861
0.0491143
0.0467128
0.0466887
0.0521833
0.0588355
0.0547382
0.0537095
0.0599166
0.0681609
0.0730211
0.0731428
0.0716192
0.0573899
0.057292
0.0570877
0.0564822
0.0553108
0.0537411
0.0512728
0.0485009
0.0443746
0.03766
0.0282159
0.0168385
0.00602793
4.84383e-05
0.00566647
0.0157478
0.0240637
0.0277667
0.0272301
0.025929
0.0537625
0.0537095
0.0536456
0.0533274
0.0523163
0.0509781
0.0489132
0.0455299
0.0399942
0.0300782
0.0104475
-0.0183715
-0.0457647
-0.052654
-0.0431562
-0.0339486
-0.0297504
-0.0284772
-0.0288332
-0.0293521
0.0494207
0.049398
0.0493586
0.0494294
0.0492992
0.0484625
0.0469619
0.0445054
0.039839
0.0278159
0.0045439
-0.0378482
-0.0766769
-0.0830283
-0.0751949
-0.0736905
-0.0773903
-0.0805287
-0.0809851
-0.0810893
0.044372
0.0443562
0.0445693
0.044925
0.0453725
0.0458543
0.0459229
0.0445217
0.0412401
0.030941
0.0109683
-0.0270391
-0.065497
-0.0742127
-0.0816563
-0.0965401
-0.110679
-0.117762
-0.118002
-0.117443
0.0382116
0.0382911
0.0388035
0.0398252
0.0410616
0.0425037
0.0440939
0.0453315
0.0449504
0.0406332
0.0290768
0.00502408
-0.0207751
-0.0399956
-0.0627276
-0.0924389
-0.117146
-0.129152
-0.130021
-0.128778
0.0293995
0.0294933
0.0302029
0.0316932
0.0339447
0.0368166
0.039873
0.0433952
0.0467574
0.047974
0.0468368
0.0377325
0.0258422
-0.000353783
-0.0350815
-0.0665966
-0.0909871
-0.103583
-0.104936
-0.103251
0.0175102
0.0174896
0.0180417
0.0195746
0.022323
0.0257852
0.0302383
0.0351732
0.0415033
0.0447369
0.048111
0.0505565
0.0465504
0.0203791
-0.00842025
-0.029386
-0.0410691
-0.0486833
-0.0514231
-0.0504567
0.00419435
0.0039796
0.00354639
0.0029928
0.00285043
0.0029172
0.00332647
0.00468644
0.00729681
0.0127285
0.019189
0.0237728
0.0244754
0.0130195
0.00365719
-0.00311045
-0.00581634
-0.00964775
-0.00581663
-0.00458866
-0.00253579
0.191229
0.399553
0.573265
0.712727
0.823631
0.916349
0.993897
1.02532
1.00922
0.335029
0.462606
0.595814
0.711035
0.80843
0.889444
0.954659
1.0003
1.02407
1.03678
0.562341
0.648618
0.739012
0.819649
0.888982
0.946917
0.992761
1.02648
1.05111
1.06887
0.726554
0.787485
0.851299
0.909984
0.960854
1.00393
1.03928
1.06777
1.09076
1.10896
0.854916
0.89873
0.946817
0.991144
1.03063
1.06506
1.09453
1.1193
1.1394
1.1573
0.960585
0.994325
1.03359
1.06969
1.10275
1.13245
1.15844
1.18044
1.19768
1.21526
1.05426
1.08359
1.11813
1.15074
1.18101
1.20851
1.2326
1.25264
1.26739
1.28483
1.14356
1.17325
1.20752
1.23993
1.26977
1.29657
1.31966
1.33822
1.35097
1.36843
1.23932
1.27303
1.30964
1.34353
1.37371
1.39998
1.42199
1.43915
1.45065
1.46846
1.35449
1.39314
1.43145
1.46576
1.4951
1.51984
1.54018
1.55593
1.5673
1.58565
1.49936
1.53892
1.57452
1.60495
1.63057
1.65266
1.6717
1.68725
1.69992
1.71806
1.67417
1.70628
1.73211
1.75446
1.77453
1.79329
1.81094
1.8275
1.84326
1.86146
1.86181
1.8794
1.89496
1.91157
1.92774
1.94229
1.95533
1.96931
1.9864
2.00609
2.04349
2.05443
2.06659
2.07739
2.08664
2.09621
2.10711
2.1187
2.12866
2.14383
2.25449
2.25651
2.24136
2.22613
2.21975
2.22543
2.24404
2.27446
2.3066
2.33735
2.56038
2.42334
2.34706
2.30499
2.28756
2.29159
2.31895
2.37509
2.47855
2.69384
0.84748
0.844103
0.838172
0.828359
0.815409
0.802975
0.792648
0.784678
0.778986
0.775655
0.775222
0.777894
0.78296
0.790171
0.799581
0.81125
0.824366
0.836347
0.843799
0.848515
0.765503
0.771387
0.77829
0.783523
0.78636
0.786019
0.783097
0.77915
0.775546
0.7732
0.772968
0.775096
0.778724
0.783035
0.786949
0.788927
0.787797
0.783692
0.777788
0.77074
0.757872
0.760218
0.763563
0.766462
0.768669
0.770455
0.771392
0.771105
0.77003
0.76907
0.769153
0.770496
0.772244
0.773469
0.773472
0.772269
0.770437
0.768076
0.764908
0.761939
0.752759
0.753845
0.755706
0.758079
0.760027
0.761401
0.762472
0.763293
0.763709
0.763881
0.764275
0.764963
0.765426
0.765327
0.764752
0.763839
0.762403
0.760321
0.758191
0.756772
0.747704
0.748359
0.749463
0.751175
0.752968
0.754566
0.755804
0.756787
0.757646
0.758381
0.759
0.759403
0.759448
0.759164
0.758537
0.757453
0.755971
0.754363
0.753017
0.752228
0.742833
0.743288
0.744068
0.745356
0.746837
0.748351
0.749786
0.751024
0.752087
0.753046
0.753824
0.754231
0.754239
0.753861
0.753077
0.751999
0.750798
0.749613
0.748673
0.748147
0.738109
0.738449
0.739056
0.740117
0.741394
0.742753
0.74417
0.745568
0.746857
0.748012
0.748952
0.749459
0.749473
0.749053
0.748322
0.747436
0.746501
0.745573
0.744866
0.744479
0.733496
0.73376
0.734249
0.735154
0.736313
0.73759
0.738954
0.740394
0.74185
0.743228
0.744372
0.745013
0.745099
0.744784
0.744227
0.743533
0.742777
0.742053
0.741517
0.741221
0.728923
0.729131
0.729539
0.730336
0.731418
0.732647
0.733994
0.735467
0.737037
0.738629
0.740018
0.74086
0.74113
0.741012
0.740647
0.740136
0.739551
0.738995
0.738589
0.738356
0.724316
0.724482
0.724831
0.725559
0.7266
0.727809
0.729176
0.730712
0.732407
0.734213
0.73589
0.737026
0.737563
0.737685
0.737527
0.737197
0.73678
0.736364
0.736063
0.735879
0.719604
0.719736
0.720043
0.720729
0.721756
0.722988
0.724418
0.726065
0.727935
0.729995
0.732023
0.73354
0.734404
0.734792
0.734855
0.734709
0.734452
0.73417
0.733956
0.733809
0.714716
0.71482
0.715097
0.715768
0.716819
0.718122
0.719661
0.721484
0.723616
0.726032
0.728505
0.730461
0.731683
0.73236
0.732659
0.732703
0.732601
0.732438
0.732299
0.732183
0.709583
0.709661
0.709919
0.710596
0.711706
0.713117
0.714808
0.716853
0.719304
0.722163
0.72519
0.727684
0.729344
0.730375
0.730957
0.731222
0.731277
0.731231
0.731159
0.731069
0.704123
0.704176
0.704423
0.705125
0.706322
0.707878
0.709772
0.7121
0.714947
0.718359
0.722067
0.725221
0.727421
0.72888
0.729793
0.730322
0.730558
0.730639
0.730631
0.730565
0.698244
0.698272
0.698515
0.699261
0.700575
0.702321
0.704489
0.707202
0.71056
0.71464
0.719181
0.723169
0.726036
0.727994
0.729271
0.730068
0.730541
0.730762
0.730822
0.730778
0.691831
0.691838
0.692074
0.692872
0.694343
0.696338
0.698854
0.702049
0.706086
0.711067
0.716655
0.721596
0.725214
0.727777
0.729519
0.730647
0.731375
0.731746
0.731877
0.731854
0.684674
0.68466
0.68492
0.68579
0.687425
0.689697
0.692636
0.696412
0.701225
0.707237
0.714096
0.720283
0.724891
0.728212
0.730538
0.732139
0.733196
0.73376
0.733971
0.733965
0.676531
0.67649
0.676772
0.677749
0.679615
0.68227
0.685768
0.690329
0.696209
0.703592
0.712022
0.719639
0.725358
0.729541
0.732556
0.734714
0.736159
0.73696
0.737261
0.737269
0.667045
0.666983
0.667309
0.668433
0.670584
0.673718
0.677916
0.683449
0.690626
0.699671
0.71003
0.719423
0.726529
0.731786
0.735638
0.738456
0.740381
0.741466
0.741864
0.741878
0.655642
0.655559
0.655958
0.657292
0.659845
0.663639
0.668785
0.675611
0.68448
0.695627
0.708339
0.719838
0.728549
0.735048
0.739888
0.743462
0.745949
0.747343
0.747838
0.747852
0.64159
0.641488
0.642018
0.643686
0.646827
0.651561
0.658016
0.666581
0.677657
0.691453
0.707014
0.720985
0.731551
0.739476
0.745423
0.74985
0.752948
0.754662
0.75525
0.755259
0.623908
0.623788
0.624528
0.626713
0.630732
0.636825
0.645108
0.656026
0.669967
0.687056
0.706034
0.722888
0.735593
0.745118
0.752333
0.757719
0.761472
0.763514
0.764191
0.764194
0.601177
0.601051
0.602143
0.605142
0.610552
0.618682
0.629624
0.643802
0.661495
0.682666
0.705662
0.725784
0.740863
0.752178
0.760774
0.767201
0.771664
0.774035
0.774788
0.774777
0.571132
0.57104
0.572768
0.577172
0.584908
0.596261
0.611139
0.629796
0.652307
0.678403
0.706023
0.729782
0.747457
0.760728
0.770823
0.778426
0.783625
0.7863
0.787104
0.787069
0.529702
0.529789
0.532922
0.540244
0.552222
0.568845
0.589537
0.614233
0.642761
0.674639
0.707415
0.735083
0.7555
0.77083
0.782554
0.791417
0.797354
0.800252
0.801062
0.800992
0.469183
0.470425
0.478063
0.491889
0.511612
0.536557
0.565377
0.597762
0.633415
0.671772
0.710069
0.741796
0.765015
0.78245
0.795828
0.805955
0.812547
0.815578
0.816293
0.816178
0.39653
0.398799
0.413418
0.437301
0.467849
0.502538
0.540256
0.580892
0.624268
0.669893
0.714765
0.751731
0.778853
0.799355
0.81513
0.826879
0.83446
0.837876
0.838767
0.838771
0.321919
0.328641
0.350225
0.38419
0.424962
0.469225
0.51584
0.56479
0.615978
0.668993
0.720633
0.76306
0.794283
0.818046
0.836482
0.850178
0.858788
0.862033
0.862826
0.862967
0.261546
0.270131
0.296322
0.337266
0.385919
0.438262
0.492879
0.549585
0.608214
0.668292
0.726353
0.773864
0.808786
0.835315
0.855692
0.870692
0.879746
0.883733
0.885137
0.885365
0.212302
0.221463
0.251122
0.297074
0.351749
0.410578
0.471908
0.535436
0.600822
0.66748
0.731527
0.78368
0.821814
0.850548
0.87246
0.888553
0.898718
0.903418
0.905086
0.905357
0.17116
0.180516
0.212476
0.262256
0.321786
0.385959
0.452963
0.522424
0.593847
0.666498
0.736051
0.792385
0.833302
0.863896
0.88708
0.90408
0.915058
0.920293
0.922192
0.922499
0.135609
0.145031
0.178702
0.231554
0.294997
0.363671
0.435611
0.510314
0.587169
0.6653
0.739904
0.800023
0.843362
0.875493
0.899637
0.91737
0.928915
0.934648
0.936678
0.936995
0.104024
0.113467
0.148413
0.20383
0.270499
0.343027
0.419306
0.498719
0.580546
0.66374
0.743049
0.806646
0.852139
0.885563
0.910463
0.928681
0.940575
0.946642
0.94879
0.949126
0.0751274
0.0846204
0.12064
0.178194
0.247601
0.323473
0.403602
0.487287
0.573694
0.661646
0.74542
0.812326
0.859834
0.894433
0.919996
0.938551
0.950697
0.956962
0.959133
0.95948
0.0480719
0.057623
0.0946604
0.153983
0.225804
0.304613
0.38817
0.475739
0.566402
0.65886
0.746956
0.817108
0.866608
0.90235
0.928554
0.947438
0.959701
0.966066
0.968225
0.968507
0.0222921
0.0319523
0.0698996
0.130733
0.204758
0.286156
0.37279
0.4639
0.558513
0.655259
0.747594
0.821027
0.872593
0.909556
0.936423
0.955636
0.968041
0.97438
0.976534
0.976743
-0.0026698
0.00719687
0.0459129
0.108234
0.184202
0.267904
0.357314
0.451649
0.549932
0.650758
0.747284
0.824116
0.877904
0.916228
0.943856
0.963437
0.975975
0.982288
0.984357
0.984568
-0.0270354
-0.0169336
0.022545
0.086325
0.16398
0.249741
0.341652
0.438926
0.5406
0.645308
0.745993
0.826381
0.88262
0.922486
0.951004
0.97103
0.983704
0.989961
0.991905
0.992069
-0.0508786
-0.0405404
-0.000218761
0.0648329
0.144016
0.231626
0.325774
0.425704
0.530497
0.63887
0.743674
0.827802
0.886757
0.928401
0.957956
0.978475
0.991254
0.997376
0.999159
0.999247
-0.0743057
-0.0636437
-0.0225753
0.0437012
0.124282
0.213545
0.309686
0.412002
0.519637
0.631441
0.740269
0.828298
0.89028
0.934006
0.964774
0.985818
0.998636
1.00455
1.00611
1.0061
-0.0972814
-0.0863179
-0.0444643
0.0229294
0.104786
0.195522
0.293436
0.397868
0.508057
0.623016
0.735724
0.827766
0.893118
0.939314
0.971542
0.993133
1.00584
1.01138
1.01266
1.01258
-0.11983
-0.108525
-0.0658578
0.00256371
0.085566
0.177602
0.277075
0.383374
0.495821
0.613629
0.730005
0.826114
0.895148
0.944279
0.978358
1.00056
1.01292
1.01783
1.01877
1.01861
-0.141742
-0.130178
-0.0867233
-0.0173498
0.0666829
0.159868
0.260679
0.3686
0.483014
0.60335
0.723104
0.823239
0.8962
0.948782
0.985321
1.0084
1.02011
1.02394
1.02434
1.0241
-0.163143
-0.151218
-0.107022
-0.0367764
0.0481772
0.142367
0.244348
0.353635
0.469734
0.592273
0.715042
0.819039
0.896077
0.952587
0.992403
1.0171
1.02808
1.03005
1.02938
1.02901
-0.183865
-0.171606
-0.126715
-0.0556559
0.0301342
0.125186
0.228168
0.338606
0.456098
0.580478
0.70587
0.813434
0.89457
0.95533
0.999288
1.02699
1.03813
1.03769
1.03453
1.03322
-0.203948
-0.19138
-0.145738
-0.0739278
0.0125971
0.108399
0.212225
0.323598
0.442225
0.568111
0.695681
0.806362
0.891494
0.956553
1.0052
1.0376
1.05143
1.05033
1.04322
1.03317
-0.223311
-0.2105
-0.164175
-0.0917478
-0.00464927
0.0917163
0.196172
0.308191
0.427644
0.554639
0.68391
0.797186
0.88627
0.955671
1.00898
1.04744
1.06738
1.06899
1.05908
1.05243
-0.241895
-0.228947
-0.182023
-0.10906
-0.0215833
0.0751502
0.18004
0.292375
0.412325
0.539959
0.670402
0.785551
0.878247
0.951936
1.00826
1.05096
1.07416
1.08074
1.04415
0.995683
-0.259403
-0.246047
-0.19924
-0.125767
-0.0382544
0.0586056
0.163807
0.276274
0.396337
0.524139
0.655112
0.771302
0.866445
0.944954
1.00107
1.0373
1.06129