/*--------------------------------*- C++ -*----------------------------------*\
| =========                 |                                                 |
| \\      /  F ield         | OpenFOAM: The Open Source CFD Toolbox           |
|  \\    /   O peration     | Version:  2306                                  |
|   \\  /    A nd           | Website:  www.openfoam.com                      |
|    \\/     M anipulation  |                                                 |
\*---------------------------------------------------------------------------*/
FoamFile
{
    version     2.0;
    format      ascii;
    arch        "LSB;label=32;scalar=64";
    class       surfaceScalarField;
    location    "36";
    object      phi;
}
// * * * * * * * * * * * * * * * * * * * * * * * * * * * * * * * * * * * * * //

dimensions      [0 3 -1 0 0 0 0];

oriented        oriented;

internalField   nonuniform List<scalar> 
17370
(
-0.0910992
0.0935441
0.286566
-0.0749525
0.0569515
0.364776
-0.0409337
0.0299488
0.427153
-0.0211916
0.0155887
0.504855
-0.0113351
0.00863233
0.602105
-0.00649773
0.00504666
0.720509
-0.00383507
0.00297421
0.863767
-0.00221925
0.00165375
1.03602
-0.00113185
0.000716914
1.24292
-0.000310064
-8.47385e-05
1.49159
0.000468787
-0.00087079
1.49159
0.00127239
-0.00177901
1.2432
0.00233226
-0.00307649
1.03638
0.00393044
-0.0051361
0.864112
0.00658135
-0.00870817
0.721184
0.0114031
-0.0156478
0.603459
0.0212427
-0.029991
0.508188
0.0409676
-0.0569771
0.432178
0.0749722
-0.0935557
0.365359
0.0911108
0.1979
-0.127344
0.0881388
0.0392049
-0.364734
0.353783
-0.0726357
0.0835864
-0.446564
0.454364
-0.0817219
0.0739217
-0.520968
0.529522
-0.0658125
0.0572581
-0.612846
0.621014
-0.0495054
0.0413367
-0.726997
0.733786
-0.034407
0.0276182
-0.867513
0.872437
-0.0222811
0.0173577
-1.03855
1.04189
-0.0136542
0.0103182
-1.24471
1.24711
-0.00777385
0.00537044
-1.49283
1.49484
-0.00340906
0.00140014
-1.49269
1.4945
0.000411998
-0.00222295
-1.2441
1.24602
0.00419487
-0.00610916
-1.0376
1.04009
0.00845668
-0.0109504
-0.866161
0.869822
0.0142345
-0.0178962
-0.724483
0.729783
0.0227778
-0.0280778
-0.608892
0.615783
0.0348246
-0.0417153
-0.514992
0.522707
0.0498417
-0.0575562
-0.439772
0.447841
0.066066
-0.0741345
-0.375162
0.377002
0.0818868
-0.0837261
-0.256925
0.223435
0.0727323
-0.0392421
-0.0686424
0.0589101
0.00973231
-0.0520923
0.0587958
-0.374533
0.367829
-0.0579137
0.0540903
-0.453822
0.457646
-0.0487336
0.0443952
-0.527734
0.532072
-0.0401712
0.0363888
-0.621091
0.624874
-0.0321676
0.0281049
-0.734867
0.738929
-0.0236497
0.0196762
-0.874039
0.878013
-0.0155597
0.0120575
-1.04339
1.04689
-0.00850269
0.00544843
-1.24865
1.2517
-0.00222508
-0.000767822
-1.49693
1.49993
0.00374069
-0.00690801
-1.49743
1.50059
0.00988398
-0.0133393
-1.25011
1.25356
0.0167478
-0.0207646
-1.04574
1.04975
0.0246556
-0.0290291
-0.877331
0.881704
0.0330202
-0.0371627
-0.739328
0.743471
0.0408742
-0.0450243
-0.626361
0.630511
0.0493019
-0.0546002
-0.534952
0.54025
0.0583626
-0.0591679
-0.457936
0.458741
0.0523725
-0.0320164
-0.336422
0.316066
0.0097797
-0.0685201
0.0587404
-0.0531477
0.0490955
0.00405217
-0.033188
0.0436904
-0.358348
0.347846
-0.0474147
0.0468325
-0.459494
0.460076
-0.0438586
0.0405899
-0.536004
0.539273
-0.0368795
0.0335455
-0.628422
0.631756
-0.0299868
0.0268494
-0.742237
0.745374
-0.0235217
0.0203776
-0.881552
0.884696
-0.0168045
0.0134434
-1.05036
1.05372
-0.00972597
0.0063025
-1.25499
1.25841
-0.0024923
-0.0011447
-1.5033
1.50694
0.00475403
-0.00848401
-1.50413
1.50786
0.0117988
-0.0153738
-1.25718
1.26075
0.0185966
-0.0220197
-1.05352
1.05694
0.0250394
-0.0282462
-0.885316
0.888523
0.0312799
-0.034727
-0.746972
0.750419
0.03796
-0.041563
-0.634538
0.638141
0.0447404
-0.0476146
-0.544489
0.547363
0.0480951
-0.0442295
-0.456925
0.453059
0.0335605
-0.0162313
-0.296721
0.279392
0.00410865
-0.0529288
0.0488202
-0.0459696
0.0434418
0.00252785
-0.022948
0.0333271
-0.337192
0.326813
-0.0391199
0.040113
-0.459776
0.458783
-0.0389023
0.0366064
-0.541933
0.544228
-0.0339682
0.0314108
-0.634734
0.637292
-0.0284173
0.0255811
-0.748431
0.751267
-0.0223803
0.0194157
-0.887697
0.890662
-0.0161264
0.0130393
-1.05688
1.05997
-0.00951882
0.0061365
-1.26181
1.2652
-0.00223361
-0.00156776
-1.51069
1.51449
0.00533446
-0.00913245
-1.51167
1.51547
0.0123735
-0.0157086
-1.26423
1.26756
0.0186134
-0.0217018
-1.06012
1.06321
0.0244954
-0.0275287
-0.891669
0.894702
0.030223
-0.0330656
-0.753618
0.756461
0.0354861
-0.0379798
-0.641163
0.643657
0.0401542
-0.0412112
-0.549198
0.550255
0.0400617
-0.0340443
-0.44789
0.441873
0.0234229
-0.010249
-0.264248
0.251075
0.0025972
-0.0456338
0.0430366
-0.0413393
0.0395506
0.00178872
-0.0168797
0.0261689
-0.316929
0.30764
-0.0327926
0.0349382
-0.457183
0.455037
-0.034523
0.0328459
-0.546212
0.547889
-0.0306481
0.0285499
-0.639569
0.641667
-0.0261439
0.0237941
-0.753872
0.756222
-0.02101
0.0182951
-0.893512
0.896227
-0.0151468
0.0121506
-1.06298
1.06597
-0.00872969
0.0054557
-1.26849
1.27176
-0.00165707
-0.00206048
-1.51824
1.52196
0.00573505
-0.00940487
-1.51921
1.52288
0.0125025
-0.0156877
-1.27083
1.27402
0.0184483
-0.0213333
-1.06623
1.06912
0.0238203
-0.0263795
-0.897508
0.900067
0.028544
-0.0307595
-0.758924
0.76114
0.0326873
-0.034702
-0.645873
0.647888
0.0362059
-0.0364127
-0.550839
0.551046
0.0340293
-0.0270806
-0.435302
0.428353
0.0174686
-0.00737715
-0.239589
0.229497
0.00187317
-0.0408605
0.0389873
-0.0380075
0.0366617
0.00134577
-0.0129009
0.0208948
-0.298998
0.291004
-0.0276803
0.0306248
-0.452452
0.449507
-0.0308503
0.0297444
-0.549297
0.550403
-0.0277627
0.0258606
-0.643683
0.645585
-0.0236897
0.021598
-0.758437
0.760529
-0.0191515
0.0167339
-0.89876
0.901178
-0.0138612
0.0110479
-1.06884
1.07166
-0.00776704
0.00460164
-1.27496
1.27812
-0.000927996
-0.00264875
-1.52559
1.52917
0.00617131
-0.00968349
-1.52648
1.52999
0.0126294
-0.0156149
-1.27714
1.28013
0.0181303
-0.0206675
-1.07185
1.07439
0.0227951
-0.0249528
-0.902383
0.904541
0.0268057
-0.0287353
-0.763174
0.765104
0.0304259
-0.032191
-0.649768
0.651533
0.033049
-0.0325344
-0.550902
0.550388
0.0292537
-0.0220274
-0.421209
0.413983
0.0136219
-0.00567632
-0.220581
0.212635
0.00144819
-0.0373548
0.0359066
-0.0354846
0.0344474
0.0010372
-0.0100811
0.0168423
-0.283647
0.276886
-0.0233676
0.0267721
-0.446303
0.442898
-0.0275818
0.0269122
-0.551265
0.551934
-0.0251779
0.0234261
-0.647434
0.649186
-0.0214095
0.0194575
-0.762567
0.764519
-0.0171659
0.0149129
-0.903468
0.905721
-0.0122586
0.00965284
-1.07431
1.07691
-0.00658363
0.0035809
-1.28118
1.28418
-6.25463e-05
-0.00336388
-1.53265
1.53608
0.00672484
-0.0100377
-1.53341
1.53672
0.0127655
-0.0154672
-1.283
1.2857
0.0177021
-0.019935
-1.07678
1.07902
0.0218172
-0.0237379
-0.906565
0.908485
0.0253892
-0.0271072
-0.766892
0.76861
0.0285996
-0.0300429
-0.653161
0.654604
0.0304053
-0.0291961
-0.549542
0.548333
0.0253341
-0.0182343
-0.406798
0.399698
0.01096
-0.00453386
-0.205522
0.199096
0.00116124
-0.0346207
0.0334595
-0.0335358
0.0327279
0.000807995
-0.00798096
0.0136586
-0.270692
0.265015
-0.019696
0.0233019
-0.439375
0.435769
-0.0245975
0.0241823
-0.552497
0.552912
-0.0227261
0.0210929
-0.650916
0.652549
-0.0191854
0.0173368
-0.766435
0.768283
-0.0151626
0.0130222
-0.907866
0.910006
-0.0104996
0.00803199
-1.07938
1.08184
-0.00514067
0.0023146
-1.28705
1.28988
0.000995726
-0.0042256
-1.5394
1.54263
0.00737267
-0.010434
-1.53992
1.54298
0.0129201
-0.0153552
-1.2883
1.29073
0.017362
-0.019363
-1.08116
1.08316
0.0210412
-0.0227514
-0.910291
0.912001
0.0242267
-0.0257657
-0.770197
0.771736
0.0270786
-0.0281662
-0.655858
0.656946
0.0281775
-0.0263375
-0.546822
0.544982
0.0221272
-0.0153603
-0.392764
0.385997
0.00905035
-0.00372692
-0.193274
0.187951
0.000958419
-0.0324152
0.0314567
-0.0320182
0.0313887
0.000629579
-0.00634883
0.0110922
-0.259829
0.255086
-0.0165275
0.0201342
-0.432156
0.428549
-0.0217669
0.0215975
-0.553229
0.553399
-0.0204024
0.0188568
-0.654177
0.655723
-0.0170346
0.015258
-0.770109
0.771886
-0.0131634
0.0111004
-0.912042
0.914105
-0.00867123
0.00630202
-1.08419
1.08656
-0.00353713
0.00085403
-1.29258
1.29526
0.00226239
-0.00527618
-1.54572
1.54873
0.00818651
-0.0109961
-1.54592
1.54872
0.0132636
-0.0154736
-1.2931
1.29531
0.0172846
-0.0190778
-1.08509
1.08688
0.0205705
-0.0220802
-0.913607
0.915116
0.0233775
-0.0247321
-0.773144
0.774499
0.0258938
-0.0265929
-0.657824
0.658523
0.0262518
-0.0239041
-0.542916
0.540568
0.0195182
-0.01317
-0.379454
0.373106
0.00765066
-0.0031432
-0.183079
0.178571
0.000812341
-0.0305859
0.0297735
-0.0308401
0.0303561
0.000483953
-0.00502088
0.00894839
-0.250775
0.246847
-0.0137259
0.0171731
-0.425028
0.421581
-0.0189903
0.0190221
-0.553501
0.553469
-0.0180405
0.0165539
-0.657296
0.658783
-0.0147838
0.0130529
-0.773646
0.775377
-0.0110147
0.00901592
-0.916054
0.918053
-0.00667234
0.00439574
-1.08879
1.09107
-0.00174776
-0.000805153
-1.29782
1.30037
0.00375011
-0.00656532
-1.55161
1.55443
0.00925509
-0.0118231
-1.55142
1.55398
0.0138667
-0.0158324
-1.29744
1.2994
0.0174243
-0.0189888
-1.08859
1.09015
0.0202869
-0.021599
-0.916532
0.917844
0.0227274
-0.0239139
-0.775742
0.776928
0.0249053
-0.0252516
-0.659018
0.659364
0.0245584
-0.0218185
-0.538054
0.535315
0.0173866
-0.0114813
-0.367004
0.361099
0.00660599
-0.00271446
-0.174409
0.170517
0.000706386
-0.0290278
0.0283215
-0.0299416
0.0295815
0.000360059
-0.00389365
0.00709319
-0.243307
0.240108
-0.0111917
0.0143656
-0.418286
0.415112
-0.0162451
0.0164492
-0.553399
0.553195
-0.0155794
0.0141943
-0.660292
0.661677
-0.0124551
0.0107437
-0.777098
0.77881
-0.00873184
0.00676749
-0.919931
0.921896
-0.00447775
0.00226819
-1.09321
1.09542
0.00027855
-0.00272231
-1.3028
1.30525
0.00551112
-0.00814178
-1.55711
1.55974
0.0106187
-0.0129425
-1.55643
1.55875
0.0147599
-0.0164807
-1.3013
1.30302
0.0178545
-0.0191877
-1.09164
1.09297
0.0202866
-0.021403
-0.919061
0.920178
0.0223722
-0.0233811
-0.778006
0.779015
0.0241254
-0.024204
-0.659573
0.659652
0.0231453
-0.0200861
-0.532446
0.529387
0.015677
-0.0101888
-0.355431
0.349943
0.00583066
-0.00240463
-0.166893
0.163467
0.000632671
-0.0276667
0.027034
-0.0292847
0.0290368
0.000247981
-0.00288443
0.00541025
-0.237268
0.234742
-0.00881294
0.011618
-0.412148
0.409343
-0.0134426
0.0137562
-0.552999
0.552685
-0.0129775
0.0116865
-0.663093
0.664384
-0.00997359
0.00826018
-0.780503
0.782216
-0.00623907
0.00427407
-0.923738
0.925703
-0.00200432
-0.000160923
-1.0975
1.09966
0.00264422
-0.00499026
-1.30757
1.30991
0.00763272
-0.0100896
-1.56225
1.5647
0.0123565
-0.0144286
-1.56096
1.56303
0.0160098
-0.0174756
-1.30466
1.30613
0.0186298
-0.019733
-1.09423
1.09534
0.02063
-0.0215308
-0.921205
0.922106
0.0223092
-0.0230919
-0.779903
0.780685
0.0235637
-0.0233713
-0.659559
0.659366
0.0219617
-0.018646
-0.526237
0.522921
0.0143045
-0.00919476
-0.344684
0.339574
0.00525235
-0.00218046
-0.160254
0.157182
0.00058162
-0.026444
0.0258624
-0.0288503
0.0287109
0.000139466
-0.00192892
0.00380856
-0.232561
0.230682
-0.00649716
0.0088487
-0.406804
0.404453
-0.0104911
0.0108187
-0.552449
0.552121
-0.0100853
0.00884227
-0.66574
0.666983
-0.00712783
0.00539283
-0.783902
0.785636
-0.00335173
0.00138368
-0.927527
0.929495
0.000870788
-0.00300825
-1.1017
1.10384
0.00542853
-0.00769209
-1.31213
1.31439
0.0102016
-0.0124828
-1.56702
1.5693
0.0145315
-0.0163424
-1.56497
1.56678
0.017668
-0.0188466
-1.30751
1.30869
0.0197334
-0.02055
-1.09636
1.09718
0.0212026
-0.0218556
-0.922927
0.92358
0.0224226
-0.0230234
-0.781351
0.781951
0.0231898
-0.0227174
-0.658949
0.658477
0.0209828
-0.0174654
-0.519548
0.516031
0.0132153
-0.0084377
-0.334681
0.329903
0.00482809
-0.00202445
-0.154285
0.151481
0.000549407
-0.0253165
0.0247671
-0.0286312
0.0286047
2.64646e-05
-0.000976835
0.00221408
-0.229145
0.227908
-0.00415892
0.00598506
-0.402413
0.400587
-0.00734263
0.00760856
-0.551939
0.551673
-0.00688508
0.00566566
-0.668327
0.669546
-0.00393456
0.00217208
-0.787324
0.789086
-9.78102e-05
-0.00189785
-0.931308
0.933304
0.00417519
-0.006321
-1.10584
1.10799
0.0087253
-0.0109342
-1.31653
1.31874
0.0133227
-0.0154232
-1.57143
1.57353
0.0172395
-0.0187809
-1.56844
1.56998
0.0198487
-0.020733
-1.30977
1.31066
0.0213577
-0.0218915
-1.0979
1.09844
0.0222794
-0.0226453
-0.924148
0.924514
0.0229643
-0.0233069
-0.782392
0.782734
0.023164
-0.0223552
-0.657693
0.656884
0.0202909
-0.0165792
-0.512497
0.508785
0.0124056
-0.00789875
-0.325331
0.320824
0.00454441
-0.00193165
-0.148823
0.14621
0.000534981
-0.0242492
0.0237142
-0.0286331
0.0287216
-8.849e-05
3.03991e-05
0.000560546
-0.227015
0.226424
-0.00173577
0.00297007
-0.399108
0.397873
-0.00395164
0.00409778
-0.551616
0.55147
-0.00336408
0.00214806
-0.670898
0.672114
-0.000382344
-0.00144776
-0.790795
0.792626
0.00361112
-0.00568416
-0.93515
0.937224
0.00803185
-0.0102179
-1.11
1.11219
0.0126283
-0.0148047
-1.32083
1.32301
0.0171039
-0.019053
-1.57549
1.57744
0.020657
-0.0219144
-1.57137
1.57262
0.0226878
-0.0232304
-1.31145
1.31199
0.0235366
-0.0237368
-1.09886
1.09906
0.0238348
-0.0239074
-0.924782
0.924854
0.0239878
-0.0239765
-0.782803
0.782792
0.0235637
-0.0223133
-0.655724
0.654474
0.0198817
-0.0159703
-0.505091
0.50118
0.0118543
-0.00755559
-0.316512
0.312213
0.00438349
-0.00189283
-0.143716
0.141225
0.000535618
-0.0232067
0.022671
-0.0288759
0.0291024
-0.000226471
0.00102606
-0.00114148
-0.226212
0.226328
0.000803578
-0.000244315
-0.39703
0.396471
-0.000243788
0.000147289
-0.551635
0.551732
0.000710585
-0.00201165
-0.673517
0.674818
0.00386419
-0.00579624
-0.794395
0.796327
0.0080795
-0.0102541
-0.939146
0.941321
0.0126978
-0.014948
-1.11425
1.1165
0.0173923
-0.0195479
-1.32505
1.32721
0.0217514
-0.0235303
-1.57923
1.58101
0.024871
-0.0258002
-1.57369
1.57462
0.0262472
-0.0264155
-1.31242
1.31259
0.0263855
-0.0262185
-1.09914
1.09897
0.0259932
-0.0257197
-0.924787
0.924514
0.0254631
-0.0250876
-0.782447
0.782072
0.0243153
-0.0225438
-0.652926
0.651154
0.019771
-0.0156759
-0.497347
0.493252
0.0115809
-0.00740936
-0.308096
0.303924
0.00434066
-0.00190325
-0.13883
0.136393
0.000548767
-0.0221598
0.021611
-0.0293965
0.0297628
-0.000366347
0.00215974
-0.00297923
-0.226764
0.227584
0.00353993
-0.00375235
-0.396341
0.396553
0.00389117
-0.00431978
-0.552274
0.552702
0.00532587
-0.00676168
-0.676344
0.67778
0.00876205
-0.010833
-0.798183
0.800254
0.013267
-0.0155734
-0.943328
0.945634
0.0181546
-0.0205146
-1.11861
1.12097
0.0230496
-0.0252419
-1.32925
1.33144
0.027406
-0.0290479
-1.58263
1.58427
0.0301625
-0.0307558
-1.57534
1.57594
0.0308759
-0.0306381
-1.31261
1.31237
0.0302097
-0.0296107
-1.0986
1.098
0.028998
-0.0283162
-0.924014
0.923333
0.0277018
-0.0268972
-0.781286
0.780481
0.0256779
-0.0233804
-0.649204
0.646907
0.0202132
-0.0158561
-0.489242
0.484885
0.0116896
-0.00752614
-0.299904
0.29574
0.00445308
-0.00197574
-0.13402
0.131543
0.000576159
-0.0210844
0.0205082
-0.0302175
0.030765
-0.000547512
0.00339672
-0.0049685
-0.2288
0.230372
0.00643389
-0.00745997
-0.397161
0.398187
0.00833081
-0.00919466
-0.553686
0.55455
0.0104646
-0.0120961
-0.679496
0.681127
0.0143181
-0.0166115
-0.802256
0.804549
0.0193071
-0.0218575
-0.947795
0.950345
0.0246971
-0.0272656
-1.12323
1.12579
0.0299676
-0.0322324
-1.33352
1.33579
0.0343609
-0.0358414
-1.58574
1.58722
0.0366807
-0.0368895
-1.57629
1.5765
0.0366213
-0.0359488
-1.31193
1.31126
0.035106
-0.0340481
-1.09716
1.0961
0.0330267
-0.0318978
-0.922355
0.921226
0.0309198
-0.0295892
-0.779202
0.777871
0.0278577
-0.0249783
-0.644488
0.641608
0.0213596
-0.0166671
-0.480621
0.475928
0.0123219
-0.00800796
-0.291684
0.28737
0.00478243
-0.00213638
-0.129086
0.12644
0.000624466
-0.0199494
0.019325
-0.0314022
0.0321637
-0.000761423
0.00480713
-0.00720402
-0.232369
0.234766
0.00966348
-0.011558
-0.399637
0.401532
0.0132552
-0.0146689
-0.556083
0.557497
0.0163391
-0.0182718
-0.683113
0.685046
0.0208436
-0.0234826
-0.806798
0.809437
0.0265748
-0.029478
-0.952779
0.955682
0.0326701
-0.0355057
-1.12826
1.1311
0.0384213
-0.0407853
-1.33793
1.3403
0.0428951
-0.0442106
-1.5885
1.58982
0.0447471
-0.0445292
-1.57644
1.57622
0.0438037
-0.0426344
-1.31031
1.30914
0.041336
-0.0397825
-1.09473
1.09317
0.0383171
-0.0367231
-0.919736
0.918142
0.0353027
-0.0333798
-0.776052
0.774129
0.0310942
-0.0275977
-0.638646
0.63515
0.0234812
-0.0183425
-0.471339
0.4662
0.0136471
-0.00895479
-0.283092
0.278399
0.00538379
-0.00240991
-0.123753
0.120779
0.000701842
-0.0187103
0.0180085
-0.0330074
0.0340358
-0.00102841
0.00649324
-0.00983177
-0.237584
0.240923
0.01341
-0.0162903
-0.403989
0.406869
0.0189267
-0.0210439
-0.559753
0.561871
0.0233232
-0.0257473
-0.687464
0.689888
0.0288567
-0.0319847
-0.812063
0.815191
0.0355923
-0.0389292
-0.958479
0.961816
0.0425376
-0.0456827
-1.13383
1.13697
0.048839
-0.0513103
-1.34253
1.345
0.0533751
-0.0544653
-1.5909
1.59199
0.0546193
-0.0538835
-1.57568
1.57495
0.0526291
-0.0508465
-1.30761
1.30582
0.049016
-0.0469201
-1.09123
1.08913
0.0449968
-0.042919
-0.916101
0.914024
0.0410081
-0.0385
-0.77174
0.769232
0.035633
-0.0314727
-0.631623
0.627463
0.0267505
-0.0209667
-0.461151
0.455367
0.015688
-0.0103551
-0.273658
0.268325
0.00624098
-0.00278871
-0.117707
0.114255
0.00080733
-0.0173084
0.016501
-0.0351347
0.036529
-0.0013943
0.00871599
-0.013217
-0.244665
0.249166
0.0180905
-0.0220605
-0.410445
0.414415
0.025735
-0.028676
-0.565071
0.568012
0.0317472
-0.0348518
-0.692957
0.696061
0.0386932
-0.0424532
-0.818321
0.822081
0.0467017
-0.0505712
-0.96506
0.968929
0.0546927
-0.0582197
-1.14002
1.14355
0.0616648
-0.0642427
-1.3473
1.34988
0.0662128
-0.0670053
-1.59279
1.59358
0.066683
-0.0653276
-1.57382
1.57247
0.0634639
-0.060994
-1.30362
1.30115
0.0585398
-0.0557962
-1.08651
1.08377
0.0533293
-0.0507259
-0.911392
0.908788
0.0483018
-0.0452101
-0.766257
0.763166
0.0416921
-0.0367171
-0.623268
0.618293
0.0311873
-0.0244923
-0.449642
0.442947
0.01837
-0.0121366
-0.262874
0.256641
0.00730231
-0.00324838
-0.110667
0.106613
0.000934286
-0.0156923
0.0147581
-0.0379668
0.0398966
-0.00192978
0.011853
-0.0178795
-0.254029
0.260056
0.0243303
-0.0295662
-0.419353
0.424589
0.0343944
-0.038266
-0.572337
0.576209
0.0422593
-0.0462041
-0.699937
0.703882
0.0509492
-0.0554903
-0.825847
0.830388
0.0605382
-0.0650637
-0.972735
0.977261
0.069802
-0.0737575
-1.14698
1.15093
0.0774838
-0.0801155
-1.35225
1.35488
0.0819014
-0.0822799
-1.594
1.59438
0.081368
-0.0792678
-1.57064
1.56854
0.0766921
-0.0734312
-1.2982
1.29494
0.070259
-0.0667565
-1.08041
1.07691
0.063655
-0.060408
-0.905442
0.902194
0.0573474
-0.0535431
-0.759532
0.755727
0.049226
-0.0432273
-0.613227
0.607228
0.0366704
-0.0287854
-0.436296
0.428411
0.0215536
-0.0141772
-0.250254
0.242877
0.00847985
-0.00374301
-0.102415
0.0976781
0.00106697
-0.0138272
0.0127603
-0.0418208
0.04459
-0.00276919
0.0165453
-0.024647
-0.266378
0.27448
0.0330975
-0.0398841
-0.431346
0.438133
0.0461064
-0.0511012
-0.581911
0.586905
0.0562756
-0.0613471
-0.7087
0.713771
0.0671965
-0.0726531
-0.834946
0.840403
0.0785947
-0.0838061
-0.981723
0.986935
0.0891083
-0.0933715
-1.15473
1.15899
0.0971803
-0.0996503
-1.35719
1.35966
0.100982
-0.100687
-1.59425
1.59395
0.0989351
-0.0958658
-1.56585
1.56278
0.0924125
-0.088228
-1.29111
1.28693
0.08426
-0.0799294
-1.07271
1.06838
0.0761052
-0.0720864
-0.898029
0.89401
0.0682451
-0.0635434
-0.751215
0.746514
0.0582376
-0.0510135
-0.601033
0.593809
0.0431916
-0.0337895
-0.420559
0.411157
0.0251517
-0.0163965
-0.235356
0.226601
0.00971559
-0.00424097
-0.0928216
0.087347
0.00119374
-0.0117104
0.0105166
-0.0472679
0.0514803
-0.00421238
0.0239883
-0.0349784
-0.282897
0.293887
0.0460887
-0.0550063
-0.447483
0.456401
0.0630337
-0.0694601
-0.594331
0.600758
0.0762129
-0.0826711
-0.71972
0.726178
0.0898079
-0.0961877
-0.845843
0.852223
0.102895
-0.108565
-0.991975
0.997646
0.114085
-0.118277
-1.1629
1.16709
0.121715
-0.123582
-1.36158
1.36344
0.123956
-0.122524
-1.5929
1.59147
0.119497
-0.11507
-1.55891
1.55448
0.110453
-0.105111
-1.28204
1.2767
0.100205
-0.0949666
-1.06329
1.05805
0.0903998
-0.0855736
-0.888871
0.884045
0.080974
-0.0753004
-0.740897
0.735223
0.0688833
-0.0601567
-0.586257
0.57753
0.0507198
-0.0393969
-0.401733
0.39041
0.0290594
-0.0187242
-0.217794
0.207459
0.0109573
-0.00470927
-0.0818293
0.0755813
0.00130058
-0.0093639
0.00806331
-0.0553883
0.0626581
-0.0072698
0.0373198
-0.0526365
-0.305783
0.321099
0.0675047
-0.0792181
-0.4693
0.481013
0.0891901
-0.0971657
-0.610228
0.618203
0.105667
-0.113456
-0.733306
0.741096
0.121587
-0.128471
-0.858369
0.865254
0.135362
-0.140881
-1.00287
1.00839
0.145925
-0.149399
-1.17059
1.17407
0.15178
-0.152403
-1.3644
1.36503
0.151192
-0.148089
-1.58896
1.58585
0.143368
-0.137256
-1.54902
1.54291
0.131228
-0.124498
-1.27048
1.26375
0.118467
-0.112188
-1.05191
1.04563
0.10683
-0.101256
-0.877987
0.872413
0.0959814
-0.0892719
-0.728391
0.721682
0.0814304
-0.0706255
-0.568198
0.557393
0.0590093
-0.0453882
-0.378906
0.365285
0.033195
-0.0211747
-0.197293
0.185273
0.0122237
-0.00515036
-0.069484
0.0624106
0.00137909
-0.00684201
0.00546292
-0.0694951
0.0734005
-0.00390532
0.0279636
-0.041185
-0.338993
0.352215
0.0544022
-0.0649709
-0.497971
0.50854
0.0745784
-0.0838819
-0.62959
0.638894
0.0944789
-0.103855
-0.748613
0.757988
0.114244
-0.123443
-0.87131
0.88051
0.133098
-0.1415
-1.01295
1.02135
0.150016
-0.157016
-1.1764
1.1834
0.163504
-0.168089
-1.3644
1.36898
0.17121
-0.171872
-1.58145
1.58211
0.169962
-0.165925
-1.53562
1.53158
0.160838
-0.154267
-1.25607
1.2495
0.147969
-0.140561
-1.03834
1.03093
0.134152
-0.127228
-0.865365
0.858441
0.120377
-0.111017
-0.713266
0.703906
0.099009
-0.0832499
-0.545441
0.529682
0.0673606
-0.0495605
-0.351287
0.333487
0.0346198
-0.0208264
-0.173643
0.15985
0.0112633
-0.00438893
-0.0560128
0.0491384
0.00104185
-0.00425174
0.00320989
-0.0805725
0.0783862
0.00218627
0.00604128
-0.0144082
-0.36821
0.376577
0.0243159
-0.0318972
-0.523715
0.531296
0.0397274
-0.047762
-0.650502
0.658537
0.057455
-0.0663339
-0.767123
0.776002
0.0757141
-0.0842149
-0.889196
0.897697
0.093117
-0.100565
-1.02947
1.03692
0.108342
-0.114422
-1.19024
1.19632
0.120069
-0.12386
-1.37332
1.37711
0.125997
-0.125978
-1.58206
1.58204
0.123535
-0.119064
-1.52694
1.52247
0.113418
-0.106228
-1.24257
1.23538
0.0991556
-0.0908198
-1.02283
1.0145
0.0826478
-0.0729444
-0.848472
0.838768
0.0634828
-0.0528573
-0.689138
0.678512
0.0426553
-0.0311117
-0.511239
0.499696
0.0213115
-0.0127335
-0.315202
0.306624
0.00714804
-0.00319367
-0.146572
0.142618
0.00112555
-0.000166514
-0.0427243
0.0417653
-5.22438e-05
-0.00204709
0.00209933
-0.0815271
0.0785262
0.00300086
-0.00289994
-0.0015206
-0.387608
0.392029
0.00796482
-0.0135763
-0.5427
0.548312
0.0196111
-0.02646
-0.668341
0.67519
0.0347395
-0.0423723
-0.784027
0.79166
0.0506955
-0.0581167
-0.905472
0.912894
0.0656955
-0.072447
-1.04422
1.05097
0.0793553
-0.0849249
-1.20205
1.20762
0.0897779
-0.0929616
-1.38041
1.38359
0.0948954
-0.0946349
-1.58159
1.58133
0.0920632
-0.0875441
-1.51766
1.51314
0.081902
-0.0747614
-1.22814
1.221
0.0671204
-0.0580634
-1.00529
0.996234
0.0489164
-0.0380936
-0.827408
0.816585
0.0281476
-0.0178147
-0.664074
0.653741
0.00938412
-0.00145971
-0.486092
0.478167
-0.00339515
0.00585273
-0.29663
0.294173
-0.00616968
0.00513659
-0.137063
0.138096
-0.00360025
0.00182105
-0.0401571
0.0419363
-0.000590679
-0.00183545
0.00242613
-0.0800173
0.0771572
0.00286011
-0.00624406
0.00439309
-0.40006
0.401911
-0.000660362
-0.00348102
-0.556801
0.560943
0.00861679
-0.0142684
-0.682838
0.688489
0.0212231
-0.0277106
-0.798725
0.805213
0.0348068
-0.0411961
-0.91981
0.926199
0.0481547
-0.0540114
-1.05734
1.0632
0.0602509
-0.0649099
-1.21289
1.21755
0.0693624
-0.0722946
-1.38672
1.38965
0.0738898
-0.0732124
-1.58081
1.58013
0.0706527
-0.0661667
-1.50818
1.50369
0.0605071
-0.0529495
-1.21352
1.20596
0.0452362
-0.0360992
-0.986491
0.977354
0.0268714
-0.0165962
-0.804868
0.794593
0.00718252
0.0017101
-0.6409
0.632008
-0.00804758
0.0127735
-0.468534
0.463808
-0.0145078
0.013721
-0.288556
0.289343
-0.0116138
0.00844998
-0.13737
0.140533
-0.00556646
0.0026445
-0.0427798
0.0457018
-0.000809502
-0.00261306
0.00342257
-0.0783294
0.0758659
0.00246353
-0.00702965
0.00666061
-0.408116
0.408485
-0.00401802
0.00119442
-0.567981
0.570805
0.00284937
-0.00787201
-0.694726
0.699749
0.0135856
-0.019219
-0.811039
0.816673
0.0253484
-0.0309379
-0.932181
0.93777
0.0370105
-0.0423595
-1.06898
1.07433
0.0478391
-0.0523163
-1.22217
1.22664
0.0563684
-0.0590025
-1.39233
1.39496
0.0603287
-0.0594469
-1.57933
1.57844
0.0567346
-0.0519583
-1.49849
1.49371
0.0462944
-0.0389837
-1.19826
1.19095
0.0315193
-0.0227135
-0.967786
0.95898
0.0143273
-0.00516108
-0.783829
0.774663
-0.00269841
0.00986174
-0.621618
0.614455
-0.0144664
0.017452
-0.456663
0.453677
-0.0181543
0.016272
-0.28615
0.288032
-0.0131864
0.00947312
-0.141731
0.145445
-0.00614444
0.00286048
-0.0475945
0.0508785
-0.000874575
-0.00385917
0.00473375
-0.0768722
0.0748079
0.00206432
-0.00661266
0.00661735
-0.413491
0.413486
-0.00526653
0.00300411
-0.576324
0.578587
0.000796724
-0.0050129
-0.704553
0.708769
0.00984759
-0.0146881
-0.821541
0.826382
0.0201324
-0.0251734
-0.943057
0.948098
0.0308239
-0.0356342
-1.07947
1.08428
0.040718
-0.0448921
-1.23091
1.23508
0.0486083
-0.0509793
-1.39738
1.39975
0.0520452
-0.051347
-1.57745
1.57675
0.0485097
-0.0439064
-1.48843
1.48383
0.0384084
-0.0314837
-1.18347
1.17654
0.0248214
-0.0168071
-0.95018
0.942166
0.00944589
-0.0017489
-0.76547
0.757773
-0.00475683
0.0106208
-0.606073
0.600209
-0.0144406
0.0168718
-0.448273
0.445841
-0.0170635
0.0152146
-0.286166
0.288015
-0.0124218
0.00885543
-0.147148
0.150714
-0.00567136
0.00266517
-0.0528282
0.0558344
-0.000824812
-0.00517871
0.00600352
-0.0758462
0.0742754
0.00157083
-0.00547635
0.00567783
-0.417468
0.417266
-0.00459444
0.00295929
-0.583557
0.585192
0.000585937
-0.00434829
-0.712906
0.716669
0.00890288
-0.0130403
-0.830854
0.834992
0.0178366
-0.022355
-0.953152
0.95767
0.0277871
-0.0322474
-1.08917
1.09363
0.036882
-0.0409052
-1.23912
1.24314
0.0447854
-0.0469905
-1.40215
1.40435
0.0480692
-0.0472798
-1.57563
1.57484
0.0448277
-0.0402193
-1.47899
1.47438
0.0352449
-0.0290634
-1.16955
1.16336
0.0230044
-0.0161737
-0.934408
0.927577
0.00982014
-0.00315068
-0.749975
0.743306
-0.00208466
0.00704268
-0.593312
0.588354
-0.010353
0.0122633
-0.441044
0.439134
-0.0126743
0.0115792
-0.286638
0.287733
-0.00944267
0.00667451
-0.151957
0.154726
-0.00425671
0.00201698
-0.0572871
0.0595268
-0.000639767
-0.00632177
0.00696153
-0.0753932
0.0741913
0.00120196
-0.0042159
0.00441162
-0.420699
0.420503
-0.00329392
0.0016569
-0.58985
0.591487
0.00166791
-0.00497463
-0.720364
0.723671
0.00884835
-0.0128527
-0.839113
0.843117
0.0173081
-0.0219919
-0.962039
0.966723
0.0267409
-0.0310466
-1.09821
1.10252
0.0358244
-0.0396072
-1.24707
1.25085
0.0429934
-0.0455643
-1.40646
1.40903
0.04677
-0.0462275
-1.57407
1.57353
0.0439463
-0.0399806
-1.46996
1.466
0.035476
-0.0298963
-1.15696
1.15138
0.0245761
-0.0185606
-0.920793
0.914777
0.0130551
-0.00743401
-0.736757
0.731136
0.00258594
0.00182731
-0.582479
0.578065
-0.00474336
0.00673547
-0.434899
0.432907
-0.00735116
0.00675484
-0.286191
0.286787
-0.00555336
0.0038648
-0.155037
0.156725
-0.00245022
0.00117876
-0.0602106
0.061482
-0.000400518
-0.00709703
0.00749755
-0.075508
0.0745287
0.000979223
-0.0028231
0.00269084
-0.423766
0.423898
-0.0016728
3.59927e-05
-0.595756
0.597393
0.00316837
-0.00642513
-0.727284
0.73054
0.0101699
-0.0138073
-0.846952
0.850589
0.0184059
-0.0223352
-0.970875
0.974804
0.027068
-0.0312
-1.107
1.11113
0.0358536
-0.0398021
-1.25463
1.25858
0.0434261
-0.045737
-1.41135
1.41366
0.0472321
-0.0470608
-1.5729
1.57272
0.0454174
-0.0418192
-1.46192
1.45832
0.0378519
-0.032847
-1.14596
1.14095
0.0281228
-0.0226979
-0.908652
0.903227
0.0178994
-0.0128051
-0.725319
0.720224
0.00848741
-0.00438412
-0.572951
0.568848
0.00137132
0.000700869
-0.428875
0.426803
-0.00172127
0.00182583
-0.284607
0.284503
-0.00166929
0.00119604
-0.156051
0.156524
-0.000799073
0.000466104
-0.0613038
0.0616368
-0.000193848
-0.0074297
0.00762355
-0.075931
0.0752742
0.000656749
-0.00162203
0.00106207
-0.427121
0.427681
-0.000196357
-0.00195049
-0.600871
0.603018
0.0048154
-0.00797909
-0.73382
0.736984
0.0116061
-0.0154141
-0.854141
0.857949
0.0194433
-0.0235497
-0.978971
0.983078
0.0282506
-0.0321694
-1.1157
1.11962
0.036889
-0.0407596
-1.26233
1.2662
0.0443957
-0.0471865
-1.41636
1.41915
0.0491266
-0.0492212
-1.57258
1.57267
0.0478332
-0.0449788
-1.45489
1.45204
0.041606
-0.0370566
-1.13585
1.1313
0.032693
-0.0279463
-0.897776
0.89303
0.0232401
-0.0187168
-0.714882
0.710359
0.0147281
-0.0107561
-0.564334
0.560362
0.00786396
-0.00539083
-0.422751
0.420278
0.00387843
-0.00277515
-0.281787
0.280684
0.00198185
-0.00119914
-0.154899
0.154117
0.000527193
-5.33707e-05
-0.0606582
0.0601844
-7.93576e-05
-0.00729222
0.00737158
-0.0767765
0.0762821
0.000494399
-0.000644481
0.000173545
-0.430832
0.431303
0.00157273
-0.00353992
-0.606445
0.608412
0.00660062
-0.0097043
-0.739969
0.743073
0.013244
-0.0167081
-0.861485
0.864949
0.0208966
-0.0247107
-0.98722
0.991034
0.0293625
-0.0336985
-1.124
1.12833
0.0380364
-0.0421984
-1.27011
1.27427
0.0462099
-0.0490589
-1.42183
1.42468
0.051342
-0.0521982
-1.57298
1.57383
0.0512594
-0.0490451
-1.44906
1.44684
0.0459135
-0.0418588
-1.12678
1.12273
0.037943
-0.0334196
-0.887894
0.88337
0.0291379
-0.0247848
-0.705314
0.700961
0.0209484
-0.0169423
-0.555856
0.55185
0.0137867
-0.0109644
-0.416255
0.413432
0.00868873
-0.0066955
-0.277283
0.27529
0.00494001
-0.00313107
-0.151578
0.149769
0.00169245
-0.000576468
-0.0585112
0.0573952
7.77721e-05
-0.00685368
0.00677591
-0.0778882
0.0775859
0.000302377
0.000441763
-0.0012543
-0.434679
0.435492
0.0028202
-0.00512338
-0.611704
0.614008
0.00817669
-0.0111837
-0.746018
0.749025
0.0148618
-0.0182248
-0.868444
0.871807
0.0222938
-0.0262429
-0.995348
0.999297
0.0307995
-0.0350871
-1.13253
1.13682
0.0396171
-0.0437756
-1.27835
1.28251
0.0479372
-0.0514988
-1.42781
1.43137
0.0542011
-0.055344
-1.57462
1.57576
0.0550916
-0.0532089
-1.44451
1.44263
0.0506365
-0.0471114
-1.11859
1.11507
0.0432669
-0.0389736
-0.878552
0.874259
0.0348783
-0.0305026
-0.696193
0.691817
0.0267759