/*--------------------------------*- C++ -*----------------------------------*\
| =========                 |                                                 |
| \\      /  F ield         | OpenFOAM: The Open Source CFD Toolbox           |
|  \\    /   O peration     | Version:  2306                                  |
|   \\  /    A nd           | Website:  www.openfoam.com                      |
|    \\/     M anipulation  |                                                 |
\*---------------------------------------------------------------------------*/
FoamFile
{
    version     2.0;
    format      ascii;
    arch        "LSB;label=32;scalar=64";
    class       volVectorField;
    location    "36";
    object      U;
}
// * * * * * * * * * * * * * * * * * * * * * * * * * * * * * * * * * * * * * //

dimensions      [0 1 -1 0 0 0 0];

internalField   nonuniform List<vector> 
8800
(
(0.984963 -0.0884524 0)
(1.00213 -0.0568235 0)
(0.999676 -0.0305561 0)
(1.00002 -0.015859 0)
(1.00006 -0.00871179 0)
(1.00004 -0.00507215 0)
(1.00001 -0.0029958 0)
(0.999984 -0.00170608 0)
(0.999971 -0.000814303 0)
(1.00006 -0.000119773 0)
(0.999978 0.000586337 0)
(0.999996 0.00134286 0)
(1.00001 0.00237973 0)
(1.00002 0.00398577 0)
(1.00003 0.00669815 0)
(1.00001 0.0117271 0)
(0.999865 0.0220466 0)
(0.999181 0.0411673 0)
(1.00747 0.0768955 0)
(0.773651 0.0450708 0)
(0.360992 -0.0151727 0)
(1.04555 -0.0742091 0)
(1.08711 -0.0679034 0)
(1.04777 -0.052316 0)
(1.02458 -0.0384121 0)
(1.01235 -0.0261318 0)
(1.00644 -0.0167948 0)
(1.00357 -0.0103037 0)
(1.00215 -0.00567321 0)
(1.00149 -0.00207359 0)
(1.00137 0.00114003 0)
(1.00173 0.00445965 0)
(1.0027 0.00837551 0)
(1.0047 0.0137313 0)
(1.00879 0.0214738 0)
(1.01734 0.0323008 0)
(1.03446 0.0456491 0)
(1.0655 0.0597683 0)
(1.09409 0.0729299 0)
(0.842247 0.0557085 0)
(0.217039 -0.0016474 0)
(1.07584 -0.0503763 0)
(1.09983 -0.0487495 0)
(1.06464 -0.040207 0)
(1.03993 -0.0330477 0)
(1.02371 -0.0257556 0)
(1.01395 -0.0183976 0)
(1.00847 -0.0116961 0)
(1.00563 -0.00590641 0)
(1.00447 -0.000599521 0)
(1.0048 0.00452717 0)
(1.00665 0.00985111 0)
(1.01057 0.0159129 0)
(1.01786 0.0228483 0)
(1.03051 0.0301306 0)
(1.05066 0.0371435 0)
(1.08039 0.0444931 0)
(1.10624 0.051722 0)
(0.942918 0.0413113 0)
(0.216533 0.00166504 0)
(0.175841 -0.000646541 0)
(1.0186 -0.0354409 0)
(1.10555 -0.0414693 0)
(1.07808 -0.036316 0)
(1.05278 -0.0302973 0)
(1.03549 -0.0245862 0)
(1.02349 -0.0188959 0)
(1.01558 -0.012909 0)
(1.01094 -0.00679611 0)
(1.00891 -0.000545725 0)
(1.00947 0.00563001 0)
(1.01259 0.0115806 0)
(1.01861 0.0174082 0)
(1.02834 0.02301 0)
(1.0427 0.0284655 0)
(1.06342 0.034144 0)
(1.09385 0.0401281 0)
(1.09424 0.0417849 0)
(0.829044 0.0227472 0)
(0.174983 0.000665037 0)
(0.154263 -0.000488405 0)
(0.95715 -0.0255906 0)
(1.10402 -0.0351568 0)
(1.08787 -0.0327332 0)
(1.06129 -0.0281964 0)
(1.04339 -0.0232299 0)
(1.031 -0.0180217 0)
(1.02233 -0.012559 0)
(1.01672 -0.00669242 0)
(1.01406 -0.000260415 0)
(1.01474 0.00619468 0)
(1.01861 0.012068 0)
(1.02549 0.0173864 0)
(1.03569 0.0223886 0)
(1.05041 0.0272407 0)
(1.0721 0.0317458 0)
(1.10082 0.0356489 0)
(1.06936 0.0338369 0)
(0.741681 0.0143094 0)
(0.152977 0.000509146 0)
(0.139704 -0.000359653 0)
(0.900082 -0.0192466 0)
(1.09631 -0.0302181 0)
(1.09593 -0.0293608 0)
(1.06887 -0.025628 0)
(1.05015 -0.0215693 0)
(1.03723 -0.0169228 0)
(1.02824 -0.0117463 0)
(1.02228 -0.00610048 0)
(1.0193 0.00019124 0)
(1.01998 0.00652307 0)
(1.02406 0.0121477 0)
(1.03114 0.0171252 0)
(1.04166 0.0216372 0)
(1.057 0.0256492 0)
(1.07961 0.0291786 0)
(1.10318 0.031887 0)
(1.03767 0.0279237 0)
(0.675358 0.0101731 0)
(0.137895 0.000384015 0)
(0.129023 -0.000275369 0)
(0.850215 -0.0148701 0)
(1.08383 -0.0261176 0)
(1.10152 -0.0264781 0)
(1.07562 -0.0232017 0)
(1.05636 -0.0196177 0)
(1.043 -0.0155099 0)
(1.03365 -0.0107201 0)
(1.02744 -0.00530963 0)
(1.02428 0.000758636 0)
(1.02486 0.00683612 0)
(1.02896 0.0121671 0)
(1.03619 0.0167394 0)
(1.04703 0.020658 0)
(1.06279 0.0240433 0)
(1.08585 0.0270987 0)
(1.10251 0.0289433 0)
(1.00325 0.0233242 0)
(0.623887 0.0077663 0)
(0.126578 0.000304673 0)
(0.12087 -0.000212789 0)
(0.807767 -0.01169 0)
(1.06839 -0.0225084 0)
(1.10492 -0.0238513 0)
(1.08173 -0.0210302 0)
(1.06204 -0.0176875 0)
(1.04842 -0.0138914 0)
(1.0388 -0.00946264 0)
(1.03232 -0.00436311 0)
(1.02895 0.0014419 0)
(1.02941 0.00722946 0)
(1.03349 0.0121891 0)
(1.04082 0.0162834 0)
(1.05179 0.0197128 0)
(1.0678 0.0227072 0)
(1.09124 0.0254686 0)
(1.09902 0.0264343 0)
(0.96863 0.0196646 0)
(0.582809 0.00618109 0)
(0.117655 0.00024815 0)
(0.11455 -0.00016481 0)
(0.772019 -0.009298 0)
(1.05142 -0.019313 0)
(1.10712 -0.0214026 0)
(1.08744 -0.0189701 0)
(1.06733 -0.0158025 0)
(1.05345 -0.0122004 0)
(1.04365 -0.00801949 0)
(1.03695 -0.00321453 0)
(1.03334 0.00227262 0)
(1.03363 0.00769901 0)
(1.03764 0.0122358 0)
(1.04495 0.0158955 0)
(1.05596 0.0189456 0)
(1.07223 0.0216243 0)
(1.09543 0.0240733 0)
(1.09286 0.0242665 0)
(0.93521 0.0167753 0)
(0.549174 0.00507313 0)
(0.110398 0.000207617 0)
(0.109624 -0.000126542 0)
(0.742078 -0.00742686 0)
(1.03399 -0.0164521 0)
(1.10832 -0.0190798 0)
(1.0928 -0.0170014 0)
(1.07239 -0.0139772 0)
(1.05824 -0.0104976 0)
(1.04827 -0.00647362 0)
(1.04139 -0.00189466 0)
(1.03753 0.0032729 0)
(1.0376 0.00830661 0)
(1.04144 0.0124376 0)
(1.04864 0.0157329 0)
(1.05967 0.0184546 0)
(1.07618 0.0208182 0)
(1.09839 0.0229007 0)
(1.08443 0.0223758 0)
(0.903655 0.0145008 0)
(0.520998 0.00427289 0)
(0.104334 0.000178523 0)
(0.10581 -9.47398e-05 0)
(0.717174 -0.0059008 0)
(1.017 -0.0138476 0)
(1.10863 -0.016781 0)
(1.09796 -0.0150091 0)
(1.07729 -0.012051 0)
(1.06286 -0.00866788 0)
(1.05268 -0.00478297 0)
(1.04558 -0.000396969 0)
(1.04146 0.0044759 0)
(1.04123 0.00912744 0)
(1.04485 0.0128527 0)
(1.05191 0.0157598 0)
(1.06297 0.0181278 0)
(1.0797 0.0201847 0)
(1.10007 0.0219065 0)
(1.0742 0.0207149 0)
(0.874205 0.0127088 0)
(0.496909 0.00368527 0)
(0.0991343 0.000157993 0)
(0.102922 -6.73259e-05 0)
(0.696712 -0.00460266 0)
(1.00108 -0.0114358 0)
(1.10823 -0.0144989 0)
(1.1029 -0.0129686 0)
(1.08209 -0.0100385 0)
(1.06733 -0.0067073 0)
(1.0569 -0.00291505 0)
(1.04954 0.0013166 0)
(1.0451 0.00592297 0)
(1.04451 0.0102042 0)
(1.04784 0.0135257 0)
(1.05473 0.0160396 0)
(1.06579 0.0180437 0)
(1.08273 0.0198068 0)
(1.10082 0.0211434 0)
(1.06255 0.019315 0)
(0.846827 0.0113133 0)
(0.475906 0.00325797 0)
(0.0945541 0.000145154 0)
(0.100848 -4.18978e-05 0)
(0.680283 -0.00343755 0)
(0.986734 -0.00912433 0)
(1.10728 -0.0121169 0)
(1.1075 -0.0107828 0)
(1.08683 -0.00788378 0)
(1.07173 -0.00454196 0)
(1.06099 -0.000783699 0)
(1.05327 0.00331889 0)
(1.0484 0.00768209 0)
(1.04739 0.0116036 0)
(1.05039 0.0145001 0)
(1.0571 0.0166101 0)
(1.06815 0.0182414 0)
(1.08524 0.0196636 0)
(1.10056 0.0205632 0)
(1.04975 0.0181236 0)
(0.821376 0.0102198 0)
(0.457255 0.00294514 0)
(0.0904104 0.000137407 0)
(0.0995339 -1.63743e-05 0)
(0.667648 -0.00233679 0)
(0.974406 -0.00684622 0)
(1.10612 -0.0095521 0)
(1.11188 -0.00831299 0)
(1.0916 -0.00540989 0)
(1.07616 -0.00203506 0)
(1.06506 0.00169402 0)
(1.05693 0.00568878 0)
(1.05155 0.00983168 0)
(1.05 0.0133776 0)
(1.05258 0.0158107 0)
(1.05903 0.0174436 0)
(1.07002 0.0186345 0)
(1.0871 0.019689 0)
(1.09926 0.0201761 0)
(1.03605 0.0171261 0)
(0.797656 0.00937434 0)
(0.440399 0.00272401 0)
(0.0865609 0.000134267 0)
(0.0989717 1.32938e-05 0)
(0.658748 -0.00124949 0)
(0.964479 -0.0045234 0)
(1.10514 -0.00677016 0)
(1.11623 -0.00555345 0)
(1.09643 -0.00263401 0)
(1.08058 0.00079279 0)
(1.0691 0.00455809 0)
(1.06052 0.00852434 0)
(1.05452 0.0124594 0)
(1.0523 0.015605 0)
(1.05432 0.0175716 0)
(1.0604 0.0187266 0)
(1.07132 0.0194541 0)
(1.08839 0.0200734 0)
(1.09683 0.0200183 0)
(1.02165 0.0163779 0)
(0.775429 0.0087592 0)
(0.424888 0.00258731 0)
(0.0828877 0.00013567 0)
(0.0991808 4.15613e-05 0)
(0.653579 -0.000125943 0)
(0.957237 -0.00209942 0)
(1.10457 -0.00373578 0)
(1.12054 -0.00250196 0)
(1.10131 0.000463591 0)
(1.08506 0.00404038 0)
(1.07308 0.00791119 0)
(1.06386 0.0118868 0)
(1.05707 0.0156701 0)
(1.05404 0.0184475 0)
(1.05542 0.0198945 0)
(1.06111 0.0204727 0)
(1.07189 0.0206699 0)
(1.08876 0.0208209 0)
(1.09313 0.0201702 0)
(1.00654 0.0158694 0)
(0.754403 0.0083527 0)
(0.410297 0.00252328 0)
(0.0792723 0.000140749 0)
(0.100252 7.68935e-05 0)
(0.652307 0.0010868 0)
(0.95303 0.00045653 0)
(1.10478 -0.000331193 0)
(1.12499 0.00108462 0)
(1.10643 0.00417785 0)
(1.08979 0.00795246 0)
(1.07726 0.0119819 0)
(1.06728 0.016003 0)
(1.05953 0.0196205 0)
(1.05551 0.0219581 0)
(1.05608 0.0228196 0)
(1.06121 0.0227897 0)
(1.07174 0.0223962 0)
(1.08808 0.0219075 0)
(1.088 0.0205743 0)
(0.9908 0.0156272 0)
(0.734279 0.0081616 0)
(0.396254 0.00252915 0)
(0.0756213 0.000148065 0)
(0.102304 0.000110576 0)
(0.654864 0.00230866 0)
(0.952266 0.00321539 0)
(1.10636 0.0033729 0)
(1.12989 0.00512897 0)
(1.11186 0.00847977 0)
(1.09477 0.012499 0)
(1.08157 0.0167467 0)
(1.07072 0.0209144 0)
(1.06184 0.0244622 0)
(1.05654 0.026407 0)
(1.05606 0.0266684 0)
(1.0605 0.0259235 0)
(1.07068 0.0248375 0)
(1.08629 0.0236471 0)
(1.08139 0.021507 0)
(0.9743 0.0158271 0)
(0.714581 0.00826046 0)
(0.382317 0.00262552 0)
(0.0718508 0.00015706 0)
(0.105492 0.00016557 0)
(0.661975 0.00372305 0)
(0.955062 0.00608362 0)
(1.10953 0.00743047 0)
(1.13535 0.00964691 0)
(1.11769 0.0133841 0)
(1.10006 0.0178299 0)
(1.08606 0.022501 0)
(1.07407 0.0269394 0)
(1.06369 0.0304185 0)
(1.0569 0.0318937 0)
(1.05524 0.0314652 0)
(1.05879 0.0299713 0)
(1.06846 0.0281554 0)
(1.08316 0.0262265 0)
(1.07311 0.023117 0)
(0.956715 0.0166174 0)
(0.694667 0.0087564 0)
(0.367859 0.00284703 0)
(0.0678429 0.000169264 0)
(0.11002 0.0002316 0)
(0.673697 0.00529486 0)
(0.961798 0.00927356 0)
(1.11476 0.011976 0)
(1.14169 0.0148384 0)
(1.12432 0.0191811 0)
(1.10612 0.0242736 0)
(1.09115 0.0295191 0)
(1.07778 0.034304 0)
(1.06562 0.0377447 0)
(1.05696 0.0386975 0)
(1.05378 0.0374837 0)
(1.05619 0.0351605 0)
(1.06519 0.0325604 0)
(1.07853 0.0298191 0)
(1.06295 0.0256178 0)
(0.937757 0.018227 0)
(0.673627 0.00976507 0)
(0.352041 0.00322226 0)
(0.0634273 0.000187861 0)
(0.116116 0.000316105 0)
(0.69036 0.00715944 0)
(0.973235 0.0129986 0)
(1.12272 0.0172288 0)
(1.14943 0.0210621 0)
(1.13204 0.0263377 0)
(1.11298 0.0322678 0)
(1.09662 0.0381931 0)
(1.08141 0.0433691 0)
(1.06702 0.0467347 0)
(1.05616 0.0470383 0)
(1.05127 0.0448688 0)
(1.05248 0.0415735 0)
(1.06067 0.0381455 0)
(1.07227 0.0345769 0)
(1.05086 0.0292403 0)
(0.916882 0.02077 0)
(0.650305 0.0112817 0)
(0.333967 0.00373956 0)
(0.0584017 0.000213265 0)
(0.12421 0.000434607 0)
(0.71264 0.00960841 0)
(0.989703 0.0175665 0)
(1.13409 0.023504 0)
(1.15931 0.0286048 0)
(1.14127 0.0351403 0)
(1.12096 0.0421084 0)
(1.10279 0.048879 0)
(1.0853 0.054528 0)
(1.06819 0.0577444 0)
(1.0547 0.0572465 0)
(1.04778 0.0539587 0)
(1.0476 0.0495611 0)
(1.05493 0.0451381 0)
(1.06442 0.0407352 0)
(1.0365 0.0341323 0)
(0.893221 0.0242298 0)
(0.623508 0.0132388 0)
(0.312873 0.00436624 0)
(0.0526014 0.000244002 0)
(0.135024 0.000611448 0)
(0.741716 0.0130442 0)
(1.01204 0.0235565 0)
(1.14945 0.031418 0)
(1.17188 0.0380047 0)
(1.15237 0.0460854 0)
(1.13024 0.0543583 0)
(1.10968 0.0621468 0)
(1.08924 0.0682703 0)
(1.06881 0.0711903 0)
(1.05227 0.069678 0)
(1.04305 0.065107 0)
(1.04131 0.0593913 0)
(1.0477 0.053816 0)
(1.05479 0.0483945 0)
(1.01925 0.0402103 0)
(0.865808 0.0284923 0)
(0.592159 0.0155153 0)
(0.288231 0.00504609 0)
(0.0459391 0.000274468 0)
(0.149781 0.000893836 0)
(0.779448 0.0181309 0)
(1.0419 0.0318391 0)
(1.16954 0.0420964 0)
(1.18765 0.0507456 0)
(1.16571 0.0605047 0)
(1.14102 0.0702904 0)
(1.11726 0.0790176 0)
(1.09309 0.0853021 0)
(1.0687 0.0874866 0)
(1.04871 0.084532 0)
(1.03694 0.0783564 0)
(1.03343 0.0711798 0)
(1.03871 0.0642264 0)
(1.04291 0.0573545 0)
(0.998325 0.047504 0)
(0.833608 0.0335472 0)
(0.555341 0.0180297 0)
(0.259777 0.00574066 0)
(0.038439 0.000300429 0)
(0.170648 0.00138684 0)
(0.829052 0.0260252 0)
(1.08205 0.0439975 0)
(1.19543 0.0574646 0)
(1.2072 0.0687857 0)
(1.18147 0.0804737 0)
(1.15311 0.091564 0)
(1.12507 0.100686 0)
(1.09636 0.10638 0)
(1.06742 0.107007 0)
(1.0436 0.101847 0)
(1.02916 0.0935278 0)
(1.02385 0.084622 0)
(1.02763 0.076259 0)
(1.0282 0.0678915 0)
(0.973065 0.0561115 0)
(0.795342 0.0393022 0)
(0.512466 0.0207148 0)
(0.227565 0.00641074 0)
(0.030239 0.000316281 0)
(0.201041 0.00249396 0)
(0.896448 0.0394822 0)
(1.13532 0.0638077 0)
(1.22775 0.0807419 0)
(1.23071 0.0951453 0)
(1.19914 0.108327 0)
(1.16563 0.119757 0)
(1.1322 0.128132 0)
(1.09824 0.132089 0)
(1.06431 0.130094 0)
(1.03645 0.121949 0)
(1.01931 0.111 0)
(1.01233 0.100005 0)
(1.01459 0.0901758 0)
(1.01057 0.0804523 0)
(0.942364 0.0662151 0)
(0.749572 0.0454916 0)
(0.463799 0.0235666 0)
(0.192483 0.00706433 0)
(0.0217434 0.000316165 0)
(0.242571 0.00875043 1.2136e-19)
(0.985535 0.0664853 1.07842e-19)
(1.19942 0.0975176 -3.74733e-20)
(1.26448 0.11572 0)
(1.25569 0.133117 -9.21826e-34)
(1.21675 0.145937 1.33784e-20)
(1.17704 0.15597 -2.34751e-20)
(1.13759 0.16226 0)
(1.0979 0.163561 4.68012e-34)
(1.05859 0.158425 -2.77346e-20)
(1.02632 0.147215 0)
(1.00608 0.133743 -3.22868e-20)
(0.997176 0.120797 -9.47538e-20)
(0.997938 0.109616 -4.45873e-20)
(0.988127 0.0985063 -1.33435e-20)
(0.901567 0.0803785 -7.89039e-21)
(0.691689 0.054267 0)
(0.406454 0.0278154 5.5122e-21)
(0.155196 0.00873295 6.48958e-21)
(0.0137823 0.000583503 1.1505e-19)
(0.270619 0.0241973 9.76281e-20)
(1.05839 0.10889 1.0197e-21)
(1.25137 0.145808 1.03711e-20)
(1.29833 0.164344 0)
(1.27804 0.180996 -4.80906e-20)
(1.23201 0.191852 -5.39085e-20)
(1.18604 0.199733 -2.40429e-20)
(1.14047 0.203818 -8.36613e-20)
(1.09474 0.202793 0)
(1.04947 0.195253 1.18847e-19)
(1.01184 0.181948 1.16774e-19)
(0.987373 0.166891 3.4499e-20)
(0.975163 0.152455 1.24553e-19)
(0.97111 0.138624 1.73726e-19)
(0.948876 0.122483 0)
(0.844214 0.0990217 2.43556e-19)
(0.624771 0.0665655 3.48897e-19)
(0.349265 0.034628 3.865e-19)
(0.123059 0.0113929 -4.4003e-19)
(0.00752027 0.000693734 -8.14465e-21)
(0.270644 0.0397539 0)
(1.1032 0.164177 1.92416e-20)
(1.28623 0.205289 0)
(1.32443 0.223576 -6.79597e-20)
(1.29566 0.236417 0)
(1.24364 0.243438 -1.08302e-19)
(1.19196 0.247854 4.96892e-20)
(1.14077 0.248809 -1.70698e-19)
(1.08948 0.244914 -3.13584e-21)
(1.03874 0.234691 6.20159e-20)
(0.996116 0.219066 2.56586e-19)
(0.967247 0.202096 -6.09638e-22)
(0.950303 0.185568 -9.05351e-20)
(0.939009 0.168729 -1.64066e-19)
(0.90741 0.14878 1.93994e-19)
(0.800525 0.12103 -3.42501e-19)
(0.589422 0.083091 -4.49766e-20)
(0.330068 0.0449467 0)
(0.11937 0.015872 1.78736e-23)
(0.0076207 0.00107313 0)
(0.263472 0.0532079 2.95027e-19)
(1.12587 0.222573 -1.38792e-19)
(1.3072 0.269562 -9.86325e-20)
(1.34105 0.287585 3.34359e-20)
(1.30686 0.296081 -5.56993e-20)
(1.25058 0.298669 2.28412e-19)
(1.19444 0.299042 1.04462e-19)
(1.13854 0.296364 0)
(1.08243 0.289087 -3.16087e-19)
(1.02665 0.27554 0)
(0.97927 0.256772 -1.35412e-19)
(0.945864 0.236983 -1.65181e-19)
(0.923706 0.217802 -9.87084e-20)
(0.905855 0.198373 -1.19221e-19)
(0.869792 0.176349 0)
(0.769096 0.146337 0)
(0.573352 0.104276 -2.94714e-19)
(0.332416 0.0598436 5.79594e-20)
(0.12853 0.023078 -3.40514e-20)
(0.0107175 0.00204433 -3.92056e-20)
(0.255573 0.0651656 -1.52218e-19)
(1.13444 0.280829 0)
(1.31788 0.334705 2.19878e-19)
(1.34928 0.352972 9.84889e-20)
(1.31167 0.357357 1.25831e-19)
(1.25264 0.3556 0)
(1.19324 0.35194 1.04377e-19)
(1.13358 0.345478 1.90677e-19)
(1.07333 0.334483 1.63354e-19)
(1.01298 0.317003 2.9193e-19)
(0.961119 0.294392 0)
(0.923384 0.27131 -3.56598e-19)
(0.896577 0.249469 -2.13459e-19)
(0.873968 0.228307 -1.25741e-19)
(0.836561 0.205372 7.67812e-19)
(0.744326 0.174323 9.12944e-20)
(0.565184 0.128345 4.28078e-19)
(0.34083 0.0775512 -2.01195e-18)
(0.141758 0.0325211 1.19661e-18)
(0.0150476 0.00364539 -1.42036e-18)
(0.248393 0.075998 -1.15741e-19)
(1.13436 0.337087 2.93618e-20)
(1.32095 0.398922 -2.81667e-20)
(1.35075 0.417929 -1.14012e-19)
(1.31106 0.418647 -1.1463e-19)
(1.25034 0.41287 3.49858e-21)
(1.18855 0.405387 -1.12795e-19)
(1.12586 0.395171 1.98706e-19)
(1.06206 0.38029 -3.51436e-19)
(0.997568 0.358559 0)
(0.941623 0.331823 -1.62425e-19)
(0.900089 0.305437 -3.21887e-21)
(0.869548 0.281332 -2.32976e-19)
(0.843764 0.259042 0)
(0.806428 0.235499 -1.66106e-19)
(0.722702 0.203314 -3.94827e-19)
(0.558919 0.153882 1.05227e-18)
(0.349406 0.0967116 -1.03092e-18)
(0.153987 0.0431472 1.46497e-18)
(0.0191412 0.00559812 -1.49918e-18)
(0.242649 0.086096 -7.9664e-22)
(1.12918 0.390752 -2.3036e-20)
(1.31871 0.461289 -1.00303e-19)
(1.34709 0.481258 5.21808e-20)
(1.30611 0.478904 -5.88808e-20)
(1.24443 0.469558 0)
(1.18085 0.458514 -1.08478e-19)
(1.11566 0.444651 -2.08934e-19)
(1.04872 0.425859 -1.83606e-19)
(0.980527 0.399807 0)
(0.920916 0.368964 -1.69251e-19)
(0.876259 0.339441 -2.07201e-19)
(0.843016 0.313341 2.52156e-19)
(0.815357 0.290053 -1.52221e-19)
(0.778701 0.266088 -7.22624e-19)
(0.700935 0.232705 4.31198e-19)
(0.550988 0.179966 1.28806e-19)
(0.353943 0.116104 0)
(0.162355 0.0538366 -1.41273e-18)
(0.02221 0.00759294 -5.09851e-20)
(0.238349 0.0957928 -1.04854e-20)
(1.12118 0.441659 1.93429e-20)
(1.3129 0.521764 5.10895e-20)
(1.3397 0.542244 1.76816e-19)
(1.29784 0.537421 -2.29091e-19)
(1.23566 0.524981 2.36749e-19)
(1.17072 0.510672 2.32993e-19)
(1.1034 0.493328 -3.33926e-19)
(1.03366 0.470715 1.10562e-19)
(0.962121 0.440429 -7.17359e-19)
(0.89926 0.405596 -1.89901e-19)
(0.852036 0.373049 0)
(0.816882 0.344983 2.72694e-19)
(0.788096 0.320502 3.24977e-19)
(0.752266 0.295664 3.87834e-19)
(0.679475 0.260548 -4.66507e-19)
(0.540303 0.204807 -1.37577e-19)
(0.353214 0.134235 1.61502e-19)
(0.165567 0.0633665 0)
(0.0238626 0.00928901 -1.10274e-19)
(0.235301 0.105234 6.91645e-20)
(1.11189 0.489956 -6.05884e-20)
(1.30464 0.579577 -5.12603e-20)
(1.32969 0.60055 1.15462e-19)
(1.28713 0.593736 -1.10344e-19)
(1.22471 0.57863 -8.04261e-21)
(1.15869 0.56138 -2.52933e-19)
(1.08952 0.54078 -1.20365e-19)
(1.01726 0.514522 -3.17994e-19)
(0.942678 0.480185 5.06169e-22)
(0.876891 0.441486 -5.95832e-19)
(0.827523 0.405943 4.95386e-19)
(0.790965 0.375801 -2.97952e-19)
(0.761482 0.349888 3.56146e-19)
(0.726347 0.323791 0)
(0.65739 0.286777 -2.51738e-19)
(0.526718 0.227526 -1.36847e-21)
(0.347356 0.150013 -7.00412e-19)
(0.164031 0.0708926 -1.02447e-19)
(0.0241796 0.0104899 0)
(0.233332 0.114527 0)
(1.10213 0.535873 -5.80494e-20)
(1.29469 0.634353 -8.70975e-20)
(1.31791 0.656049 -1.1397e-19)
(1.2747 0.647564 -1.30514e-19)
(1.21217 0.630175 0)
(1.14527 0.610298 -1.19545e-19)
(1.07447 0.586707 -2.30031e-21)
(0.999906 0.557063 6.80389e-19)
(0.922516 0.518911 -9.89472e-20)
(0.854027 0.47646 -4.29142e-19)
(0.802788 0.437881 2.58432e-19)
(0.765141 0.405461 -4.09681e-21)
(0.735247 0.377889 3.78456e-19)
(0.700722 0.350145 2.32108e-19)
(0.634631 0.31063 -5.42737e-19)
(0.510041 0.247304 6.4242e-19)
(0.336485 0.162626 1.89124e-19)
(0.158359 0.0759167 7.7582e-19)
(0.0231859 0.0110375 -2.04965e-18)
(0.23233 0.123817 8.2846e-22)
(1.09245 0.579544 -1.54968e-20)
(1.28403 0.68627 2.25476e-20)
(1.30496 0.7087 1.05508e-19)
(1.26116 0.698755 0)
(1.19855 0.679405 -1.1857e-19)
(1.13088 0.65721 3.95812e-19)
(1.05862 0.63092 2.6515e-19)
(0.981948 0.59819 0)
(0.901912 0.5565 -1.41512e-18)
(0.830852 0.510414 1.15661e-18)
(0.777854 0.468725 0)
(0.739268 0.433804 3.46027e-19)
(0.709079 0.40424 -4.04117e-21)
(0.675021 0.374476 -7.39968e-19)
(0.61091 0.33194 2.8955e-19)
(0.490442 0.263601 0)
(0.321542 0.17174 1.0189e-18)
(0.14911 0.0785165 0)
(0.0212215 0.0109903 -9.66453e-19)
(0.232097 0.133126 5.54746e-21)
(1.08325 0.621043 -1.19809e-21)
(1.27269 0.735384 2.74326e-20)
(1.29135 0.758506 0)
(1.24697 0.747272 -1.23972e-19)
(1.18426 0.726235 0)
(1.11592 0.701996 -3.98178e-19)
(1.04233 0.673307 -1.26659e-19)
(0.963697 0.637824 1.21262e-19)
(0.881122 0.592902 -6.98988e-19)
(0.807503 0.543325 1.19859e-19)
(0.752736 0.498441 0)
(0.71323 0.460789 -7.38215e-19)
(0.682774 0.428911 4.10827e-21)
(0.648989 0.396717 0)
(0.586023 0.350592 4.25847e-21)
(0.468141 0.276429 9.31155e-19)
(0.30299 0.177145 -8.79394e-19)
(0.137164 0.078705 2.57826e-19)
(0.0186115 0.010435 0)
(0.232264 0.14234 0)
(1.07462 0.660524 1.08012e-20)
(1.26102 0.781864 -1.10125e-20)
(1.27746 0.805496 -4.64845e-21)
(1.23247 0.793132 -5.2236e-20)
(1.16966 0.770637 -2.65848e-19)
(1.1007 0.74461 1.46835e-19)
(1.02589 0.713819 -1.46016e-19)
(0.945424 0.675917 5.36165e-19)
(0.860355 0.628102 -1.11488e-18)
(0.784106 0.575213 -6.93161e-21)
(0.727442 0.527064 -3.25867e-19)
(0.686934 0.486444 1.19441e-18)
(0.656173 0.451942 -4.81206e-21)
(0.622449 0.416899 -5.7155e-19)
(0.559864 0.366514 -1.02013e-18)
(0.443429 0.285783 0)
(0.281481 0.179013 0)
(0.123147 0.0765347 2.78719e-19)
(0.0156249 0.00939422 -1.60651e-19)
(0.232934 0.151576 2.18868e-20)
(1.06651 0.697854 -3.78986e-20)
(1.24929 0.825775 1.10129e-20)
(1.26354 0.849767 0)
(1.21793 0.83639 -3.09379e-21)
(1.15499 0.812626 -2.56631e-19)
(1.08549 0.785051 3.63258e-19)
(1.00956 0.752445 5.83784e-19)
(0.927356 0.712465 6.98689e-19)
(0.839813 0.662114 -9.11232e-19)
(0.760808 0.606147 -9.8809e-19)
(0.702023 0.554707 8.70388e-19)
(0.66034 0.510879 0)
(0.629167 0.473398 -2.59677e-19)
(0.59531 0.435039 -6.17554e-19)
(0.532458 0.379667 -7.31539e-19)
(0.416375 0.291506 -8.67418e-19)
(0.257621 0.177355 2.55772e-19)
(0.107573 0.0720564 -1.49807e-19)
(0.0123171 0.00791328 5.78257e-22)
(0.233696 0.160666 0)
(1.05903 0.733539 0)
(1.23766 0.867232 5.08149e-21)
(1.24975 0.891432 0)
(1.20354 0.877138 1.48502e-19)
(1.14048 0.852261 1.85322e-19)
(1.07049 0.823345 0)
(0.993538 0.789197 7.09421e-20)
(0.90969 0.747469 1.16782e-18)
(0.819689 0.694961 -2.09016e-18)
(0.73777 0.636214 0)
(0.676567 0.581525 -5.58541e-19)
(0.633406 0.534243 -5.84226e-21)
(0.601637 0.493364 -4.74365e-21)
(0.567465 0.4511 6.59056e-19)
(0.503816 0.389895 -7.61811e-22)
(0.387126 0.293476 -1.8651e-18)
(0.231688 0.172109 5.49888e-19)
(0.0913855 0.0657338 1.6178e-19)
(0.00902303 0.00617425 0)
(0.234445 0.169589 -1.22981e-19)
(1.05189 0.767555 -4.70167e-20)
(1.22617 0.906277 -2.45556e-20)
(1.23623 0.930602 -9.25806e-20)
(1.18947 0.915451 2.31851e-19)
(1.12628 0.889608 0)
(1.05585 0.859544 2.25662e-19)
(0.977979 0.824107 -1.56074e-19)
(0.892586 0.780952 7.69e-21)
(0.80016 0.726678 1.52848e-19)
(0.715154 0.665502 1.27529e-18)
(0.651161 0.607691 -1.96012e-19)
(0.606097 0.556752 -7.32547e-19)
(0.573422 0.51195 -3.01386e-19)
(0.538743 0.464966 3.58008e-19)
(0.473967 0.396898 -4.24665e-22)
(0.356457 0.291532 5.0244e-19)
(0.204881 0.163643 -1.18177e-18)
(0.0752799 0.0580167 1.39113e-18)
(0.00589581 0.00430749 1.99723e-19)
(0.235008 0.178218 5.19187e-20)
(1.04508 0.799986 -3.02279e-20)
(1.21491 0.943027 1.20071e-20)
(1.22305 0.967395 -2.52985e-20)
(1.17579 0.951441 -3.60796e-20)
(1.1125 0.924745 -3.32545e-19)
(1.0417 0.893705 6.95748e-20)
(0.963009 0.857202 -6.52511e-19)
(0.876179 0.812918 -1.28844e-18)
(0.781366 0.757271 -1.24411e-18)
(0.693115 0.694083 0)
(0.625921 0.633379 -8.55142e-19)
(0.578428 0.578676 1.05207e-18)
(0.544315 0.529329 0)
(0.508841 0.47646 -7.65378e-19)
(0.442887 0.400175 4.57332e-19)
(0.324924 0.285307 -5.39206e-19)
(0.178377 0.152241 -6.35738e-19)
(0.0601658 0.0494533 -1.11978e-18)
(0.00311964 0.00246862 -8.59945e-19)
(0.235854 0.186676 -6.36009e-20)
(1.03847 0.830799 3.24056e-20)
(1.20392 0.977557 6.44596e-20)
(1.21028 1.00189 -1.59464e-20)
(1.1626 0.9852 8.38006e-20)
(1.09923 0.957762 -1.9182e-19)
(1.02813 0.925886 2.28307e-19)
(0.948715 0.888532 -6.74126e-19)
(0.860555 0.843394 -7.62539e-19)
(0.76343 0.786755 1.30125e-18)
(0.671805 0.722014 2.78998e-18)
(0.601017 0.658755 0)
(0.550448 0.600315 0)
(0.514062 0.545813 -3.46028e-19)
(0.477202 0.485432 0)
(0.410262 0.398834 9.83517e-19)
(0.293341 0.273864 1.15988e-18)
(0.153962 0.137894 0)
(0.047356 0.0406324 0)
(0.000870974 0.00084518 9.23655e-19)
(0.23631 0.194653 7.80544e-20)
(1.03206 0.859982 6.28544e-20)
(1.19325 1.00998 4.96258e-20)
(1.19796 1.03423 -9.89733e-21)
(1.14993 1.01683 7.44787e-20)
(1.08652 0.98874 2.14331e-19)
(1.01519 0.956156 -3.15493e-19)
(0.935159 0.918132 1.87981e-22)
(0.845791 0.872389 -9.92172e-21)
(0.746447 0.815125 -1.09715e-20)
(0.651396 0.74933 1.43402e-18)
(0.576631 0.683943 0)
(0.522295 0.621979 1.05779e-18)
(0.482457 0.56187 7.36289e-19)
(0.442958 0.492048 1.78022e-18)
(0.375074 0.391801 5.28306e-19)
(0.262293 0.255004 -6.25091e-19)
(0.135075 0.118706 -3.65961e-19)
(0.0413411 0.0309543 0)
(0.000453927 -9.80279e-05 9.91694e-19)
(0.23702 0.202609 -1.86859e-19)
(1.02583 0.887626 0)
(1.18287 1.04035 7.1689e-20)
(1.18609 1.06448 -1.82031e-20)
(1.13782 1.04644 -5.63789e-20)
(1.07439 1.01777 -2.5863e-19)
(1.00292 0.984577 6.28185e-19)
(0.922378 0.946044 -5.39213e-20)
(0.831927 0.899917 0)
(0.730497 0.842355 -1.43419e-18)
(0.632039 0.776032 -3.11181e-18)
(0.552978 0.70904 1.25553e-19)
(0.494221 0.643936 1.45102e-18)
(0.449461 0.578106 0)
(0.40509 0.497102 1.19727e-18)
(0.335004 0.378676 0)
(0.229561 0.224878 0)
(0.124804 0.0837982 -3.9623e-19)
(0.0615316 0.00939295 0)
(0.0259177 0.0101802 2.65521e-19)
(0.237328 0.209927 -2.18579e-19)
(1.01976 0.914074 0)
(1.17279 1.06886 1.29945e-19)
(1.17464 1.09287 0)
(1.12621 1.07426 1.97097e-20)
(1.06279 1.04513 0)
(0.991263 1.01147 3.37806e-20)
(0.910276 0.972613 9.25197e-20)
(0.81885 0.92635 9.47891e-20)
(0.715431 0.868839 -1.57091e-18)
(0.613592 0.802561 9.37386e-20)
(0.529896 0.73463 1.00306e-18)
(0.465974 0.666832 1.4105e-18)
(0.414483 0.595455 1.89414e-19)
(0.361916 0.502402 9.3448e-19)
(0.285698 0.361287 0)
(0.184104 0.18281 1.31796e-18)
(0.0951428 0.0254364 -7.67231e-19)
(0.0427015 0.0461051 8.81287e-19)
(-0.0596313 0.426854 -1.04647e-18)
(0.237581 0.217014 1.86708e-19)
(1.01358 0.939112 2.78747e-19)
(1.16291 1.09583 0)
(1.16345 1.11983 1.0119e-20)
(1.11493 1.10089 -3.10807e-20)
(1.05146 1.07152 3.82454e-19)
(0.97991 1.03762 2.26327e-19)
(0.898463 0.998784 0)
(0.80605 0.952785 6.37357e-19)
(0.700599 0.895881 -8.30272e-20)
(0.595175 0.830382 0)
(0.506261 0.762485 0)
(0.436106 0.692433 1.25939e-18)
(0.375897 0.615446 -5.83368e-19)
(0.310622 0.510871 -9.42695e-19)
(0.222602 0.344996 0)
(0.10576 0.170197 6.56391e-19)
(0.00973975 0.437356 -7.54404e-19)
(0.0344708 1.87591 -4.17915e-19)
(0.0660989 2.80044 -5.50092e-19)
(0.23759 0.223304 -1.46108e-19)
(1.00742 0.962896 -3.69513e-19)
(1.15325 1.12125 8.45996e-20)
(1.15253 1.14522 4.75592e-20)
(1.10402 1.1261 0)
(1.04046 1.09664 2.42449e-19)
(0.969053 1.06274 3.21963e-19)
(0.887116 1.02413 -4.55594e-20)
(0.793784 0.978703 9.4445e-20)
(0.686372 0.922867 1.49973e-18)
(0.577381 0.858803 1.56741e-18)
(0.483058 0.792215 1.11849e-18)
(0.405659 0.720433 1.26126e-18)
(0.335677 0.63673 -1.36033e-18)
(0.257409 0.525394 -1.41639e-18)
(0.146508 0.37323 0)
(0.0524563 0.830106 0)
(0.105707 2.54242 3.63466e-19)
(0.108561 3.19379 0)
(0.110936 3.3847 8.15238e-19)
(0.240618 0.229078 0)
(1.00184 0.98566 0)
(1.14355 1.14497 0)
(1.14163 1.16883 1.85413e-20)
(1.09315 1.14964 -1.80061e-20)
(1.02955 1.12035 1.48939e-19)
(0.958593 1.0867 2.11511e-19)
(0.876178 1.04853 -4.49084e-20)
(0.782004 1.00395 8.03257e-19)
(0.672764 0.949648 -1.95139e-20)
(0.560333 0.887677 3.09534e-18)
(0.460684 0.823706 -1.28023e-19)
(0.375001 0.751554 1.52777e-19)
(0.296111 0.656616 1.95275e-19)
(0.19718 0.546678 -1.69147e-21)
(0.113005 0.962421 3.49412e-21)
(0.148506 2.69941 -1.88377e-18)
(0.158487 3.28815 -7.11665e-19)
(0.145976 3.42569 3.63298e-19)
(0.131664 3.4485 -4.00591e-19)
(0.159502 0.18036 8.7955e-20)
(0.991695 1.01032 0)
(1.13361 1.16723 -1.90462e-19)
(1.13122 1.19102 -1.52265e-19)
(1.08299 1.1722 2.68226e-20)
(1.01956 1.14324 -1.45028e-19)
(0.948376 1.1096 -2.22382e-19)
(0.865721 1.07208 5.20934e-19)
(0.770873 1.02863 -6.59395e-19)
(0.660083 0.976305 0)
(0.544454 0.917095 1.51991e-18)
(0.439699 0.856703 -9.0863e-19)
(0.344692 0.788784 0)
(0.255587 0.679553 1.75292e-19)
(0.163487 0.8131 4.24941e-19)
(0.163742 2.46201 -5.12163e-19)
(0.224791 3.32212 5.68345e-19)
(0.203129 3.44121 3.11773e-19)
(0.168113 3.46301 3.48915e-19)
(0.145371 3.47331 5.68166e-19)
(0.280982 0.26795 -1.51781e-19)
(0.975985 1.02021 0)
(1.1158 1.19248 2.20464e-19)
(1.11672 1.22363 1.98642e-19)
(1.06688 1.2056 -7.28731e-20)
(1.00289 1.17718 9.38836e-20)
(0.930764 1.14495 2.46508e-19)
(0.847461 1.10859 4.04125e-20)
(0.751296 1.06719 6.41748e-19)
(0.637853 1.01854 1.30817e-18)
(0.517295 0.965212 8.687e-20)
(0.40452 0.911995 8.09891e-19)
(0.291999 0.851849 1.42625e-19)
(0.221953 0.978393 -1.77637e-19)
(0.236873 2.31255 -4.0375e-19)
(0.298626 3.32705 3.87916e-19)
(0.283153 3.4735 -4.4308e-19)
(0.246528 3.49521 -2.59346e-19)
(0.208657 3.52235 -2.19386e-19)
(0.156748 3.51514 -2.10543e-20)
(0.270094 0.265423 0)
(0.973947 1.04315 7.31544e-20)
(1.10796 1.21584 -4.87314e-20)
(1.10693 1.24693 -2.71635e-20)
(1.05673 1.22875 -6.98219e-20)
(0.992797 1.2006 -7.88063e-20)
(0.920339 1.16858 -1.42207e-19)
(0.836883 1.133 3.69958e-20)
(0.740312 1.09301 -6.7535e-19)
(0.625823 1.04703 -2.82838e-20)
(0.503005 0.998242 -2.76945e-18)
(0.386539 0.950559 1.14969e-19)
(0.280194 0.920306 -1.34615e-19)
(0.260926 1.48216 -1.66308e-19)
(0.336103 3.08782 3.44441e-20)
(0.359509 3.47201 2.09405e-21)
(0.317513 3.52997 6.75053e-19)
(0.279661 3.55466 3.38774e-19)
(0.230331 3.57778 -9.90393e-20)
(0.171325 3.57297 -1.06426e-19)
(0.254129 0.263248 1.92806e-19)
(0.97042 1.06861 5.11981e-19)
(1.09964 1.2413 -1.41899e-19)
(1.09659 1.27166 -1.03123e-19)
(1.04612 1.25328 0)
(0.9823 1.22518 -4.27663e-20)
(0.909778 1.19342 -1.76073e-19)
(0.826442 1.15859 3.33618e-20)
(0.729788 1.12008 -7.46122e-20)
(0.614779 1.07698 -1.20348e-18)
(0.490523 1.03308 -1.28667e-18)
(0.372159 0.992028 -9.52973e-19)
(0.282951 1.04914 -1.01782e-18)
(0.328881 2.16844 1.04586e-18)
(0.42243 3.37853 8.715e-19)
(0.403917 3.53297 0)
(0.356165 3.57625 0)
(0.317636 3.61667 -8.21774e-20)
(0.264853 3.67644 0)
(0.183189 3.65095 -1.01631e-19)
(0.243373 0.264893 -2.9995e-19)
(0.964739 1.09495 -4.4925e-19)
(1.08994 1.26796 0)
(1.085 1.29723 1.2001e-20)
(1.03434 1.27845 -1.12793e-19)
(0.970738 1.25027 -1.11616e-20)
(0.898471 1.21876 -9.52589e-20)
(0.815466 1.18459 2.32188e-20)
(0.718974 1.14749 -4.96743e-19)
(0.60385 1.10722 6.18509e-20)
(0.478962 1.06834 0)
(0.361737 1.03692 0)