0.490941 	1.42033 	0.00574936 	3.00061 	-4.37315e-20
0.561075 	1.42033 	0.00574936 	3.00061 	-4.37315e-20
0.63121 	1.42033 	0.00574936 	3.00061 	-4.37315e-20
0.701344 	1.42033 	0.00574936 	3.00061 	-4.37315e-20
0.771478 	1.42033 	0.00574936 	3.00061 	-4.37315e-20
0.841613 	1.42033 	0.00574936 	3.00061 	-4.37315e-20
0.911747 	1.42033 	0.00574936 	3.00061 	-4.37315e-20
0.981881 	1.42033 	0.00574936 	3.00061 	-4.37315e-20
1.05202 	1.42033 	0.00574936 	3.00061 	-4.37315e-20
1.12215 	1.42033 	0.00574936 	3.00061 	-4.37315e-20
1.19228 	1.42033 	0.00574936 	3.00061 	-4.37315e-20
1.26242 	1.42033 	0.00574936 	3.00061 	-4.37315e-20
1.33255 	1.38113 	0.0136508 	3.01436 	-4.41932e-20
1.40269 	1.38113 	0.0136508 	3.01436 	-4.41932e-20
1.47282 	1.38113 	0.0136508 	3.01436 	-4.41932e-20
1.54296 	1.38113 	0.0136508 	3.01436 	-4.41932e-20
1.61309 	1.38113 	0.0136508 	3.01436 	-4.41932e-20
1.68323 	1.38113 	0.0136508 	3.01436 	-4.41932e-20
1.75336 	1.38113 	0.0136508 	3.01436 	-4.41932e-20
1.82349 	1.38113 	0.0136508 	3.01436 	-4.41932e-20
1.89363 	1.38113 	0.0136508 	3.01436 	-4.41932e-20
1.96376 	1.38113 	0.0136508 	3.01436 	-4.41932e-20
2.0339 	1.38113 	0.0136508 	3.01436 	-4.41932e-20
2.10403 	1.38113 	0.0136508 	3.01436 	-4.41932e-20
2.17417 	1.32129 	0.0155273 	3.03115 	9.2801e-20
2.2443 	1.32129 	0.0155273 	3.03115 	9.2801e-20
2.31443 	1.32129 	0.0155273 	3.03115 	9.2801e-20
2.38457 	1.32129 	0.0155273 	3.03115 	9.2801e-20
2.4547 	1.32129 	0.0155273 	3.03115 	9.2801e-20
2.52484 	1.32129 	0.0155273 	3.03115 	9.2801e-20
2.59497 	1.32129 	0.0155273 	3.03115 	9.2801e-20
2.66511 	1.32129 	0.0155273 	3.03115 	9.2801e-20
2.73524 	1.32129 	0.0155273 	3.03115 	9.2801e-20
2.80538 	1.32129 	0.0155273 	3.03115 	9.2801e-20
2.87551 	1.32129 	0.0155273 	3.03115 	9.2801e-20
2.94564 	1.32129 	0.0155273 	3.03115 	9.2801e-20
3.01578 	1.2474 	0.0150068 	3.05878 	-1.06077e-20
3.08591 	1.2474 	0.0150068 	3.05878 	-1.06077e-20
3.15605 	1.2474 	0.0150068 	3.05878 	-1.06077e-20
3.22618 	1.2474 	0.0150068 	3.05878 	-1.06077e-20
3.29632 	1.2474 	0.0150068 	3.05878 	-1.06077e-20
3.36645 	1.2474 	0.0150068 	3.05878 	-1.06077e-20
3.43659 	1.2474 	0.0150068 	3.05878 	-1.06077e-20
3.50672 	1.2474 	0.0150068 	3.05878 	-1.06077e-20
3.57685 	1.2474 	0.0150068 	3.05878 	-1.06077e-20
3.64699 	1.2474 	0.0150068 	3.05878 	-1.06077e-20
3.71712 	1.2474 	0.0150068 	3.05878 	-1.06077e-20
3.78726 	1.24053 	0.00613283 	3.0538 	2.08006e-20
3.85739 	1.16084 	-0.00011197 	3.0837 	-1.49923e-19
3.92753 	1.16084 	-0.00011197 	3.0837 	-1.49923e-19
3.99766 	1.16084 	-0.00011197 	3.0837 	-1.49923e-19
4.06779 	1.16084 	-0.00011197 	3.0837 	-1.49923e-19
4.13793 	1.16084 	-0.00011197 	3.0837 	-1.49923e-19
4.20806 	1.16084 	-0.00011197 	3.0837 	-1.49923e-19
4.2782 	1.16084 	-0.00011197 	3.0837 	-1.49923e-19
4.34833 	1.16084 	-0.00011197 	3.0837 	-1.49923e-19
4.41847 	1.16084 	-0.00011197 	3.0837 	-1.49923e-19
4.4886 	1.16084 	-0.00011197 	3.0837 	-1.49923e-19
4.55874 	1.16084 	-0.00011197 	3.0837 	-1.49923e-19
4.62887 	1.16084 	-0.00011197 	3.0837 	-1.49923e-19
4.699 	1.16084 	-0.00011197 	3.0837 	-1.49923e-19
4.76914 	1.08129 	0.00590193 	3.10627 	2.89441e-19
4.83927 	1.08129 	0.00590193 	3.10627 	2.89441e-19
4.90941 	1.08129 	0.00590193 	3.10627 	2.89441e-19
4.97954 	1.08129 	0.00590193 	3.10627 	2.89441e-19
5.04968 	1.08129 	0.00590193 	3.10627 	2.89441e-19
5.11981 	1.08129 	0.00590193 	3.10627 	2.89441e-19
5.18994 	1.08129 	0.00590193 	3.10627 	2.89441e-19
5.26008 	1.08129 	0.00590193 	3.10627 	2.89441e-19
5.33021 	1.08129 	0.00590193 	3.10627 	2.89441e-19
5.40035 	1.08129 	0.00590193 	3.10627 	2.89441e-19
5.47048 	1.08129 	0.00590193 	3.10627 	2.89441e-19
5.54062 	1.08129 	0.00590193 	3.10627 	2.89441e-19
5.61075 	1.00644 	-0.00249809 	3.13327 	-1.39279e-19
5.68089 	1.00644 	-0.00249809 	3.13327 	-1.39279e-19
5.75102 	1.00644 	-0.00249809 	3.13327 	-1.39279e-19
5.82115 	1.00644 	-0.00249809 	3.13327 	-1.39279e-19
5.89129 	1.00644 	-0.00249809 	3.13327 	-1.39279e-19
5.96142 	1.00644 	-0.00249809 	3.13327 	-1.39279e-19
6.03156 	1.00644 	-0.00249809 	3.13327 	-1.39279e-19
6.10169 	1.00644 	-0.00249809 	3.13327 	-1.39279e-19
6.17183 	1.00644 	-0.00249809 	3.13327 	-1.39279e-19
6.24196 	1.00644 	-0.00249809 	3.13327 	-1.39279e-19
6.3121 	1.00644 	-0.00249809 	3.13327 	-1.39279e-19
6.38223 	1.00644 	-0.00249809 	3.13327 	-1.39279e-19
6.45236 	0.934338 	0.00628835 	3.15336 	0
6.5225 	0.934338 	0.00628835 	3.15336 	0
6.59263 	0.934338 	0.00628835 	3.15336 	0
6.66277 	0.934338 	0.00628835 	3.15336 	0
6.7329 	0.934338 	0.00628835 	3.15336 	0
6.80304 	0.934338 	0.00628835 	3.15336 	0
6.87317 	0.934338 	0.00628835 	3.15336 	0
6.9433 	0.934338 	0.00628835 	3.15336 	0
7.01344 	0.934338 	0.00628835 	3.15336 	0
7.08357 	0.934338 	0.00628835 	3.15336 	0
7.15371 	0.934338 	0.00628835 	3.15336 	0
7.22384 	0.934338 	0.00628835 	3.15336 	0
7.29398 	0.866378 	0.000512089 	3.1789 	0
7.36411 	0.866378 	0.000512089 	3.1789 	0
7.43425 	0.866378 	0.000512089 	3.1789 	0
7.50438 	0.866378 	0.000512089 	3.1789 	0
7.57451 	0.866378 	0.000512089 	3.1789 	0
7.64465 	0.866378 	0.000512089 	3.1789 	0
7.71478 	0.866378 	0.000512089 	3.1789 	0
7.78492 	0.866378 	0.000512089 	3.1789 	0
7.85505 	0.866378 	0.000512089 	3.1789 	0
7.92519 	0.866378 	0.000512089 	3.1789 	0
7.99532 	0.866378 	0.000512089 	3.1789 	0
8.06545 	0.866378 	0.000512089 	3.1789 	0
8.13559 	0.866378 	0.000512089 	3.1789 	0
8.20572 	0.801043 	0.0107144 	3.19472 	3.88772e-22
8.27586 	0.801043 	0.0107144 	3.19472 	3.88772e-22
8.34599 	0.801043 	0.0107144 	3.19472 	3.88772e-22
8.41613 	0.801043 	0.0107144 	3.19472 	3.88772e-22
8.48626 	0.801043 	0.0107144 	3.19472 	3.88772e-22
8.5564 	0.801043 	0.0107144 	3.19472 	3.88772e-22
8.62653 	0.801043 	0.0107144 	3.19472 	3.88772e-22
8.69666 	0.801043 	0.0107144 	3.19472 	3.88772e-22
8.7668 	0.801043 	0.0107144 	3.19472 	3.88772e-22
8.83693 	0.801043 	0.0107144 	3.19472 	3.88772e-22
8.90707 	0.801043 	0.0107144 	3.19472 	3.88772e-22
8.9772 	0.801043 	0.0107144 	3.19472 	3.88772e-22
9.04734 	0.734713 	0.00670633 	3.21963 	1.86874e-19
9.11747 	0.734713 	0.00670633 	3.21963 	1.86874e-19
9.18761 	0.734713 	0.00670633 	3.21963 	1.86874e-19
9.25774 	0.734713 	0.00670633 	3.21963 	1.86874e-19
9.32787 	0.734713 	0.00670633 	3.21963 	1.86874e-19
9.39801 	0.734713 	0.00670633 	3.21963 	1.86874e-19
9.46814 	0.734713 	0.00670633 	3.21963 	1.86874e-19
9.53828 	0.734713 	0.00670633 	3.21963 	1.86874e-19
9.60841 	0.734713 	0.00670633 	3.21963 	1.86874e-19
9.67855 	0.734713 	0.00670633 	3.21963 	1.86874e-19
9.74868 	0.734713 	0.00670633 	3.21963 	1.86874e-19
9.81881 	0.734713 	0.00670633 	3.21963 	1.86874e-19
9.88895 	0.734713 	0.00670633 	3.21963 	1.86874e-19
9.95908 	0.665232 	0.0241553 	3.23733 	-8.09826e-21
10.0292 	0.665232 	0.0241553 	3.23733 	-8.09826e-21
10.0994 	0.665232 	0.0241553 	3.23733 	-8.09826e-21
10.1695 	0.665232 	0.0241553 	3.23733 	-8.09826e-21
10.2396 	0.665232 	0.0241553 	3.23733 	-8.09826e-21
10.3098 	0.665232 	0.0241553 	3.23733 	-8.09826e-21
10.3799 	0.665232 	0.0241553 	3.23733 	-8.09826e-21
10.45 	0.665232 	0.0241553 	3.23733 	-8.09826e-21
10.5202 	0.665232 	0.0241553 	3.23733 	-8.09826e-21
10.5903 	0.665232 	0.0241553 	3.23733 	-8.09826e-21
10.6604 	0.665232 	0.0241553 	3.23733 	-8.09826e-21
10.7306 	0.665232 	0.0241553 	3.23733 	-8.09826e-21
10.8007 	0.594 	0.0341886 	3.26378 	-1.76451e-19
10.8708 	0.594 	0.0341886 	3.26378 	-1.76451e-19
10.941 	0.594 	0.0341886 	3.26378 	-1.76451e-19
11.0111 	0.594 	0.0341886 	3.26378 	-1.76451e-19
11.0812 	0.594 	0.0341886 	3.26378 	-1.76451e-19
11.1514 	0.594 	0.0341886 	3.26378 	-1.76451e-19
11.2215 	0.594 	0.0341886 	3.26378 	-1.76451e-19
11.2916 	0.594 	0.0341886 	3.26378 	-1.76451e-19
11.3618 	0.594 	0.0341886 	3.26378 	-1.76451e-19
11.4319 	0.594 	0.0341886 	3.26378 	-1.76451e-19
11.502 	0.594 	0.0341886 	3.26378 	-1.76451e-19
11.5722 	0.594 	0.0341886 	3.26378 	-1.76451e-19
11.6423 	0.594 	0.0341886 	3.26378 	-1.76451e-19
11.7124 	0.51352 	0.0737017 	3.28448 	-2.38873e-19
11.7826 	0.51352 	0.0737017 	3.28448 	-2.38873e-19
11.8527 	0.51352 	0.0737017 	3.28448 	-2.38873e-19
11.9228 	0.51352 	0.0737017 	3.28448 	-2.38873e-19
11.993 	0.51352 	0.0737017 	3.28448 	-2.38873e-19
12.0631 	0.51352 	0.0737017 	3.28448 	-2.38873e-19
12.1332 	0.51352 	0.0737017 	3.28448 	-2.38873e-19
12.2034 	0.51352 	0.0737017 	3.28448 	-2.38873e-19
12.2735 	0.51352 	0.0737017 	3.28448 	-2.38873e-19
12.3437 	0.51352 	0.0737017 	3.28448 	-2.38873e-19
12.4138 	0.51352 	0.0737017 	3.28448 	-2.38873e-19
12.4839 	0.51352 	0.0737017 	3.28448 	-2.38873e-19
12.5541 	0.51352 	0.0737017 	3.28448 	-2.38873e-19
12.6242 	0.415385 	0.106373 	3.31571 	4.28692e-19
12.6943 	0.415385 	0.106373 	3.31571 	4.28692e-19
12.7645 	0.415385 	0.106373 	3.31571 	4.28692e-19
12.8346 	0.415385 	0.106373 	3.31571 	4.28692e-19
12.9047 	0.415385 	0.106373 	3.31571 	4.28692e-19
12.9749 	0.415385 	0.106373 	3.31571 	4.28692e-19
13.045 	0.415385 	0.106373 	3.31571 	4.28692e-19
13.1151 	0.415385 	0.106373 	3.31571 	4.28692e-19
13.1853 	0.415385 	0.106373 	3.31571 	4.28692e-19
13.2554 	0.415385 	0.106373 	3.31571 	4.28692e-19
13.3255 	0.415385 	0.106373 	3.31571 	4.28692e-19
13.3957 	0.415385 	0.106373 	3.31571 	4.28692e-19
13.4658 	0.415385 	0.106373 	3.31571 	4.28692e-19
13.5359 	0.277567 	0.197495 	3.35796 	-1.87667e-19
13.6061 	0.277567 	0.197495 	3.35796 	-1.87667e-19
13.6762 	0.277567 	0.197495 	3.35796 	-1.87667e-19
13.7463 	0.277567 	0.197495 	3.35796 	-1.87667e-19
13.8165 	0.277567 	0.197495 	3.35796 	-1.87667e-19
13.8866 	0.277567 	0.197495 	3.35796 	-1.87667e-19
13.9567 	0.277567 	0.197495 	3.35796 	-1.87667e-19
14.0269 	0.277567 	0.197495 	3.35796 	-1.87667e-19
14.097 	0.277567 	0.197495 	3.35796 	-1.87667e-19
14.1671 	0.277567 	0.197495 	3.35796 	-1.87667e-19
14.2373 	0.277567 	0.197495 	3.35796 	-1.87667e-19
14.3074 	0.277567 	0.197495 	3.35796 	-1.87667e-19
14.3776 	0.142556 	0.226194 	3.38822 	0
14.4477 	-0.0998952 	0.22346 	3.45615 	-8.65077e-20
14.5178 	-0.0998952 	0.22346 	3.45615 	-8.65077e-20
14.588 	-0.0998952 	0.22346 	3.45615 	-8.65077e-20
14.6581 	-0.0998952 	0.22346 	3.45615 	-8.65077e-20
14.7282 	-0.0998952 	0.22346 	3.45615 	-8.65077e-20
14.7984 	-0.0998952 	0.22346 	3.45615 	-8.65077e-20
14.8685 	-0.0770247 	0.252222 	3.44729 	1.70595e-19
14.9386 	-0.0770247 	0.252222 	3.44729 	1.70595e-19
15.0088 	-0.0770247 	0.252222 	3.44729 	1.70595e-19
15.0789 	-0.0770247 	0.252222 	3.44729 	1.70595e-19
15.149 	-0.0770247 	0.252222 	3.44729 	1.70595e-19
15.2192 	-0.358731 	0.328845 	3.52659 	-5.82932e-19
15.2893 	-0.358731 	0.328845 	3.52659 	-5.82932e-19
15.3594 	-0.358731 	0.328845 	3.52659 	-5.82932e-19
15.4296 	-0.215789 	0.412645 	3.48594 	2.5548e-19
15.4997 	-0.215789 	0.412645 	3.48594 	2.5548e-19
15.5698 	-0.215789 	0.412645 	3.48594 	2.5548e-19
15.64 	-0.215789 	0.412645 	3.48594 	2.5548e-19
15.7101 	-0.215789 	0.412645 	3.48594 	2.5548e-19
15.7802 	-0.215789 	0.412645 	3.48594 	2.5548e-19
15.8504 	-0.215789 	0.412645 	3.48594 	2.5548e-19
15.9205 	-0.530187 	0.424558 	3.56996 	1.1999e-19
15.9906 	-0.530187 	0.424558 	3.56996 	1.1999e-19
16.0608 	-0.530187 	0.424558 	3.56996 	1.1999e-19
16.1309 	-0.273781 	0.520436 	3.48437 	-9.88959e-20
16.201 	-0.273781 	0.520436 	3.48437 	-9.88959e-20
16.2712 	-0.273781 	0.520436 	3.48437 	-9.88959e-20
16.3413 	-0.273781 	0.520436 	3.48437 	-9.88959e-20
16.4114 	-0.273781 	0.520436 	3.48437 	-9.88959e-20
16.4816 	-0.273781 	0.520436 	3.48437 	-9.88959e-20
16.5517 	-0.273781 	0.520436 	3.48437 	-9.88959e-20
16.6219 	-0.512393 	0.632391 	3.55963 	0
16.692 	-0.512393 	0.632391 	3.55963 	0
16.7621 	-0.512393 	0.632391 	3.55963 	0
16.8323 	-0.512393 	0.632391 	3.55963 	0
16.9024 	-0.512393 	0.632391 	3.55963 	0
16.9725 	-0.198038 	0.636072 	3.42439 	-4.28091e-20
17.0427 	-0.198038 	0.636072 	3.42439 	-4.28091e-20
17.1128 	-0.198038 	0.636072 	3.42439 	-4.28091e-20
17.1829 	-0.198038 	0.636072 	3.42439 	-4.28091e-20
17.2531 	-0.388491 	0.756669 	3.51477 	-3.94292e-19
17.3232 	-0.388491 	0.756669 	3.51477 	-3.94292e-19
17.3933 	-0.388491 	0.756669 	3.51477 	-3.94292e-19
17.4635 	-0.388491 	0.756669 	3.51477 	-3.94292e-19
17.5336 	-0.388491 	0.756669 	3.51477 	-3.94292e-19
17.6037 	-0.388491 	0.756669 	3.51477 	-3.94292e-19
17.6739 	-0.388491 	0.756669 	3.51477 	-3.94292e-19
17.744 	-0.388491 	0.756669 	3.51477 	-3.94292e-19
17.8141 	-0.388491 	0.756669 	3.51477 	-3.94292e-19
17.8843 	-0.388491 	0.756669 	3.51477 	-3.94292e-19
17.9544 	-0.227615 	0.7927 	3.35579 	0
18.0245 	-0.227615 	0.7927 	3.35579 	0
18.0947 	-0.227615 	0.7927 	3.35579 	0
18.1648 	-0.227615 	0.7927 	3.35579 	0
18.2349 	-0.227615 	0.7927 	3.35579 	0
18.3051 	-0.227615 	0.7927 	3.35579 	0
18.3752 	-0.227615 	0.7927 	3.35579 	0
18.4453 	-0.227615 	0.7927 	3.35579 	0
18.5155 	-0.227615 	0.7927 	3.35579 	0
18.5856 	-0.354954 	0.913307 	3.41709 	0
18.6557 	-0.354954 	0.913307 	3.41709 	0
18.7259 	-0.354954 	0.913307 	3.41709 	0
18.796 	-0.354954 	0.913307 	3.41709 	0
18.8662 	-0.354954 	0.913307 	3.41709 	0
18.9363 	-0.354954 	0.913307 	3.41709 	0
19.0064 	-0.354954 	0.913307 	3.41709 	0
19.0766 	-0.354954 	0.913307 	3.41709 	0
19.1467 	-0.354954 	0.913307 	3.41709 	0
19.2168 	-0.44802 	1.02809 	3.43074 	2.72339e-19
19.287 	-0.0822142 	0.88896 	2.92551 	9.76399e-20
19.3571 	-0.0822142 	0.88896 	2.92551 	9.76399e-20
19.4272 	-0.0822142 	0.88896 	2.92551 	9.76399e-20
19.4974 	-0.0822142 	0.88896 	2.92551 	9.76399e-20
19.5675 	-0.0822142 	0.88896 	2.92551 	9.76399e-20
19.6376 	-0.0822142 	0.88896 	2.92551 	9.76399e-20
19.7078 	-0.0822142 	0.88896 	2.92551 	9.76399e-20
19.7779 	-0.0822142 	0.88896 	2.92551 	9.76399e-20
19.848 	-0.0822142 	0.88896 	2.92551 	9.76399e-20
19.9182 	-0.161848 	1.01249 	3.06115 	1.57458e-19
19.9883 	-0.161848 	1.01249 	3.06115 	1.57458e-19
20.0584 	-0.161848 	1.01249 	3.06115 	1.57458e-19
20.1286 	-0.161848 	1.01249 	3.06115 	1.57458e-19
20.1987 	-0.161848 	1.01249 	3.06115 	1.57458e-19
20.2688 	-0.161848 	1.01249 	3.06115 	1.57458e-19
20.339 	-0.161848 	1.01249 	3.06115 	1.57458e-19
20.4091 	-0.161848 	1.01249 	3.06115 	1.57458e-19
20.4792 	-0.161848 	1.01249 	3.06115 	1.57458e-19
20.5494 	-0.161848 	1.01249 	3.06115 	1.57458e-19
20.6195 	-0.275024 	1.12986 	3.15157 	2.23178e-19
20.6896 	-0.275024 	1.12986 	3.15157 	2.23178e-19
20.7598 	-0.275024 	1.12986 	3.15157 	2.23178e-19
20.8299 	-0.275024 	1.12986 	3.15157 	2.23178e-19
20.9 	-0.0266107 	0.975876 	2.2091 	-2.6891e-20
20.9702 	-0.0266107 	0.975876 	2.2091 	-2.6891e-20
21.0403 	-0.0266107 	0.975876 	2.2091 	-2.6891e-20
21.1105 	-0.0266107 	0.975876 	2.2091 	-2.6891e-20
21.1806 	-0.0266107 	0.975876 	2.2091 	-2.6891e-20
21.2507 	-0.0266107 	0.975876 	2.2091 	-2.6891e-20
21.3209 	-0.162027 	1.11894 	2.36915 	0
21.391 	-0.162027 	1.11894 	2.36915 	0
21.4611 	-0.162027 	1.11894 	2.36915 	0
21.5313 	-0.162027 	1.11894 	2.36915 	0
21.6014 	-0.162027 	1.11894 	2.36915 	0
21.6715 	-0.162027 	1.11894 	2.36915 	0
21.7417 	-0.162027 	1.11894 	2.36915 	0
21.8118 	-0.162027 	1.11894 	2.36915 	0
21.8819 	-0.162027 	1.11894 	2.36915 	0
21.9521 	-0.162027 	1.11894 	2.36915 	0
22.0222 	-0.162027 	1.11894 	2.36915 	0
22.0923 	-0.383952 	1.30435 	2.5178 	3.81831e-19
22.1625 	-0.383952 	1.30435 	2.5178 	3.81831e-19
22.2326 	-0.383952 	1.30435 	2.5178 	3.81831e-19
22.3027 	-0.383952 	1.30435 	2.5178 	3.81831e-19
22.3729 	-0.383952 	1.30435 	2.5178 	3.81831e-19
22.443 	-0.383952 	1.30435 	2.5178 	3.81831e-19
22.5131 	-0.383952 	1.30435 	2.5178 	3.81831e-19
22.5833 	-0.383952 	1.30435 	2.5178 	3.81831e-19
22.6534 	-0.383952 	1.30435 	2.5178 	3.81831e-19
22.7235 	-0.383952 	1.30435 	2.5178 	3.81831e-19
22.7937 	-0.383952 	1.30435 	2.5178 	3.81831e-19
22.8638 	-0.695219 	1.4648 	2.75617 	-9.733e-19
22.9339 	-0.695219 	1.4648 	2.75617 	-9.733e-19
23.0041 	-0.695219 	1.4648 	2.75617 	-9.733e-19
23.0742 	-0.875352 	1.43904 	1.92722 	-2.23353e-19
23.1443 	-0.875352 	1.43904 	1.92722 	-2.23353e-19
23.2145 	-0.875352 	1.43904 	1.92722 	-2.23353e-19
23.2846 	-0.875352 	1.43904 	1.92722 	-2.23353e-19
23.3548 	-0.875352 	1.43904 	1.92722 	-2.23353e-19
23.4249 	-0.875352 	1.43904 	1.92722 	-2.23353e-19
23.495 	-0.875352 	1.43904 	1.92722 	-2.23353e-19
23.5652 	-0.875352 	1.43904 	1.92722 	-2.23353e-19
23.6353 	-0.875352 	1.43904 	1.92722 	-2.23353e-19
23.7054 	-1.2268 	1.36417 	2.14888 	3.53916e-19
23.7756 	-1.2268 	1.36417 	2.14888 	3.53916e-19
23.8457 	-1.2268 	1.36417 	2.14888 	3.53916e-19
23.9158 	-1.2268 	1.36417 	2.14888 	3.53916e-19
23.986 	-1.2268 	1.36417 	2.14888 	3.53916e-19
24.0561 	-1.2268 	1.36417 	2.14888 	3.53916e-19
24.1262 	-1.2268 	1.36417 	2.14888 	3.53916e-19
24.1964 	-1.2268 	1.36417 	2.14888 	3.53916e-19
24.2665 	-1.2268 	1.36417 	2.14888 	3.53916e-19
24.3366 	-1.2268 	1.36417 	2.14888 	3.53916e-19
24.4068 	-1.2268 	1.36417 	2.14888 	3.53916e-19
24.4769 	-1.2268 	1.36417 	2.14888 	3.53916e-19
24.547 	-1.2268 	1.36417 	2.14888 	3.53916e-19
24.6172 	-1.42983 	1.182 	2.36182 	-1.79023e-18
24.6873 	-1.42983 	1.182 	2.36182 	-1.79023e-18
24.7574 	-1.42983 	1.182 	2.36182 	-1.79023e-18
24.8276 	-1.42983 	1.182 	2.36182 	-1.79023e-18
24.8977 	-1.42983 	1.182 	2.36182 	-1.79023e-18
24.9678 	-1.42983 	1.182 	2.36182 	-1.79023e-18
25.038 	-1.42983 	1.182 	2.36182 	-1.79023e-18
25.1081 	-1.42983 	1.182 	2.36182 	-1.79023e-18
25.1782 	-1.42983 	1.182 	2.36182 	-1.79023e-18
25.2484 	-1.42983 	1.182 	2.36182 	-1.79023e-18
25.3185 	-1.42983 	1.182 	2.36182 	-1.79023e-18
25.3886 	-1.42983 	1.182 	2.36182 	-1.79023e-18
25.4588 	-1.38526 	0.926301 	2.52885 	1.65461e-18
25.5289 	-1.38526 	0.926301 	2.52885 	1.65461e-18
25.5991 	-1.38526 	0.926301 	2.52885 	1.65461e-18
25.6692 	-1.38526 	0.926301 	2.52885 	1.65461e-18
25.7393 	-1.38526 	0.926301 	2.52885 	1.65461e-18
25.8095 	-1.38526 	0.926301 	2.52885 	1.65461e-18
25.8796 	-1.38526 	0.926301 	2.52885 	1.65461e-18
25.9497 	-1.38526 	0.926301 	2.52885 	1.65461e-18
26.0199 	-1.38526 	0.926301 	2.52885 	1.65461e-18
26.09 	-1.28214 	0.294991 	1.51487 	3.36032e-19
26.1601 	-1.28214 	0.294991 	1.51487 	3.36032e-19
26.2303 	-1.28214 	0.294991 	1.51487 	3.36032e-19
26.3004 	-1.28214 	0.294991 	1.51487 	3.36032e-19
26.3705 	-1.28214 	0.294991 	1.51487 	3.36032e-19
26.4407 	-1.10884 	0.0307997 	1.64736 	-2.31602e-19
26.5108 	-1.10884 	0.0307997 	1.64736 	-2.31602e-19
26.5809 	-1.10884 	0.0307997 	1.64736 	-2.31602e-19
26.6511 	-1.10884 	0.0307997 	1.64736 	-2.31602e-19
26.7212 	-1.10884 	0.0307997 	1.64736 	-2.31602e-19
26.7913 	-1.10884 	0.0307997 	1.64736 	-2.31602e-19
26.8615 	-1.10884 	0.0307997 	1.64736 	-2.31602e-19
26.9316 	-1.10884 	0.0307997 	1.64736 	-2.31602e-19
27.0017 	-1.10884 	0.0307997 	1.64736 	-2.31602e-19
27.0719 	-1.10884 	0.0307997 	1.64736 	-2.31602e-19
27.142 	-1.10884 	0.0307997 	1.64736 	-2.31602e-19
27.2121 	-1.10884 	0.0307997 	1.64736 	-2.31602e-19
27.2823 	-1.10884 	0.0307997 	1.64736 	-2.31602e-19
27.3524 	-0.772233 	-0.157056 	1.76136 	0
27.4225 	-0.772233 	-0.157056 	1.76136 	0
27.4927 	-0.772233 	-0.157056 	1.76136 	0
27.5628 	-0.772233 	-0.157056 	1.76136 	0
27.6329 	-0.772233 	-0.157056 	1.76136 	0
27.7031 	-0.772233 	-0.157056 	1.76136 	0
27.7732 	-0.772233 	-0.157056 	1.76136 	0
27.8434 	-0.772233 	-0.157056 	1.76136 	0
27.9135 	-0.772233 	-0.157056 	1.76136 	0
27.9836 	-0.772233 	-0.157056 	1.76136 	0
28.0538 	-0.772233 	-0.157056 	1.76136 	0
28.1239 	-0.772233 	-0.157056 	1.76136 	0
28.194 	-0.772233 	-0.157056 	1.76136 	0
28.2642 	-0.772233 	-0.157056 	1.76136 	0
28.3343 	-0.772233 	-0.157056 	1.76136 	0
28.4044 	-0.393615 	-0.225712 	1.83841 	0
28.4746 	-0.393615 	-0.225712 	1.83841 	0
28.5447 	-0.393615 	-0.225712 	1.83841 	0
28.6148 	-0.393615 	-0.225712 	1.83841 	0
28.685 	-0.393615 	-0.225712 	1.83841 	0
28.7551 	-0.393615 	-0.225712 	1.83841 	0
28.8252 	-0.393615 	-0.225712 	1.83841 	0
28.8954 	-0.393615 	-0.225712 	1.83841 	0
28.9655 	-0.393615 	-0.225712 	1.83841 	0
29.0356 	-0.393615 	-0.225712 	1.83841 	0
29.1058 	-0.393615 	-0.225712 	1.83841 	0
29.1759 	-0.393615 	-0.225712 	1.83841 	0
29.246 	-0.393615 	-0.225712 	1.83841 	0
29.3162 	-0.393615 	-0.225712 	1.83841 	0
29.3863 	-0.393615 	-0.225712 	1.83841 	0
29.4564 	-0.0816012 	-0.214838 	1.86566 	5.48861e-21
29.5266 	-0.0816012 	-0.214838 	1.86566 	5.48861e-21
29.5967 	-0.0816012 	-0.214838 	1.86566 	5.48861e-21
29.6668 	-0.0816012 	-0.214838 	1.86566 	5.48861e-21
29.737 	-0.0816012 	-0.214838 	1.86566 	5.48861e-21
29.8071 	-0.0816012 	-0.214838 	1.86566 	5.48861e-21
29.8773 	-0.0816012 	-0.214838 	1.86566 	5.48861e-21
29.9474 	-0.0816012 	-0.214838 	1.86566 	5.48861e-21
30.0175 	-0.0816012 	-0.214838 	1.86566 	5.48861e-21
30.0877 	-0.0816012 	-0.214838 	1.86566 	5.48861e-21
30.1578 	-0.0816012 	-0.214838 	1.86566 	5.48861e-21
30.2279 	-0.0816012 	-0.214838 	1.86566 	5.48861e-21
30.2981 	-0.0816012 	-0.214838 	1.86566 	5.48861e-21
30.3682 	-0.0816012 	-0.214838 	1.86566 	5.48861e-21
30.4383 	-0.0816012 	-0.214838 	1.86566 	5.48861e-21
30.5085 	-0.0816012 	-0.214838 	1.86566 	5.48861e-21
30.5786 	0.115014 	-0.135752 	1.87041 	1.06183e-19
30.6487 	0.115014 	-0.135752 	1.87041 	1.06183e-19
30.7189 	0.115014 	-0.135752 	1.87041 	1.06183e-19
30.789 	0.115014 	-0.135752 	1.87041 	1.06183e-19
30.8591 	0.115014 	-0.135752 	1.87041 	1.06183e-19
30.9293 	0.115014 	-0.135752 	1.87041 	1.06183e-19
30.9994 	0.115014 	-0.135752 	1.87041 	1.06183e-19
31.0695 	0.115014 	-0.135752 	1.87041 	1.06183e-19
31.1397 	0.115014 	-0.135752 	1.87041 	1.06183e-19
31.2098 	0.115014 	-0.135752 	1.87041 	1.06183e-19
31.2799 	0.115014 	-0.135752 	1.87041 	1.06183e-19
31.3501 	0.115014 	-0.135752 	1.87041 	1.06183e-19
31.4202 	0.115014 	-0.135752 	1.87041 	1.06183e-19
31.4903 	0.115014 	-0.135752 	1.87041 	1.06183e-19
31.5605 	-0.0496456 	-0.0643652 	1.7003 	1.85387e-21
31.6306 	-0.0496456 	-0.0643652 	1.7003 	1.85387e-21
31.7007 	0.0292958 	-0.00622309 	1.75629 	-9.39682e-21
31.7709 	0.0292958 	-0.00622309 	1.75629 	-9.39682e-21
31.841 	0.0292958 	-0.00622309 	1.75629 	-9.39682e-21
31.9111 	0.0292958 	-0.00622309 	1.75629 	-9.39682e-21
31.9813 	0.0292958 	-0.00622309 	1.75629 	-9.39682e-21
32.0514 	0.0292958 	-0.00622309 	1.75629 	-9.39682e-21
32.1216 	0.0292958 	-0.00622309 	1.75629 	-9.39682e-21
32.1917 	0.0292958 	-0.00622309 	1.75629 	-9.39682e-21
32.2618 	0.0292958 	-0.00622309 	1.75629 	-9.39682e-21
32.332 	0.0292958 	-0.00622309 	1.75629 	-9.39682e-21
32.4021 	0.0292958 	-0.00622309 	1.75629 	-9.39682e-21
32.4722 	0.0292958 	-0.00622309 	1.75629 	-9.39682e-21
32.5424 	0.0292958 	-0.00622309 	1.75629 	-9.39682e-21
32.6125 	0.0292958 	-0.00622309 	1.75629 	-9.39682e-21
32.6826 	0.0292958 	-0.00622309 	1.75629 	-9.39682e-21
32.7528 	0.0292958 	-0.00622309 	1.75629 	-9.39682e-21
32.8229 	0.0292958 	-0.00622309 	1.75629 	-9.39682e-21
32.893 	0.0292958 	-0.00622309 	1.75629 	-9.39682e-21
32.9632 	0.073909 	0.0356572 	1.78925 	5.80563e-21
33.0333 	0.073909 	0.0356572 	1.78925 	5.80563e-21
33.1034 	0.073909 	0.0356572 	1.78925 	5.80563e-21
33.1736 	0.073909 	0.0356572 	1.78925 	5.80563e-21
33.2437 	0.073909 	0.0356572 	1.78925 	5.80563e-21
33.3138 	0.073909 	0.0356572 	1.78925 	5.80563e-21
33.384 	0.073909 	0.0356572 	1.78925 	5.80563e-21
33.4541 	0.073909 	0.0356572 	1.78925 	5.80563e-21
33.5242 	0.073909 	0.0356572 	1.78925 	5.80563e-21
33.5944 	0.073909 	0.0356572 	1.78925 	5.80563e-21
33.6645 	0.073909 	0.0356572 	1.78925 	5.80563e-21
33.7346 	0.073909 	0.0356572 	1.78925 	5.80563e-21
33.8048 	0.073909 	0.0356572 	1.78925 	5.80563e-21
33.8749 	0.073909 	0.0356572 	1.78925 	5.80563e-21
33.945 	0.073909 	0.0356572 	1.78925 	5.80563e-21
34.0152 	0.073909 	0.0356572 	1.78925 	5.80563e-21
34.0853 	0.073909 	0.0356572 	1.78925 	5.80563e-21
34.1554 	0.073909 	0.0356572 	1.78925 	5.80563e-21
34.2256 	0.0952991 	0.0580052 	1.80759 	1.52799e-20
34.2957 	0.0952991 	0.0580052 	1.80759 	1.52799e-20
34.3659 	0.0952991 	0.0580052 	1.80759 	1.52799e-20
34.436 	0.0952991 	0.0580052 	1.80759 	1.52799e-20
34.5061 	0.0952991 	0.0580052 	1.80759 	1.52799e-20
34.5763 	0.0952991 	0.0580052 	1.80759 	1.52799e-20
34.6464 	0.0952991 	0.0580052 	1.80759 	1.52799e-20
34.7165 	0.0952991 	0.0580052 	1.80759 	1.52799e-20
34.7867 	0.0952991 	0.0580052 	1.80759 	1.52799e-20
34.8568 	0.0952991 	0.0580052 	1.80759 	1.52799e-20
34.9269 	0.0952991 	0.0580052 	1.80759 	1.52799e-20
34.9971 	0.0952991 	0.0580052 	1.80759 	1.52799e-20
35.0672 	0.0952991 	0.0580052 	1.80759 	1.52799e-20
35.1373 	0.0952991 	0.0580052 	1.80759 	1.52799e-20
35.2075 	0.0952991 	0.0580052 	1.80759 	1.52799e-20
35.2776 	0.0952991 	0.0580052 	1.80759 	1.52799e-20
35.3477 	0.0952991 	0.0580052 	1.80759 	1.52799e-20
35.4179 	0.0952991 	0.0580052 	1.80759 	1.52799e-20
35.488 	0.0952991 	0.0580052 	1.80759 	1.52799e-20
35.5581 	0.0952991 	0.0580052 	1.80759 	1.52799e-20
35.6283 	0.102806 	0.0641989 	1.81735 	6.23981e-22
35.6984 	0.102806 	0.0641989 	1.81735 	6.23981e-22
35.7685 	0.102806 	0.0641989 	1.81735 	6.23981e-22
35.8387 	0.102806 	0.0641989 	1.81735 	6.23981e-22
35.9088 	0.102806 	0.0641989 	1.81735 	6.23981e-22
35.9789 	0.102806 	0.0641989 	1.81735 	6.23981e-22
36.0491 	0.102806 	0.0641989 	1.81735 	6.23981e-22
36.1192 	0.102806 	0.0641989 	1.81735 	6.23981e-22
36.1893 	0.102806 	0.0641989 	1.81735 	6.23981e-22
36.2595 	0.102806 	0.0641989 	1.81735 	6.23981e-22
36.3296 	0.102806 	0.0641989 	1.81735 	6.23981e-22
36.3997 	0.102806 	0.0641989 	1.81735 	6.23981e-22
36.4699 	0.102806 	0.0641989 	1.81735 	6.23981e-22
36.54 	0.102806 	0.0641989 	1.81735 	6.23981e-22
36.6102 	0.102806 	0.0641989 	1.81735 	6.23981e-22
36.6803 	0.102806 	0.0641989 	1.81735 	6.23981e-22
36.7504 	0.102806 	0.0641989 	1.81735 	6.23981e-22
36.8206 	0.102806 	0.0641989 	1.81735 	6.23981e-22
36.8907 	0.102806 	0.0641989 	1.81735 	6.23981e-22
36.9608 	0.102806 	0.0641989 	1.81735 	6.23981e-22
37.031 	0.102806 	0.0641989 	1.81735 	6.23981e-22
37.1011 	0.0995194 	0.0594275 	1.82317 	0
37.1712 	0.0995194 	0.0594275 	1.82317 	0
37.2414 	0.0995194 	0.0594275 	1.82317 	0
37.3115 	0.0995194 	0.0594275 	1.82317 	0
37.3816 	0.0995194 	0.0594275 	1.82317 	0
37.4518 	0.0995194 	0.0594275 	1.82317 	0
37.5219 	0.0995194 	0.0594275 	1.82317 	0
37.592 	0.0995194 	0.0594275 	1.82317 	0
37.6622 	0.0995194 	0.0594275 	1.82317 	0
37.7323 	0.0995194 	0.0594275 	1.82317 	0
37.8024 	0.0995194 	0.0594275 	1.82317 	0
37.8726 	0.0995194 	0.0594275 	1.82317 	0
37.9427 	0.0995194 	0.0594275 	1.82317 	0
38.0128 	0.0995194 	0.0594275 	1.82317 	0
38.083 	0.0995194 	0.0594275 	1.82317 	0
38.1531 	0.0995194 	0.0594275 	1.82317 	0
38.2232 	0.0995194 	0.0594275 	1.82317 	0
38.2934 	0.0946618 	0.0473537 	1.82826 	0
38.3635 	0.0946618 	0.0473537 	1.82826 	0
38.4336 	0.0946618 	0.0473537 	1.82826 	0
38.5038 	0.0946618 	0.0473537 	1.82826 	0
38.5739 	0.0946618 	0.0473537 	1.82826 	0
38.644 	0.0946618 	0.0473537 	1.82826 	0
38.7142 	0.0946618 	0.0473537 	1.82826 	0
38.7843 	0.0946618 	0.0473537 	1.82826 	0
38.8545 	0.0946618 	0.0473537 	1.82826 	0
38.9246 	0.0946618 	0.0473537 	1.82826 	0
38.9947 	0.0946618 	0.0473537 	1.82826 	0
39.0649 	0.0946618 	0.0473537 	1.82826 	0
39.135 	0.0946618 	0.0473537 	1.82826 	0
39.2051 	0.0946618 	0.0473537 	1.82826 	0
39.2753 	0.0946618 	0.0473537 	1.82826 	0
39.3454 	0.0946618 	0.0473537 	1.82826 	0
39.4155 	0.0946618 	0.0473537 	1.82826 	0
39.4857 	0.0946618 	0.0473537 	1.82826 	0
39.5558 	0.0927419 	0.0356694 	1.83116 	0
39.6259 	0.0927419 	0.0356694 	1.83116 	0
39.6961 	0.0927419 	0.0356694 	1.83116 	0
39.7662 	0.0927419 	0.0356694 	1.83116 	0
39.8363 	0.0927419 	0.0356694 	1.83116 	0
39.9065 	0.0927419 	0.0356694 	1.83116 	0
39.9766 	0.0927419 	0.0356694 	1.83116 	0
40.0467 	0.0927419 	0.0356694 	1.83116 	0
40.1169 	0.0927419 	0.0356694 	1.83116 	0
40.187 	0.0927419 	0.0356694 	1.83116 	0
40.2571 	0.0927419 	0.0356694 	1.83116 	0
40.3273 	0.0927419 	0.0356694 	1.83116 	0
40.3974 	0.0927419 	0.0356694 	1.83116 	0
40.4675 	0.0927419 	0.0356694 	1.83116 	0
40.5377 	0.0927419 	0.0356694 	1.83116 	0
40.6078 	0.0927419 	0.0356694 	1.83116 	0
40.6779 	0.0927419 	0.0356694 	1.83116 	0
40.7481 	0.0919547 	0.0255124 	1.83249 	0
40.8182 	0.0919547 	0.0255124 	1.83249 	0
40.8883 	0.0919547 	0.0255124 	1.83249 	0
40.9585 	0.0919547 	0.0255124 	1.83249 	0
41.0286 	0.0919547 	0.0255124 	1.83249 	0
41.0988 	0.0919547 	0.0255124 	1.83249 	0
41.1689 	0.0919547 	0.0255124 	1.83249 	0
41.239 	0.0919547 	0.0255124 	1.83249 	0
41.3092 	0.0919547 	0.0255124 	1.83249 	0
41.3793 	0.0919547 	0.0255124 	1.83249 	0
41.4494 	0.0919547 	0.0255124 	1.83249 	0
41.5196 	0.0919547 	0.0255124 	1.83249 	0
41.5897 	0.0919547 	0.0255124 	1.83249 	0
41.6598 	0.0919547 	0.0255124 	1.83249 	0
41.73 	0.0919547 	0.0255124 	1.83249 	0
41.8001 	0.0919547 	0.0255124 	1.83249 	0
41.8702 	0.0919547 	0.0255124 	1.83249 	0
41.9404 	0.0919547 	0.0255124 	1.83249 	0
42.0105 	0.0930816 	0.0173661 	1.83128 	0
42.0806 	0.0930816 	0.0173661 	1.83128 	0
42.1508 	0.0930816 	0.0173661 	1.83128 	0
42.2209 	0.0930816 	0.0173661 	1.83128 	0
42.291 	0.0930816 	0.0173661 	1.83128 	0
42.3612 	0.0930816 	0.0173661 	1.83128 	0
42.4313 	0.0930816 	0.0173661 	1.83128 	0
42.5014 	0.0930816 	0.0173661 	1.83128 	0
42.5716 	0.0930816 	0.0173661 	1.83128 	0
42.6417 	0.0930816 	0.0173661 	1.83128 	0
42.7118 	0.0930816 	0.0173661 	1.83128 	0
42.782 	0.0930816 	0.0173661 	1.83128 	0
42.8521 	0.0930816 	0.0173661 	1.83128 	0
42.9222 	0.0930816 	0.0173661 	1.83128 	0
42.9924 	0.0930816 	0.0173661 	1.83128 	0
43.0625 	0.0930816 	0.0173661 	1.83128 	0
43.1327 	0.0930816 	0.0173661 	1.83128 	0
43.2028 	0.095295 	0.0116709 	1.82818 	0
43.2729 	0.095295 	0.0116709 	1.82818 	0
43.3431 	0.095295 	0.0116709 	1.82818 	0
43.4132 	0.095295 	0.0116709 	1.82818 	0
43.4833 	0.095295 	0.0116709 	1.82818 	0
43.5535 	0.095295 	0.0116709 	1.82818 	0
43.6236 	0.095295 	0.0116709 	1.82818 	0
43.6937 	0.095295 	0.0116709 	1.82818 	0
43.7639 	0.095295 	0.0116709 	1.82818 	0
43.834 	0.095295 	0.0116709 	1.82818 	0
43.9041 	0.095295 	0.0116709 	1.82818 	0
43.9743 	0.095295 	0.0116709 	1.82818 	0
44.0444 	0.095295 	0.0116709 	1.82818 	0
44.1145 	0.095295 	0.0116709 	1.82818 	0
44.1847 	0.095295 	0.0116709 	1.82818 	0