0.490941 	0.8217 	0.00614581 	3.00289 	0
0.561075 	0.8217 	0.00614581 	3.00289 	0
0.63121 	0.8217 	0.00614581 	3.00289 	0
0.701344 	0.8217 	0.00614581 	3.00289 	0
0.771478 	0.8217 	0.00614581 	3.00289 	0
0.841613 	0.8217 	0.00614581 	3.00289 	0
0.911747 	0.8217 	0.00614581 	3.00289 	0
0.981881 	0.8217 	0.00614581 	3.00289 	0
1.05202 	0.8217 	0.00614581 	3.00289 	0
1.12215 	0.8217 	0.00614581 	3.00289 	0
1.19228 	0.8217 	0.00614581 	3.00289 	0
1.26242 	0.795574 	0.0115486 	3.00787 	0
1.33255 	0.795574 	0.0115486 	3.00787 	0
1.40269 	0.795574 	0.0115486 	3.00787 	0
1.47282 	0.795574 	0.0115486 	3.00787 	0
1.54296 	0.795574 	0.0115486 	3.00787 	0
1.61309 	0.795574 	0.0115486 	3.00787 	0
1.68323 	0.795574 	0.0115486 	3.00787 	0
1.75336 	0.795574 	0.0115486 	3.00787 	0
1.82349 	0.745896 	0.01481 	3.02406 	2.84526e-19
1.89363 	0.745896 	0.01481 	3.02406 	2.84526e-19
1.96376 	0.745896 	0.01481 	3.02406 	2.84526e-19
2.0339 	0.745896 	0.01481 	3.02406 	2.84526e-19
2.10403 	0.745896 	0.01481 	3.02406 	2.84526e-19
2.17417 	0.745896 	0.01481 	3.02406 	2.84526e-19
2.2443 	0.745896 	0.01481 	3.02406 	2.84526e-19
2.31443 	0.745896 	0.01481 	3.02406 	2.84526e-19
2.38457 	0.745896 	0.01481 	3.02406 	2.84526e-19
2.4547 	0.745896 	0.01481 	3.02406 	2.84526e-19
2.52484 	0.745896 	0.01481 	3.02406 	2.84526e-19
2.59497 	0.711209 	0.00729191 	3.03678 	-4.43849e-19
2.66511 	0.711209 	0.00729191 	3.03678 	-4.43849e-19
2.73524 	0.711209 	0.00729191 	3.03678 	-4.43849e-19
2.80538 	0.711209 	0.00729191 	3.03678 	-4.43849e-19
2.87551 	0.711209 	0.00729191 	3.03678 	-4.43849e-19
2.94564 	0.711209 	0.00729191 	3.03678 	-4.43849e-19
3.01578 	0.711209 	0.00729191 	3.03678 	-4.43849e-19
3.08591 	0.711209 	0.00729191 	3.03678 	-4.43849e-19
3.15605 	0.711209 	0.00729191 	3.03678 	-4.43849e-19
3.22618 	0.711209 	0.00729191 	3.03678 	-4.43849e-19
3.29632 	0.678724 	0.0198929 	3.04356 	4.49049e-19
3.36645 	0.678724 	0.0198929 	3.04356 	4.49049e-19
3.43659 	0.678724 	0.0198929 	3.04356 	4.49049e-19
3.50672 	0.678724 	0.0198929 	3.04356 	4.49049e-19
3.57685 	0.678724 	0.0198929 	3.04356 	4.49049e-19
3.64699 	0.678724 	0.0198929 	3.04356 	4.49049e-19
3.71712 	0.678724 	0.0198929 	3.04356 	4.49049e-19
3.78726 	0.678724 	0.0198929 	3.04356 	4.49049e-19
3.85739 	0.678724 	0.0198929 	3.04356 	4.49049e-19
3.92753 	0.678724 	0.0198929 	3.04356 	4.49049e-19
3.99766 	0.678724 	0.0198929 	3.04356 	4.49049e-19
4.06779 	0.660391 	0.00385147 	3.05024 	-1.2455e-20
4.13793 	0.660391 	0.00385147 	3.05024 	-1.2455e-20
4.20806 	0.660391 	0.00385147 	3.05024 	-1.2455e-20
4.2782 	0.660391 	0.00385147 	3.05024 	-1.2455e-20
4.34833 	0.660391 	0.00385147 	3.05024 	-1.2455e-20
4.41847 	0.660391 	0.00385147 	3.05024 	-1.2455e-20
4.4886 	0.635311 	0.0163174 	3.0581 	0
4.55874 	0.635311 	0.0163174 	3.0581 	0
4.62887 	0.635311 	0.0163174 	3.0581 	0
4.699 	0.635311 	0.0163174 	3.0581 	0
4.76914 	0.635311 	0.0163174 	3.0581 	0
4.83927 	0.635311 	0.0163174 	3.0581 	0
4.90941 	0.635311 	0.0163174 	3.0581 	0
4.97954 	0.635311 	0.0163174 	3.0581 	0
5.04968 	0.635311 	0.0163174 	3.0581 	0
5.11981 	0.635311 	0.0163174 	3.0581 	0
5.18994 	0.61289 	0.00579183 	3.06478 	-5.74436e-21
5.26008 	0.61289 	0.00579183 	3.06478 	-5.74436e-21
5.33021 	0.61289 	0.00579183 	3.06478 	-5.74436e-21
5.40035 	0.61289 	0.00579183 	3.06478 	-5.74436e-21
5.47048 	0.61289 	0.00579183 	3.06478 	-5.74436e-21
5.54062 	0.61289 	0.00579183 	3.06478 	-5.74436e-21
5.61075 	0.61289 	0.00579183 	3.06478 	-5.74436e-21
5.68089 	0.584064 	0.0110221 	3.07478 	0
5.75102 	0.584064 	0.0110221 	3.07478 	0
5.82115 	0.584064 	0.0110221 	3.07478 	0
5.89129 	0.584064 	0.0110221 	3.07478 	0
5.96142 	0.584064 	0.0110221 	3.07478 	0
6.03156 	0.584064 	0.0110221 	3.07478 	0
6.10169 	0.584064 	0.0110221 	3.07478 	0
6.17183 	0.584064 	0.0110221 	3.07478 	0
6.24196 	0.584064 	0.0110221 	3.07478 	0
6.3121 	0.555529 	0.00740449 	3.08236 	0
6.38223 	0.555529 	0.00740449 	3.08236 	0
6.45236 	0.555529 	0.00740449 	3.08236 	0
6.5225 	0.555529 	0.00740449 	3.08236 	0
6.59263 	0.555529 	0.00740449 	3.08236 	0
6.66277 	0.555529 	0.00740449 	3.08236 	0
6.7329 	0.555529 	0.00740449 	3.08236 	0
6.80304 	0.555529 	0.00740449 	3.08236 	0
6.87317 	0.529675 	0.00597367 	3.09113 	1.79761e-19
6.9433 	0.529675 	0.00597367 	3.09113 	1.79761e-19
7.01344 	0.529675 	0.00597367 	3.09113 	1.79761e-19
7.08357 	0.529675 	0.00597367 	3.09113 	1.79761e-19
7.15371 	0.529675 	0.00597367 	3.09113 	1.79761e-19
7.22384 	0.529675 	0.00597367 	3.09113 	1.79761e-19
7.29398 	0.529675 	0.00597367 	3.09113 	1.79761e-19
7.36411 	0.529675 	0.00597367 	3.09113 	1.79761e-19
7.43425 	0.529675 	0.00597367 	3.09113 	1.79761e-19
7.50438 	0.497627 	0.00887477 	3.10009 	-1.31478e-18
7.57451 	0.497627 	0.00887477 	3.10009 	-1.31478e-18
7.64465 	0.497627 	0.00887477 	3.10009 	-1.31478e-18
7.71478 	0.497627 	0.00887477 	3.10009 	-1.31478e-18
7.78492 	0.497627 	0.00887477 	3.10009 	-1.31478e-18
7.85505 	0.497627 	0.00887477 	3.10009 	-1.31478e-18
7.92519 	0.497627 	0.00887477 	3.10009 	-1.31478e-18
7.99532 	0.497627 	0.00887477 	3.10009 	-1.31478e-18
8.06545 	0.480699 	0.00259572 	3.10526 	1.28393e-18
8.13559 	0.480699 	0.00259572 	3.10526 	1.28393e-18
8.20572 	0.480699 	0.00259572 	3.10526 	1.28393e-18
8.27586 	0.480699 	0.00259572 	3.10526 	1.28393e-18
8.34599 	0.480699 	0.00259572 	3.10526 	1.28393e-18
8.41613 	0.480699 	0.00259572 	3.10526 	1.28393e-18
8.48626 	0.480699 	0.00259572 	3.10526 	1.28393e-18
8.5564 	0.480699 	0.00259572 	3.10526 	1.28393e-18
8.62653 	0.480699 	0.00259572 	3.10526 	1.28393e-18
8.69666 	0.448702 	0.0150904 	3.11839 	1.12593e-18
8.7668 	0.448702 	0.0150904 	3.11839 	1.12593e-18
8.83693 	0.448702 	0.0150904 	3.11839 	1.12593e-18
8.90707 	0.448702 	0.0150904 	3.11839 	1.12593e-18
8.9772 	0.448702 	0.0150904 	3.11839 	1.12593e-18
9.04734 	0.448702 	0.0150904 	3.11839 	1.12593e-18
9.11747 	0.448702 	0.0150904 	3.11839 	1.12593e-18
9.18761 	0.448702 	0.0150904 	3.11839 	1.12593e-18
9.25774 	0.416158 	0.00199174 	3.11898 	-1.04768e-18
9.32787 	0.416158 	0.00199174 	3.11898 	-1.04768e-18
9.39801 	0.416158 	0.00199174 	3.11898 	-1.04768e-18
9.46814 	0.416158 	0.00199174 	3.11898 	-1.04768e-18
9.53828 	0.416158 	0.00199174 	3.11898 	-1.04768e-18
9.60841 	0.416158 	0.00199174 	3.11898 	-1.04768e-18
9.67855 	0.416158 	0.00199174 	3.11898 	-1.04768e-18
9.74868 	0.416158 	0.00199174 	3.11898 	-1.04768e-18
9.81881 	0.400951 	0.0179897 	3.12974 	-3.1632e-19
9.88895 	0.400951 	0.0179897 	3.12974 	-3.1632e-19
9.95908 	0.400951 	0.0179897 	3.12974 	-3.1632e-19
10.0292 	0.400951 	0.0179897 	3.12974 	-3.1632e-19
10.0994 	0.400951 	0.0179897 	3.12974 	-3.1632e-19
10.1695 	0.400951 	0.0179897 	3.12974 	-3.1632e-19
10.2396 	0.400951 	0.0179897 	3.12974 	-3.1632e-19
10.3098 	0.400951 	0.0179897 	3.12974 	-3.1632e-19
10.3799 	0.400951 	0.0179897 	3.12974 	-3.1632e-19
10.45 	0.400951 	0.0179897 	3.12974 	-3.1632e-19
10.5202 	0.400951 	0.0179897 	3.12974 	-3.1632e-19
10.5903 	0.400951 	0.0179897 	3.12974 	-3.1632e-19
10.6604 	0.425597 	0.0164549 	3.12549 	4.65589e-19
10.7306 	0.370188 	0.0388831 	3.14011 	0
10.8007 	0.370188 	0.0388831 	3.14011 	0
10.8708 	0.370188 	0.0388831 	3.14011 	0
10.941 	0.370188 	0.0388831 	3.14011 	0
11.0111 	0.370188 	0.0388831 	3.14011 	0
11.0812 	0.370188 	0.0388831 	3.14011 	0
11.1514 	0.370188 	0.0388831 	3.14011 	0
11.2215 	0.370188 	0.0388831 	3.14011 	0
11.2916 	0.370188 	0.0388831 	3.14011 	0
11.3618 	0.370188 	0.0388831 	3.14011 	0
11.4319 	0.370188 	0.0388831 	3.14011 	0
11.502 	0.370188 	0.0388831 	3.14011 	0
11.5722 	0.370188 	0.0388831 	3.14011 	0
11.6423 	0.370188 	0.0388831 	3.14011 	0
11.7124 	0.378327 	0.0271236 	3.12816 	0
11.7826 	0.312442 	0.0812134 	3.16344 	4.60416e-19
11.8527 	0.312442 	0.0812134 	3.16344 	4.60416e-19
11.9228 	0.312442 	0.0812134 	3.16344 	4.60416e-19
11.993 	0.312442 	0.0812134 	3.16344 	4.60416e-19
12.0631 	0.312442 	0.0812134 	3.16344 	4.60416e-19
12.1332 	0.312442 	0.0812134 	3.16344 	4.60416e-19
12.2034 	0.208081 	0.0743778 	3.19089 	-1.91813e-19
12.2735 	0.208081 	0.0743778 	3.19089 	-1.91813e-19
12.3437 	0.208081 	0.0743778 	3.19089 	-1.91813e-19
12.4138 	0.208081 	0.0743778 	3.19089 	-1.91813e-19
12.4839 	0.208081 	0.0743778 	3.19089 	-1.91813e-19
12.5541 	0.208081 	0.0743778 	3.19089 	-1.91813e-19
12.6242 	0.208081 	0.0743778 	3.19089 	-1.91813e-19
12.6943 	0.208081 	0.0743778 	3.19089 	-1.91813e-19
12.7645 	0.208081 	0.0743778 	3.19089 	-1.91813e-19
12.8346 	0.0874394 	0.039586 	3.1843 	7.75091e-20
12.9047 	0.0673775 	0.141537 	3.22896 	1.99342e-20
12.9749 	0.0673775 	0.141537 	3.22896 	1.99342e-20
13.045 	0.0673775 	0.141537 	3.22896 	1.99342e-20
13.1151 	0.0673775 	0.141537 	3.22896 	1.99342e-20
13.1853 	0.0673775 	0.141537 	3.22896 	1.99342e-20
13.2554 	0.0673775 	0.141537 	3.22896 	1.99342e-20
13.3255 	0.0673775 	0.141537 	3.22896 	1.99342e-20
13.3957 	0.291593 	0.146846 	3.2006 	7.20541e-19
13.4658 	0.291593 	0.146846 	3.2006 	7.20541e-19
13.5359 	0.291593 	0.146846 	3.2006 	7.20541e-19
13.6061 	0.291593 	0.146846 	3.2006 	7.20541e-19
13.6762 	0.291593 	0.146846 	3.2006 	7.20541e-19
13.7463 	0.291593 	0.146846 	3.2006 	7.20541e-19
13.8165 	0.357964 	0.128484 	2.87885 	-5.95686e-19
13.8866 	0.543596 	0.148819 	2.97285 	7.60054e-20
13.9567 	0.543596 	0.148819 	2.97285 	7.60054e-20
14.0269 	-0.0216756 	0.256296 	3.04339 	-5.99854e-19
14.097 	-0.0216756 	0.256296 	3.04339 	-5.99854e-19
14.1671 	-0.0216756 	0.256296 	3.04339 	-5.99854e-19
14.2373 	-0.0216756 	0.256296 	3.04339 	-5.99854e-19
14.3074 	-0.0216756 	0.256296 	3.04339 	-5.99854e-19
14.3776 	-0.0216756 	0.256296 	3.04339 	-5.99854e-19
14.4477 	-0.0216756 	0.256296 	3.04339 	-5.99854e-19
14.5178 	-0.0216756 	0.256296 	3.04339 	-5.99854e-19
14.588 	-0.0216756 	0.256296 	3.04339 	-5.99854e-19
14.6581 	-0.0216756 	0.256296 	3.04339 	-5.99854e-19
14.7282 	-0.0216756 	0.256296 	3.04339 	-5.99854e-19
14.7984 	-0.0216756 	0.256296 	3.04339 	-5.99854e-19
14.8685 	-0.0216756 	0.256296 	3.04339 	-5.99854e-19
14.9386 	-0.191827 	0.347656 	3.19957 	0
15.0088 	-0.191827 	0.347656 	3.19957 	0
15.0789 	-0.191827 	0.347656 	3.19957 	0
15.149 	-0.191827 	0.347656 	3.19957 	0
15.2192 	-0.191827 	0.347656 	3.19957 	0
15.2893 	-0.701663 	0.344505 	3.43073 	-4.64404e-19
15.3594 	-0.701663 	0.344505 	3.43073 	-4.64404e-19
15.4296 	-0.701663 	0.344505 	3.43073 	-4.64404e-19
15.4997 	-0.701663 	0.344505 	3.43073 	-4.64404e-19
15.5698 	-0.701663 	0.344505 	3.43073 	-4.64404e-19
15.64 	-0.701663 	0.344505 	3.43073 	-4.64404e-19
15.7101 	-1.20414 	0.399287 	3.50327 	0
15.7802 	-1.20414 	0.399287 	3.50327 	0
15.8504 	-1.10765 	0.652564 	3.56319 	1.69833e-18
15.9205 	-1.10765 	0.652564 	3.56319 	1.69833e-18
15.9906 	-1.10765 	0.652564 	3.56319 	1.69833e-18
16.0608 	-1.10765 	0.652564 	3.56319 	1.69833e-18
16.1309 	-1.10765 	0.652564 	3.56319 	1.69833e-18
16.201 	-1.10765 	0.652564 	3.56319 	1.69833e-18
16.2712 	-1.10765 	0.652564 	3.56319 	1.69833e-18
16.3413 	-1.10765 	0.652564 	3.56319 	1.69833e-18
16.4114 	-1.10765 	0.652564 	3.56319 	1.69833e-18
16.4816 	-1.10765 	0.652564 	3.56319 	1.69833e-18
16.5517 	-1.10765 	0.652564 	3.56319 	1.69833e-18
16.6219 	-1.10765 	0.652564 	3.56319 	1.69833e-18
16.692 	-1.10765 	0.652564 	3.56319 	1.69833e-18
16.7621 	-1.10765 	0.652564 	3.56319 	1.69833e-18
16.8323 	-0.651797 	0.875927 	3.12703 	4.00765e-19
16.9024 	-0.651797 	0.875927 	3.12703 	4.00765e-19
16.9725 	-0.651797 	0.875927 	3.12703 	4.00765e-19
17.0427 	-0.651797 	0.875927 	3.12703 	4.00765e-19
17.1128 	-0.651797 	0.875927 	3.12703 	4.00765e-19
17.1829 	-0.651797 	0.875927 	3.12703 	4.00765e-19
17.2531 	-0.651797 	0.875927 	3.12703 	4.00765e-19
17.3232 	-0.651797 	0.875927 	3.12703 	4.00765e-19
17.3933 	-0.651797 	0.875927 	3.12703 	4.00765e-19
17.4635 	-0.651797 	0.875927 	3.12703 	4.00765e-19
17.5336 	-0.564562 	0.92075 	3.03809 	-4.53646e-19
17.6037 	-0.564562 	0.92075 	3.03809 	-4.53646e-19
17.6739 	-0.564562 	0.92075 	3.03809 	-4.53646e-19
17.744 	-0.655819 	1.04598 	3.1717 	5.05362e-19
17.8141 	-0.655819 	1.04598 	3.1717 	5.05362e-19
17.8843 	-0.655819 	1.04598 	3.1717 	5.05362e-19
17.9544 	-0.655819 	1.04598 	3.1717 	5.05362e-19
18.0245 	-0.655819 	1.04598 	3.1717 	5.05362e-19
18.0947 	-0.655819 	1.04598 	3.1717 	5.05362e-19
18.1648 	-0.655819 	1.04598 	3.1717 	5.05362e-19
18.2349 	-0.655819 	1.04598 	3.1717 	5.05362e-19
18.3051 	-0.655819 	1.04598 	3.1717 	5.05362e-19
18.3752 	-0.370162 	1.01386 	2.77932 	-3.84095e-19
18.4453 	-0.370162 	1.01386 	2.77932 	-3.84095e-19
18.5155 	-0.370162 	1.01386 	2.77932 	-3.84095e-19
18.5856 	-0.370162 	1.01386 	2.77932 	-3.84095e-19
18.6557 	-0.370162 	1.01386 	2.77932 	-3.84095e-19
18.7259 	-0.370162 	1.01386 	2.77932 	-3.84095e-19
18.796 	-0.370162 	1.01386 	2.77932 	-3.84095e-19
18.8662 	-0.3001 	1.04145 	2.84088 	3.37948e-19
18.9363 	-0.3001 	1.04145 	2.84088 	3.37948e-19
19.0064 	-0.3001 	1.04145 	2.84088 	3.37948e-19
19.0766 	-0.3001 	1.04145 	2.84088 	3.37948e-19
19.1467 	-0.3001 	1.04145 	2.84088 	3.37948e-19
19.2168 	-0.3001 	1.04145 	2.84088 	3.37948e-19
19.287 	-0.3001 	1.04145 	2.84088 	3.37948e-19
19.3571 	-0.3001 	1.04145 	2.84088 	3.37948e-19
19.4272 	-0.3001 	1.04145 	2.84088 	3.37948e-19
19.4974 	-0.3001 	1.04145 	2.84088 	3.37948e-19
19.5675 	-0.3001 	1.04145 	2.84088 	3.37948e-19
19.6376 	-0.3001 	1.04145 	2.84088 	3.37948e-19
19.7078 	-0.3001 	1.04145 	2.84088 	3.37948e-19
19.7779 	-0.172047 	0.997865 	2.47366 	-4.29201e-20
19.848 	-0.172047 	0.997865 	2.47366 	-4.29201e-20
19.9182 	-0.172047 	0.997865 	2.47366 	-4.29201e-20
19.9883 	-0.172047 	0.997865 	2.47366 	-4.29201e-20
20.0584 	-0.172047 	0.997865 	2.47366 	-4.29201e-20
20.1286 	-0.172047 	0.997865 	2.47366 	-4.29201e-20
20.1987 	-0.172047 	0.997865 	2.47366 	-4.29201e-20
20.2688 	-0.193062 	1.0037 	2.49892 	-2.40253e-19
20.339 	-0.193062 	1.0037 	2.49892 	-2.40253e-19
20.4091 	-0.193062 	1.0037 	2.49892 	-2.40253e-19
20.4792 	-0.193062 	1.0037 	2.49892 	-2.40253e-19
20.5494 	-0.193062 	1.0037 	2.49892 	-2.40253e-19
20.6195 	-0.193062 	1.0037 	2.49892 	-2.40253e-19
20.6896 	-0.193062 	1.0037 	2.49892 	-2.40253e-19
20.7598 	-0.193062 	1.0037 	2.49892 	-2.40253e-19
20.8299 	-0.193062 	1.0037 	2.49892 	-2.40253e-19
20.9 	-0.193062 	1.0037 	2.49892 	-2.40253e-19
20.9702 	-0.193062 	1.0037 	2.49892 	-2.40253e-19
21.0403 	-0.193062 	1.0037 	2.49892 	-2.40253e-19
21.1105 	-0.193062 	1.0037 	2.49892 	-2.40253e-19
21.1806 	-0.193062 	1.0037 	2.49892 	-2.40253e-19
21.2507 	-0.193062 	1.0037 	2.49892 	-2.40253e-19
21.3209 	-0.193062 	1.0037 	2.49892 	-2.40253e-19
21.391 	-0.193062 	1.0037 	2.49892 	-2.40253e-19
21.4611 	-0.168044 	0.722658 	1.92739 	1.77326e-19
21.5313 	-0.168044 	0.722658 	1.92739 	1.77326e-19
21.6014 	-0.168044 	0.722658 	1.92739 	1.77326e-19
21.6715 	-0.272042 	0.629351 	1.49539 	2.23988e-19
21.7417 	-0.272042 	0.629351 	1.49539 	2.23988e-19
21.8118 	-0.272042 	0.629351 	1.49539 	2.23988e-19
21.8819 	-0.272042 	0.629351 	1.49539 	2.23988e-19
21.9521 	-0.272042 	0.629351 	1.49539 	2.23988e-19
22.0222 	-0.379762 	0.912679 	2.40618 	-3.2702e-19
22.0923 	-0.379762 	0.912679 	2.40618 	-3.2702e-19
22.1625 	-0.379762 	0.912679 	2.40618 	-3.2702e-19
22.2326 	-0.379762 	0.912679 	2.40618 	-3.2702e-19
22.3027 	-0.379762 	0.912679 	2.40618 	-3.2702e-19
22.3729 	-0.379762 	0.912679 	2.40618 	-3.2702e-19
22.443 	-0.379762 	0.912679 	2.40618 	-3.2702e-19
22.5131 	-0.379762 	0.912679 	2.40618 	-3.2702e-19
22.5833 	-0.379762 	0.912679 	2.40618 	-3.2702e-19
22.6534 	-0.379762 	0.912679 	2.40618 	-3.2702e-19
22.7235 	-0.379762 	0.912679 	2.40618 	-3.2702e-19
22.7937 	-0.379762 	0.912679 	2.40618 	-3.2702e-19
22.8638 	-0.379762 	0.912679 	2.40618 	-3.2702e-19
22.9339 	-0.379762 	0.912679 	2.40618 	-3.2702e-19
23.0041 	-0.379762 	0.912679 	2.40618 	-3.2702e-19
23.0742 	-0.379762 	0.912679 	2.40618 	-3.2702e-19
23.1443 	-0.379762 	0.912679 	2.40618 	-3.2702e-19
23.2145 	-0.379762 	0.912679 	2.40618 	-3.2702e-19
23.2846 	-0.379762 	0.912679 	2.40618 	-3.2702e-19
23.3548 	-0.379762 	0.912679 	2.40618 	-3.2702e-19
23.4249 	-0.379762 	0.912679 	2.40618 	-3.2702e-19
23.495 	-0.195765 	0.884018 	2.37823 	4.52357e-20
23.5652 	-0.195765 	0.884018 	2.37823 	4.52357e-20
23.6353 	-0.195765 	0.884018 	2.37823 	4.52357e-20
23.7054 	-0.195765 	0.884018 	2.37823 	4.52357e-20
23.7756 	-0.195765 	0.884018 	2.37823 	4.52357e-20
23.8457 	-0.195765 	0.884018 	2.37823 	4.52357e-20
23.9158 	-0.195765 	0.884018 	2.37823 	4.52357e-20
23.986 	-0.0414454 	0.790426 	2.27558 	-2.05527e-21
24.0561 	-0.0414454 	0.790426 	2.27558 	-2.05527e-21
24.1262 	-0.0414454 	0.790426 	2.27558 	-2.05527e-21
24.1964 	-0.0414454 	0.790426 	2.27558 	-2.05527e-21
24.2665 	-0.0414454 	0.790426 	2.27558 	-2.05527e-21
24.3366 	-0.0414454 	0.790426 	2.27558 	-2.05527e-21
24.4068 	-0.0414454 	0.790426 	2.27558 	-2.05527e-21
24.4769 	-0.0414454 	0.790426 	2.27558 	-2.05527e-21
24.547 	-0.0414454 	0.790426 	2.27558 	-2.05527e-21
24.6172 	-0.0414454 	0.790426 	2.27558 	-2.05527e-21
24.6873 	-0.0414454 	0.790426 	2.27558 	-2.05527e-21
24.7574 	-0.0414454 	0.790426 	2.27558 	-2.05527e-21
24.8276 	-0.0414454 	0.790426 	2.27558 	-2.05527e-21
24.8977 	-0.0414454 	0.790426 	2.27558 	-2.05527e-21
24.9678 	-0.0414454 	0.790426 	2.27558 	-2.05527e-21
25.038 	-0.0414454 	0.790426 	2.27558 	-2.05527e-21
25.1081 	-0.0414454 	0.790426 	2.27558 	-2.05527e-21
25.1782 	-0.0958241 	0.454201 	1.42264 	0
25.2484 	-0.0958241 	0.454201 	1.42264 	0
25.3185 	-0.0958241 	0.454201 	1.42264 	0
25.3886 	-0.0958241 	0.454201 	1.42264 	0
25.4588 	-0.0958241 	0.454201 	1.42264 	0
25.5289 	-0.0958241 	0.454201 	1.42264 	0
25.5991 	-0.0958241 	0.454201 	1.42264 	0
25.6692 	-0.0958241 	0.454201 	1.42264 	0
25.7393 	-0.0958241 	0.454201 	1.42264 	0
25.8095 	-0.0958241 	0.454201 	1.42264 	0
25.8796 	-0.0958241 	0.454201 	1.42264 	0
25.9497 	-0.0958241 	0.454201 	1.42264 	0
26.0199 	-0.0958241 	0.454201 	1.42264 	0
26.09 	-0.0958241 	0.454201 	1.42264 	0
26.1601 	-0.0958241 	0.454201 	1.42264 	0
26.2303 	-0.154041 	0.50217 	1.43042 	3.62492e-19
26.3004 	-0.154041 	0.50217 	1.43042 	3.62492e-19
26.3705 	-0.154041 	0.50217 	1.43042 	3.62492e-19
26.4407 	-0.154041 	0.50217 	1.43042 	3.62492e-19
26.5108 	-0.154041 	0.50217 	1.43042 	3.62492e-19
26.5809 	-0.154041 	0.50217 	1.43042 	3.62492e-19
26.6511 	-0.154041 	0.50217 	1.43042 	3.62492e-19
26.7212 	-0.154041 	0.50217 	1.43042 	3.62492e-19
26.7913 	-0.154041 	0.50217 	1.43042 	3.62492e-19
26.8615 	-0.154041 	0.50217 	1.43042 	3.62492e-19
26.9316 	-0.154041 	0.50217 	1.43042 	3.62492e-19
27.0017 	-0.154041 	0.50217 	1.43042 	3.62492e-19
27.0719 	-0.154041 	0.50217 	1.43042 	3.62492e-19
27.142 	-0.154041 	0.50217 	1.43042 	3.62492e-19
27.2121 	-0.154041 	0.50217 	1.43042 	3.62492e-19
27.2823 	-0.154041 	0.50217 	1.43042 	3.62492e-19
27.3524 	-0.207925 	0.505511 	1.43347 	-3.88744e-19
27.4225 	-0.207925 	0.505511 	1.43347 	-3.88744e-19
27.4927 	-0.207925 	0.505511 	1.43347 	-3.88744e-19
27.5628 	-0.207925 	0.505511 	1.43347 	-3.88744e-19
27.6329 	-0.207925 	0.505511 	1.43347 	-3.88744e-19
27.7031 	-0.207925 	0.505511 	1.43347 	-3.88744e-19
27.7732 	-0.207925 	0.505511 	1.43347 	-3.88744e-19
27.8434 	-0.207925 	0.505511 	1.43347 	-3.88744e-19
27.9135 	-0.207925 	0.505511 	1.43347 	-3.88744e-19
27.9836 	-0.207925 	0.505511 	1.43347 	-3.88744e-19
28.0538 	-0.207925 	0.505511 	1.43347 	-3.88744e-19
28.1239 	-0.207925 	0.505511 	1.43347 	-3.88744e-19
28.194 	-0.207925 	0.505511 	1.43347 	-3.88744e-19
28.2642 	-0.207925 	0.505511 	1.43347 	-3.88744e-19
28.3343 	-0.207925 	0.505511 	1.43347 	-3.88744e-19
28.4044 	-0.207925 	0.505511 	1.43347 	-3.88744e-19
28.4746 	-0.207925 	0.505511 	1.43347 	-3.88744e-19
28.5447 	-0.207925 	0.505511 	1.43347 	-3.88744e-19
28.6148 	-0.207925 	0.505511 	1.43347 	-3.88744e-19
28.685 	-0.207925 	0.505511 	1.43347 	-3.88744e-19
28.7551 	-0.207925 	0.505511 	1.43347 	-3.88744e-19
28.8252 	-0.207925 	0.505511 	1.43347 	-3.88744e-19
28.8954 	-0.207925 	0.505511 	1.43347 	-3.88744e-19
28.9655 	-0.231439 	0.600776 	1.39675 	-2.19479e-20
29.0356 	-0.231439 	0.600776 	1.39675 	-2.19479e-20
29.1058 	-0.231439 	0.600776 	1.39675 	-2.19479e-20
29.1759 	-0.231439 	0.600776 	1.39675 	-2.19479e-20
29.246 	-0.231439 	0.600776 	1.39675 	-2.19479e-20
29.3162 	-0.231439 	0.600776 	1.39675 	-2.19479e-20
29.3863 	-0.231439 	0.600776 	1.39675 	-2.19479e-20
29.4564 	-0.231439 	0.600776 	1.39675 	-2.19479e-20
29.5266 	-0.231439 	0.600776 	1.39675 	-2.19479e-20
29.5967 	-0.231439 	0.600776 	1.39675 	-2.19479e-20
29.6668 	-0.231439 	0.600776 	1.39675 	-2.19479e-20
29.737 	-0.231439 	0.600776 	1.39675 	-2.19479e-20
29.8071 	-0.231439 	0.600776 	1.39675 	-2.19479e-20
29.8773 	-0.231439 	0.600776 	1.39675 	-2.19479e-20
29.9474 	-0.231439 	0.600776 	1.39675 	-2.19479e-20
30.0175 	-0.231439 	0.600776 	1.39675 	-2.19479e-20
30.0877 	-0.231439 	0.600776 	1.39675 	-2.19479e-20
30.1578 	-0.231439 	0.600776 	1.39675 	-2.19479e-20
30.2279 	-0.231439 	0.600776 	1.39675 	-2.19479e-20
30.2981 	-0.231439 	0.600776 	1.39675 	-2.19479e-20
30.3682 	-0.231439 	0.600776 	1.39675 	-2.19479e-20
30.4383 	-0.231439 	0.600776 	1.39675 	-2.19479e-20
30.5085 	-0.231439 	0.600776 	1.39675 	-2.19479e-20
30.5786 	-0.231439 	0.600776 	1.39675 	-2.19479e-20
30.6487 	-0.231439 	0.600776 	1.39675 	-2.19479e-20
30.7189 	-0.231439 	0.600776 	1.39675 	-2.19479e-20
30.789 	-0.459179 	0.600773 	1.30465 	9.93159e-19
30.8591 	-0.459179 	0.600773 	1.30465 	9.93159e-19
30.9293 	-0.459179 	0.600773 	1.30465 	9.93159e-19
30.9994 	-0.459179 	0.600773 	1.30465 	9.93159e-19
31.0695 	-0.459179 	0.600773 	1.30465 	9.93159e-19
31.1397 	-0.459179 	0.600773 	1.30465 	9.93159e-19
31.2098 	-0.459179 	0.600773 	1.30465 	9.93159e-19
31.2799 	-0.459179 	0.600773 	1.30465 	9.93159e-19
31.3501 	-0.459179 	0.600773 	1.30465 	9.93159e-19
31.4202 	-0.459179 	0.600773 	1.30465 	9.93159e-19
31.4903 	-0.459179 	0.600773 	1.30465 	9.93159e-19
31.5605 	-0.459179 	0.600773 	1.30465 	9.93159e-19
31.6306 	-0.459179 	0.600773 	1.30465 	9.93159e-19
31.7007 	-0.459179 	0.600773 	1.30465 	9.93159e-19
31.7709 	-0.459179 	0.600773 	1.30465 	9.93159e-19
31.841 	-0.459179 	0.600773 	1.30465 	9.93159e-19
31.9111 	-0.459179 	0.600773 	1.30465 	9.93159e-19
31.9813 	-0.459179 	0.600773 	1.30465 	9.93159e-19
32.0514 	-0.459179 	0.600773 	1.30465 	9.93159e-19
32.1216 	-0.459179 	0.600773 	1.30465 	9.93159e-19
32.1917 	-0.459179 	0.600773 	1.30465 	9.93159e-19
32.2618 	-0.459179 	0.600773 	1.30465 	9.93159e-19
32.332 	-0.459179 	0.600773 	1.30465 	9.93159e-19
32.4021 	-0.459179 	0.600773 	1.30465 	9.93159e-19
32.4722 	-0.459179 	0.600773 	1.30465 	9.93159e-19
32.5424 	-0.459179 	0.600773 	1.30465 	9.93159e-19
32.6125 	-0.459179 	0.600773 	1.30465 	9.93159e-19
32.6826 	-0.459179 	0.600773 	1.30465 	9.93159e-19
32.7528 	-0.459179 	0.600773 	1.30465 	9.93159e-19
32.8229 	-0.459179 	0.600773 	1.30465 	9.93159e-19
32.893 	-0.459179 	0.600773 	1.30465 	9.93159e-19
32.9632 	-0.459179 	0.600773 	1.30465 	9.93159e-19
33.0333 	-0.459179 	0.600773 	1.30465 	9.93159e-19
33.1034 	-0.459179 	0.600773 	1.30465 	9.93159e-19
33.1736 	-0.459179 	0.600773 	1.30465 	9.93159e-19
33.2437 	-0.459179 	0.600773 	1.30465 	9.93159e-19
33.3138 	-0.459179 	0.600773 	1.30465 	9.93159e-19
33.384 	-0.459179 	0.600773 	1.30465 	9.93159e-19
33.4541 	-0.459179 	0.600773 	1.30465 	9.93159e-19
33.5242 	-0.459179 	0.600773 	1.30465 	9.93159e-19
33.5944 	-0.459179 	0.600773 	1.30465 	9.93159e-19
33.6645 	-0.459179 	0.600773 	1.30465 	9.93159e-19
33.7346 	-0.516759 	0.551789 	1.3283 	-6.52789e-19
33.8048 	-0.516759 	0.551789 	1.3283 	-6.52789e-19
33.8749 	-0.516759 	0.551789 	1.3283 	-6.52789e-19
33.945 	-0.516759 	0.551789 	1.3283 	-6.52789e-19
34.0152 	-0.516759 	0.551789 	1.3283 	-6.52789e-19
34.0853 	-0.516759 	0.551789 	1.3283 	-6.52789e-19
34.1554 	-0.644535 	0.371651 	1.17576 	7.43007e-19
34.2256 	-0.644535 	0.371651 	1.17576 	7.43007e-19
34.2957 	-0.644535 	0.371651 	1.17576 	7.43007e-19
34.3659 	-0.644535 	0.371651 	1.17576 	7.43007e-19
34.436 	-0.644535 	0.371651 	1.17576 	7.43007e-19
34.5061 	-0.644535 	0.371651 	1.17576 	7.43007e-19
34.5763 	-0.644535 	0.371651 	1.17576 	7.43007e-19
34.6464 	-0.644535 	0.371651 	1.17576 	7.43007e-19
34.7165 	-0.515512 	0.308963 	1.88108 	-5.62216e-19
34.7867 	-0.515512 	0.308963 	1.88108 	-5.62216e-19
34.8568 	-0.515512 	0.308963 	1.88108 	-5.62216e-19
34.9269 	-0.515512 	0.308963 	1.88108 	-5.62216e-19
34.9971 	-0.515512 	0.308963 	1.88108 	-5.62216e-19
35.0672 	-0.515512 	0.308963 	1.88108 	-5.62216e-19
35.1373 	-0.515512 	0.308963 	1.88108 	-5.62216e-19
35.2075 	-0.515512 	0.308963 	1.88108 	-5.62216e-19
35.2776 	-0.515512 	0.308963 	1.88108 	-5.62216e-19
35.3477 	-0.515512 	0.308963 	1.88108 	-5.62216e-19
35.4179 	-0.515512 	0.308963 	1.88108 	-5.62216e-19
35.488 	-0.515512 	0.308963 	1.88108 	-5.62216e-19
35.5581 	-0.515512 	0.308963 	1.88108 	-5.62216e-19
35.6283 	-0.515512 	0.308963 	1.88108 	-5.62216e-19
35.6984 	-0.515512 	0.308963 	1.88108 	-5.62216e-19
35.7685 	-0.515512 	0.308963 	1.88108 	-5.62216e-19
35.8387 	-0.515512 	0.308963 	1.88108 	-5.62216e-19
35.9088 	-0.515512 	0.308963 	1.88108 	-5.62216e-19
35.9789 	-0.515512 	0.308963 	1.88108 	-5.62216e-19
36.0491 	-0.482315 	0.113128 	1.84809 	0
36.1192 	-0.482315 	0.113128 	1.84809 	0
36.1893 	-0.482315 	0.113128 	1.84809 	0
36.2595 	-0.482315 	0.113128 	1.84809 	0
36.3296 	-0.482315 	0.113128 	1.84809 	0
36.3997 	-0.482315 	0.113128 	1.84809 	0
36.4699 	-0.482315 	0.113128 	1.84809 	0
36.54 	-0.482315 	0.113128 	1.84809 	0
36.6102 	-0.482315 	0.113128 	1.84809 	0
36.6803 	-0.482315 	0.113128 	1.84809 	0
36.7504 	-0.482315 	0.113128 	1.84809 	0
36.8206 	-0.482315 	0.113128 	1.84809 	0
36.8907 	-0.564271 	-0.185651 	1.84018 	-4.48305e-19
36.9608 	-0.564271 	-0.185651 	1.84018 	-4.48305e-19
37.031 	-0.564271 	-0.185651 	1.84018 	-4.48305e-19
37.1011 	-0.564271 	-0.185651 	1.84018 	-4.48305e-19
37.1712 	-0.564271 	-0.185651 	1.84018 	-4.48305e-19
37.2414 	-0.564271 	-0.185651 	1.84018 	-4.48305e-19
37.3115 	-0.564271 	-0.185651 	1.84018 	-4.48305e-19
37.3816 	-0.564271 	-0.185651 	1.84018 	-4.48305e-19
37.4518 	-0.564271 	-0.185651 	1.84018 	-4.48305e-19
37.5219 	-0.564271 	-0.185651 	1.84018 	-4.48305e-19
37.592 	-0.564271 	-0.185651 	1.84018 	-4.48305e-19
37.6622 	-0.564271 	-0.185651 	1.84018 	-4.48305e-19
37.7323 	-0.564271 	-0.185651 	1.84018 	-4.48305e-19
37.8024 	-0.564271 	-0.185651 	1.84018 	-4.48305e-19
37.8726 	-0.564271 	-0.185651 	1.84018 	-4.48305e-19
37.9427 	-0.564271 	-0.185651 	1.84018 	-4.48305e-19
38.0128 	-0.564271 	-0.185651 	1.84018 	-4.48305e-19
38.083 	-0.564271 	-0.185651 	1.84018 	-4.48305e-19
38.1531 	-0.564271 	-0.185651 	1.84018 	-4.48305e-19
38.2232 	-0.376707 	-0.31452 	1.97387 	5.07875e-19
38.2934 	-0.376707 	-0.31452 	1.97387 	5.07875e-19
38.3635 	-0.376707 	-0.31452 	1.97387 	5.07875e-19
38.4336 	-0.376707 	-0.31452 	1.97387 	5.07875e-19
38.5038 	-0.376707 	-0.31452 	1.97387 	5.07875e-19
38.5739 	-0.376707 	-0.31452 	1.97387 	5.07875e-19
38.644 	-0.376707 	-0.31452 	1.97387 	5.07875e-19
38.7142 	-0.376707 	-0.31452 	1.97387 	5.07875e-19
38.7843 	-0.376707 	-0.31452 	1.97387 	5.07875e-19
38.8545 	-0.376707 	-0.31452 	1.97387 	5.07875e-19
38.9246 	-0.376707 	-0.31452 	1.97387 	5.07875e-19
38.9947 	-0.376707 	-0.31452 	1.97387 	5.07875e-19
39.0649 	-0.376707 	-0.31452 	1.97387 	5.07875e-19
39.135 	-0.376707 	-0.31452 	1.97387 	5.07875e-19
39.2051 	-0.232322 	-0.34937 	1.90747 	0
39.2753 	-0.232322 	-0.34937 	1.90747 	0
39.3454 	-0.232322 	-0.34937 	1.90747 	0
39.4155 	-0.232322 	-0.34937 	1.90747 	0
39.4857 	-0.232322 	-0.34937 	1.90747 	0
39.5558 	-0.232322 	-0.34937 	1.90747 	0
39.6259 	-0.232322 	-0.34937 	1.90747 	0
39.6961 	-0.232322 	-0.34937 	1.90747 	0
39.7662 	-0.232322 	-0.34937 	1.90747 	0
39.8363 	-0.232322 	-0.34937 	1.90747 	0
39.9065 	-0.232322 	-0.34937 	1.90747 	0
39.9766 	-0.232322 	-0.34937 	1.90747 	0
40.0467 	-0.232322 	-0.34937 	1.90747 	0
40.1169 	-0.232322 	-0.34937 	1.90747 	0
40.187 	-0.232322 	-0.34937 	1.90747 	0
40.2571 	-0.232322 	-0.34937 	1.90747 	0
40.3273 	-0.232322 	-0.34937 	1.90747 	0
40.3974 	-0.232322 	-0.34937 	1.90747 	0
40.4675 	-0.232322 	-0.34937 	1.90747 	0
40.5377 	-0.232322 	-0.34937 	1.90747 	0
40.6078 	-0.232322 	-0.34937 	1.90747 	0
40.6779 	-0.208185 	-0.343205 	1.91686 	7.32062e-20
40.7481 	-0.208185 	-0.343205 	1.91686 	7.32062e-20
40.8182 	-0.208185 	-0.343205 	1.91686 	7.32062e-20
40.8883 	-0.208185 	-0.343205 	1.91686 	7.32062e-20
40.9585 	-0.208185 	-0.343205 	1.91686 	7.32062e-20
41.0286 	-0.208185 	-0.343205 	1.91686 	7.32062e-20
41.0988 	-0.208185 	-0.343205 	1.91686 	7.32062e-20
41.1689 	-0.208185 	-0.343205 	1.91686 	7.32062e-20
41.239 	-0.0965429 	-0.341999 	1.90403 	-1.31527e-19
41.3092 	-0.0965429 	-0.341999 	1.90403 	-1.31527e-19
41.3793 	-0.0965429 	-0.341999 	1.90403 	-1.31527e-19
41.4494 	-0.0965429 	-0.341999 	1.90403 	-1.31527e-19
41.5196 	-0.0965429 	-0.341999 	1.90403 	-1.31527e-19
41.5897 	-0.0965429 	-0.341999 	1.90403 	-1.31527e-19
41.6598 	-0.0965429 	-0.341999 	1.90403 	-1.31527e-19
41.73 	-0.0965429 	-0.341999 	1.90403 	-1.31527e-19
41.8001 	-0.0965429 	-0.341999 	1.90403 	-1.31527e-19
41.8702 	-0.0965429 	-0.341999 	1.90403 	-1.31527e-19
41.9404 	-0.0965429 	-0.341999 	1.90403 	-1.31527e-19
42.0105 	-0.0965429 	-0.341999 	1.90403 	-1.31527e-19
42.0806 	-0.0965429 	-0.341999 	1.90403 	-1.31527e-19
42.1508 	-0.0965429 	-0.341999 	1.90403 	-1.31527e-19
42.2209 	-0.0965429 	-0.341999 	1.90403 	-1.31527e-19
42.291 	-0.0965429 	-0.341999 	1.90403 	-1.31527e-19
42.3612 	-0.0965429 	-0.341999 	1.90403 	-1.31527e-19
42.4313 	-0.0965429 	-0.341999 	1.90403 	-1.31527e-19
42.5014 	-0.0965429 	-0.341999 	1.90403 	-1.31527e-19
42.5716 	-0.0965429 	-0.341999 	1.90403 	-1.31527e-19
42.6417 	-0.0965429 	-0.341999 	1.90403 	-1.31527e-19
42.7118 	-0.0454967 	-0.326747 	1.90734 	0
42.782 	-0.0454967 	-0.326747 	1.90734 	0
42.8521 	-0.0454967 	-0.326747 	1.90734 	0
42.9222 	-0.0454967 	-0.326747 	1.90734 	0
42.9924 	0.0223414 	-0.249521 	1.87529 	0
43.0625 	0.0223414 	-0.249521 	1.87529 	0
43.1327 	0.0223414 	-0.249521 	1.87529 	0