/*--------------------------------*- C++ -*----------------------------------*\
| =========                 |                                                 |
| \\      /  F ield         | OpenFOAM: The Open Source CFD Toolbox           |
|  \\    /   O peration     | Version:  2306                                  |
|   \\  /    A nd           | Website:  www.openfoam.com                      |
|    \\/     M anipulation  |                                                 |
\*---------------------------------------------------------------------------*/
FoamFile
{
    version     2.0;
    format      ascii;
    arch        "LSB;label=32;scalar=64";
    class       volScalarField;
    location    "21";
    object      p;
}
// * * * * * * * * * * * * * * * * * * * * * * * * * * * * * * * * * * * * * //

dimensions      [0 2 -2 0 0 0 0];

internalField   nonuniform List<scalar> 
8800
(
0.416482
0.368434
0.330059
0.30142
0.280796
0.266037
0.25542
0.247888
0.242991
0.240819
0.241934
0.245978
0.252505
0.261725
0.274393
0.29192
0.31632
0.349901
0.392321
0.449439
0.249007
0.256215
0.264657
0.268078
0.266166
0.260645
0.253932
0.247752
0.242952
0.240012
0.239591
0.241927
0.246278
0.252143
0.258946
0.265481
0.269555
0.269006
0.262904
0.253899
0.225702
0.231887
0.236102
0.23948
0.241996
0.242802
0.241693
0.23953
0.237428
0.236379
0.237176
0.239395
0.242056
0.244125
0.244541
0.242916
0.239991
0.236291
0.231724
0.227932
0.220567
0.223275
0.226022
0.228364
0.230037
0.231379
0.232289
0.232463
0.232122
0.231943
0.232498
0.233451
0.23405
0.233817
0.232876
0.231561
0.22971
0.227127
0.224651
0.223119
0.215371
0.216801
0.218652
0.220768
0.222576
0.223918
0.224946
0.22579
0.226399
0.226848
0.227258
0.227449
0.227242
0.226689
0.22581
0.224438
0.222589
0.220581
0.21919
0.218372
0.210397
0.211316
0.21263
0.21432
0.216076
0.217684
0.218996
0.220048
0.22095
0.221692
0.2221
0.222103
0.221765
0.22106
0.219924
0.218458
0.216882
0.21543
0.214524
0.213993
0.205631
0.206294
0.207355
0.208805
0.210372
0.211986
0.213549
0.214926
0.216065
0.216966
0.217467
0.21746
0.216969
0.216047
0.214848
0.213543
0.212222
0.211057
0.210373
0.209996
0.201086
0.201577
0.202498
0.203855
0.205347
0.206903
0.208499
0.210039
0.211398
0.212484
0.213114
0.213135
0.212614
0.211721
0.210635
0.209462
0.208265
0.207249
0.206706
0.206435
0.196845
0.197209
0.197997
0.199246
0.200667
0.202118
0.203592
0.205129
0.206664
0.208021
0.208778
0.208849
0.208467
0.207822
0.20698
0.205977
0.20492
0.204058
0.203634
0.20344
0.192894
0.193146
0.193859
0.195075
0.196489
0.19799
0.199571
0.201145
0.202696
0.204153
0.205192
0.205604
0.205496
0.204962
0.204179
0.203267
0.202296
0.201523
0.20119
0.201066
0.189447
0.189598
0.190191
0.191291
0.192588
0.193973
0.195484
0.197161
0.198938
0.200684
0.201996
0.202623
0.202704
0.202448
0.201953
0.201287
0.200513
0.19991
0.199686
0.19962
0.186412
0.186499
0.186918
0.187779
0.188871
0.190119
0.191546
0.193176
0.195013
0.197007
0.198717
0.199806
0.200346
0.200485
0.200341
0.20001
0.199581
0.199256
0.19915
0.199111
0.183292
0.183357
0.183656
0.184319
0.185261
0.186435
0.187897
0.189687
0.191813
0.19421
0.196386
0.197873
0.198752
0.199191
0.199377
0.199386
0.199284
0.199207
0.199176
0.199139
0.179563
0.179621
0.179876
0.180414
0.181229
0.182336
0.183822
0.18574
0.18815
0.191028
0.193793
0.195859
0.197262
0.198171
0.198735
0.19909
0.199291
0.199389
0.199398
0.199357
0.174986
0.175047
0.175317
0.175869
0.176707
0.177919
0.179622
0.181877
0.184767
0.188293
0.191784
0.194464
0.196329
0.197642
0.19853
0.199132
0.199536
0.199722
0.199755
0.199714
0.169493
0.169544
0.169856
0.170538
0.171514
0.172968
0.17497
0.177672
0.181187
0.185547
0.18992
0.193354
0.195814
0.197532
0.198755
0.19964
0.200158
0.200396
0.200456
0.200418
0.163133
0.163174
0.163529
0.164378
0.165605
0.167386
0.169848
0.173159
0.177487
0.182877
0.188354
0.192708
0.195868
0.19811
0.199676
0.200755
0.20138
0.201687
0.201789
0.201753
0.155839
0.155875
0.156291
0.157301
0.158905
0.161066
0.164121
0.168219
0.173578
0.180274
0.187101
0.192558
0.196554
0.199398
0.201396
0.202702
0.203499
0.20391
0.204052
0.204014
0.147376
0.147406
0.147918
0.149085
0.151035
0.153789
0.157578
0.162677
0.169345
0.17768
0.186174
0.192989
0.197991
0.201557
0.204048
0.205697
0.20672
0.207266
0.207448
0.207403
0.137332
0.137376
0.137996
0.139421
0.141799
0.145231
0.149963
0.156367
0.164729
0.175125
0.185666
0.194104
0.200275
0.20472
0.207813
0.209898
0.211213
0.211918
0.212141
0.212083
0.125042
0.125097
0.125879
0.127692
0.130673
0.135004
0.14102
0.149142
0.159669
0.172634
0.185666
0.196036
0.203649
0.209088
0.212901
0.215497
0.217152
0.218028
0.2183
0.218225
0.109731
0.109809
0.110853
0.113222
0.117097
0.122689
0.130449
0.140837
0.154134
0.170281
0.186306
0.198967
0.208222
0.214851
0.219517
0.222722
0.224779
0.225848
0.226176
0.226082
0.0902416
0.0903598
0.0918028
0.0950404
0.100261
0.107691
0.117885
0.131307
0.148147
0.168175
0.187726
0.203035
0.2142
0.222216
0.227891
0.231824
0.234369
0.235697
0.23608
0.235958
0.0647836
0.0649792
0.0671127
0.0717894
0.0791368
0.0893555
0.103038
0.120529
0.141829
0.166494
0.190102
0.208405
0.221739
0.231362
0.238235
0.243047
0.246176
0.247793
0.248244
0.248087
0.030313
0.0307079
0.0342291
0.0416129
0.0525703
0.0671533
0.0858245
0.108669
0.135442
0.16549
0.193625
0.215217
0.23095
0.242399
0.25069
0.256589
0.260463
0.262443
0.262959
0.262753
-0.0190055
-0.0175688
-0.0104336
0.00247033
0.0197143
0.041029
0.066577
0.0961857
0.12941
0.165463
0.19846
0.223533
0.241832
0.255292
0.265225
0.272465
0.277319
0.2798
0.280401
0.280122
-0.092334
-0.0838433
-0.06747
-0.0446305
-0.0179508
0.0123256
0.0462789
0.0836889
0.124094
0.166733
0.205071
0.234062
0.255364
0.27129
0.283381
0.292553
0.298964
0.302432
0.303378
0.303244
-0.170494
-0.15177
-0.125514
-0.0922709
-0.0558572
-0.0164934
0.0259591
0.0713829
0.119411
0.169414
0.214182
0.248221
0.273563
0.29288
0.307928
0.319739
0.328472
0.333656
0.335397
0.335437
-0.234368
-0.212788
-0.178371
-0.136713
-0.0917563
-0.043909
0.00668836
0.0598688
0.115268
0.172281
0.222995
0.261532
0.29034
0.31246
0.329799
0.343425
0.35369
0.359889
0.361388
0.361609
-0.286193
-0.262452
-0.223171
-0.175492
-0.123851
-0.0690099
-0.0113199
0.0488669
0.111061
0.174559
0.230637
0.273006
0.304538
0.32864
0.347457
0.362246
0.373333
0.379992
0.381843
0.382183
-0.32872
-0.304022
-0.261221
-0.208978
-0.15207
-0.0915507
-0.0278776
0.0384334
0.106699
0.17604
0.236854
0.28243
0.316048
0.341525
0.361259
0.376696
0.388125
0.395066
0.397262
0.397601
-0.364996
-0.339756
-0.294387
-0.238452
-0.177205
-0.111924
-0.0431353
0.0285264
0.102211
0.176816
0.241874
0.29019
0.325469
0.351923
0.372183
0.38784
0.399348
0.406338
0.408676
0.408974
-0.396967
-0.371417
-0.324065
-0.265088
-0.200206
-0.130801
-0.0575012
0.0189344
0.0975428
0.177006
0.245985
0.296835
0.333599
0.360832
0.381409
0.397119
0.408576
0.415548
0.418001
0.418286
-0.426081
-0.400248
-0.351277
-0.28972
-0.221718
-0.148704
-0.0713947
0.00937961
0.0925422
0.176606
0.249394
0.302691
0.340839
0.368788
0.389681
0.405449
0.416873
0.423787
0.426322
0.426586
-0.453194
-0.42711
-0.376736
-0.312967
-0.242236
-0.166039
-0.0851348
-0.00039486
0.0870314
0.175507
0.252023
0.3078
0.347438
0.376225
0.39752
0.413435
0.42488
0.431645
0.434191
0.434522
-0.478995
-0.452609
-0.400931
-0.335274
-0.262104
-0.183073
-0.0989374
-0.0105743
0.0808365
0.173566
0.253891
0.312372
0.353706
0.383471
0.405284
0.421425
0.432919
0.439595
0.442065
0.442393
-0.503771
-0.477049
-0.424212
-0.356899
-0.281546
-0.199992
-0.112949
-0.0212698
0.0738827
0.170807
0.255075
0.316449
0.3597
0.390649
0.413145
0.429636
0.44125
0.447879
0.450215
0.450473
-0.527861
-0.500734
-0.447007
-0.378024
-0.300721
-0.216913
-0.12724
-0.0325223
0.0661553
0.16716
0.255438
0.319968
0.365426
0.397821
0.421193
0.43817
0.449968
0.456567
0.458745
0.45891
-0.551312
-0.523702
-0.469207
-0.398724
-0.319702
-0.233875
-0.141842
-0.0443535
0.0575851
0.162495
0.254879
0.322861
0.370867
0.404982
0.42944
0.447038
0.459083
0.465654
0.467695
0.467722
-0.574204
-0.546193
-0.490839
-0.419053
-0.338502
-0.250889
-0.15676
-0.0567935
0.0481268
0.156772
0.253298
0.324988
0.375908
0.41208
0.437857
0.456214
0.468547
0.475044
0.476924
0.476825
-0.596625
-0.568124
-0.511951
-0.439013
-0.357121
-0.267928
-0.171955
-0.0697986
0.0378233
0.149964
0.250571
0.326178
0.380386
0.419021
0.446402
0.465648
0.478277
0.484627
0.486287
0.486079
-0.618564
-0.589521
-0.532566
-0.458579
-0.375496
-0.284936
-0.187358
-0.0832898
0.026724
0.142042
0.246597
0.326247
0.384103
0.425675
0.455047
0.475332
0.488199
0.494289
0.495662
0.495355
-0.639865
-0.610321
-0.552622
-0.477708
-0.39358
-0.301833
-0.202891
-0.0971805
0.0148914
0.133042
0.241295
0.324998
0.386791
0.431845
0.463781
0.485351
0.498279
0.503834
0.504815
0.504415
-0.660481
-0.630467
-0.572087
-0.49634
-0.411308
-0.318552
-0.218456
-0.111387
0.00242412
0.123014
0.234623
0.322259
0.388144
0.437207
0.472529
0.495979
0.508766
0.513165
0.513473
0.513015
-0.680479
-0.649916
-0.590925
-0.514434
-0.428612
-0.335007
-0.233961
-0.125792
-0.0105657
0.112049
0.226569
0.317898
0.387836
0.441264
0.48099
0.50761
0.520584
0.522772
0.521448
0.520954
-0.699685
-0.668662
-0.60908
-0.531924
-0.445432
-0.351115
-0.249308
-0.140275
-0.0239487
0.100272
0.21718
0.311821
0.385581
0.443333
0.488363
0.520189
0.535451
0.535377
0.530155
0.528361
-0.718184
-0.686698
-0.62657
-0.548836
-0.461802
-0.366924
-0.264551
-0.154901
-0.0377959
0.0876161
0.206335
0.303788
0.381087
0.442598
0.493152
0.532357
0.553969
0.556714
0.546271
0.531214
-0.735917
-0.704024
-0.643527
-0.565354
-0.478006
-0.38276
-0.280102
-0.170156
-0.0526607
0.073408
0.193326
0.292912
0.373602
0.437861
0.492241
0.539196
0.567479
0.567961
0.552238
0.535287
-0.752728
-0.720692
-0.65979
-0.581249
-0.49379
-0.398302
-0.295738
-0.185703
-0.0682075
0.0579695
0.178375
0.278966
0.362741
0.428603
0.480691
0.528823
0.556838
0.545597
0.476123
0.439041
-0.768215
-0.737849
-0.674958
-0.595946
-0.508461
-0.413066
-0.311181
-0.201302
-0.0841907
0.0414763
0.16155
0.261828
0.347802
0.415381
0.45761
0.489689
0.502303
0.456682
0.382393
0.335992
-0.81665
-0.753424
-0.688756
-0.610564
-0.523157
-0.428234
-0.326416
-0.217156
-0.100888
0.0235817
0.142428
0.241277
0.326164
0.399967
0.4115
0.420193
0.391291
0.327964
0.24705
0.201841
-0.78313
-0.76688
-0.708777
-0.63185
-0.544683
-0.450293
-0.349553
-0.241454
-0.126909
-0.00501615
0.110329
0.205566
0.28171
0.353503
0.35747
0.245766
0.13749
0.0630686
-0.0138444
0.0274374
-0.812902
-0.783878
-0.724881
-0.64802
-0.561275
-0.467341
-0.36666
-0.259504
-0.146448
-0.0269662
0.0847866
0.175711
0.243859
0.282527
0.235732
0.0823535
-0.0557654
-0.153619
-0.257452
-0.195104
-0.835298
-0.803737
-0.743388
-0.666228
-0.579663
-0.485953
-0.385612
-0.279576
-0.168322
-0.0517934
0.0556239
0.140757
0.199079
0.207024
0.0950202
-0.0967311
-0.265668
-0.398951
-0.548592
-0.483658
-0.856903
-0.824015
-0.762643
-0.684826
-0.598198
-0.504714
-0.405067
-0.300271
-0.191
-0.0777531
0.0246192
0.103156
0.148203
0.117948
-0.0553873
-0.278528
-0.491456
-0.687776
-0.908369
-0.882072
-0.877643
-0.844602
-0.782525
-0.704135
-0.617411
-0.524216
-0.425369
-0.321918
-0.214856
-0.105235
-0.00846672
0.0628987
0.0900927
0.0229014
-0.200875
-0.447922
-0.698325
-0.917629
-1.21811
-1.52494
-0.898493
-0.865706
-0.803257
-0.724506
-0.637685
-0.544741
-0.446622
-0.344529
-0.239753
-0.133938
-0.0429655
0.0204063
0.0299961
-0.089801
-0.329102
-0.583433
-0.836473
-1.04063
-1.14038
-1.31687
-0.920182
-0.887613
-0.825095
-0.74623
-0.659432
-0.566822
-0.469516
-0.36894
-0.266748
-0.1652
-0.0805177
-0.0266772
-0.0417118
-0.211176
-0.444173
-0.683119
-0.896433
-1.01777
-1.0436
-1.06779
-0.943003
-0.910653
-0.848159
-0.769332
-0.682712
-0.590579
-0.494294
-0.395512
-0.296309
-0.199653
-0.121832
-0.079236
-0.122123
-0.323238
-0.549711
-0.762418
-0.926664
-0.986578
-1.00205
-1.00468
-0.967132
-0.934895
-0.872472
-0.793738
-0.707407
-0.615936
-0.520875
-0.424183
-0.328379
-0.237255
-0.166757
-0.13779
-0.204942
-0.429658
-0.647624
-0.837598
-0.960242
-0.974036
-0.978172
-0.978389
-0.992478
-0.960183
-0.897971
-0.819373
-0.733445
-0.642778
-0.549138
-0.45482
-0.362811
-0.277797
-0.215349
-0.199746
-0.298349
-0.528846
-0.737965
-0.905007
-0.953744
-0.965438
-0.967516
-0.967245
-1.01874
-0.986371
-0.924495
-0.846069
-0.760642
-0.670925
-0.578905
-0.487201
-0.399414
-0.320877
-0.267419
-0.263384
-0.406697
-0.62406
-0.816696
-0.953663
-0.972125
-0.964805
-0.962711
-0.961712
-1.04536
-1.01322
-0.951558
-0.873533
-0.788707
-0.700077
-0.609849
-0.520954
-0.437773
-0.366009
-0.321981
-0.33418
-0.513376
-0.724935
-0.874997
-0.960155
-0.969335
-0.963481
-0.958984
-0.957618
-1.07185
-1.04018
-0.978789
-0.901302
-0.817198
-0.729761
-0.64148
-0.555539
-0.477148
-0.412665
-0.377374
-0.410386
-0.610337
-0.838791
-0.935899
-0.922677
-0.952824
-0.959319
-0.958131
-0.957193
-1.0974
-1.06629
-1.00562
-0.928774
-0.845478
-0.759354
-0.673089
-0.59022
-0.516428
-0.459957
-0.432777
-0.487428
-0.701644
-0.963074
-1.11745
-1.05203
-1.05635
-1.05106
-1.0471
-1.04013
-1.12095
-1.09054
-1.03137
-0.955118
-0.872801
-0.788011
-0.703732
-0.623943
-0.554311
-0.506068
-0.487918
-0.564841
-0.806839
-1.07156
-1.48524
-1.52885
-1.32526
-1.28543
-1.26774
-1.25586
-1.14123
-1.11216
-1.05433
-0.97937
-0.898166
-0.814738
-0.732254
-0.655217
-0.589468
-0.547953
-0.541892
-0.632259
-0.914615
-1.05784
-1.10364
-1.13972
-1.3552
-1.46238
-1.43594
-1.43045
-1.15685
-1.12963
-1.07383
-1.00027
-0.920349
-0.838295
-0.75742
-0.682244
-0.619962
-0.582199
-0.591457
-0.687247
-0.971547
-0.940834
-0.582304
-0.809908
-1.26487
-1.43309
-1.44587
-1.45608
-1.16652
-1.1417
-1.08851
-1.0167
-0.938138
-0.857373
-0.777666
-0.703341
-0.642523
-0.60721
-0.627639
-0.756242
-1.16839
-1.65891
-2.08643
-2.51035
-2.55595
-2.18644
-1.84856
-1.79896
-1.16861
-1.14706
-1.0972
-1.02756
-0.950419
-0.870684
-0.791494
-0.716919
-0.654284
-0.618205
-0.636784
-0.818826
-1.40785
-2.3903
-3.28843
-3.71841
-3.68045
-3.33688
-2.90598
-2.67824
-1.16257
-1.14464
-1.09892
-1.03202
-0.956329
-0.877334
-0.797744
-0.721265
-0.65377
-0.606802
-0.611235
-0.74755
-1.261
-1.89846
-2.59597
-2.90909
-2.83726
-2.55507
-2.25645
-2.07498
-1.14726
-1.13298
-1.09302
-1.02979
-0.955586
-0.876918
-0.79608
-0.715944
-0.639797
-0.572669
-0.536958
-0.494796
-0.627016
-0.68538
-0.644254
-0.471738
-0.187697
0.0713677
0.254485
0.33736
-1.12387
-1.11353
-1.07979
-1.0211
-0.948483
-0.869809
-0.787331
-0.702199
-0.614165
-0.525215
-0.423516
-0.312227
-0.0331261
0.418677
0.95695
1.49497
1.91764
2.17998
2.30489
2.34048
-1.09456
-1.08809
-1.06122
-1.00729
-0.936043
-0.85736
-0.773388
-0.684165
-0.588074
-0.476575
-0.350434
-0.205245
0.0676593
0.633567
1.31494
1.92075
2.35975
2.61504
2.7319
2.76804
-1.06215
-1.05874
-1.03942
-0.989635
-0.919468
-0.841165
-0.757229
-0.667183
-0.567213
-0.449429
-0.32388
-0.189032
-0.0200938
0.413009
0.979648
1.4601
1.81605
2.02491
2.12718
2.16273
-1.02768
-1.02645
-1.01309
-0.967739
-0.898915
-0.821459
-0.740188
-0.653191
-0.556703
-0.443395
-0.324904
-0.224012
-0.135299
0.097885
0.47702
0.805357
1.05634
1.21074
1.28907
1.31414
-0.975251
-0.976213
-0.967108
-0.928465
-0.865718
-0.794413
-0.720683
-0.642336
-0.554063
-0.448649
-0.338615
-0.258251
-0.204338
-0.0669829
0.195216
0.420924
0.586861
0.689934
0.745525
0.759565
-0.891922
-0.89229
-0.885634
-0.858211
-0.81116
-0.755774
-0.696839
-0.632159
-0.554531
-0.457743
-0.353674
-0.273981
-0.228206
-0.138572
0.0400576
0.180173
0.2808
0.340031
0.366845
0.373556
-0.798477
-0.797695
-0.792568
-0.776938
-0.748394
-0.712319
-0.67132
-0.622854
-0.559659
-0.471518
-0.368317
-0.28168
-0.222155
-0.164922
-0.0688458
0.0162511
0.0756548
0.110103
0.125871
0.128241
-0.728806
-0.727304
-0.72373
-0.716077
-0.701013
-0.68051
-0.655434
-0.623257
-0.575616
-0.499399
-0.393
-0.28879
-0.211666
-0.162127
-0.121984
-0.0821855
-0.0488485
-0.0266604
-0.0152092
-0.0148087
-0.697256
-0.695916
-0.693714
-0.68988
-0.682627
-0.672405
-0.660383
-0.645258
-0.61927
-0.564864
-0.46342
-0.343569
-0.24815
-0.217342
-0.188139
-0.155915
-0.127731
-0.107102
-0.0966802
-0.0975128
-0.695651
-0.694935
-0.694127
-0.693143
-0.691637
-0.690973
-0.693927
-0.702799
-0.714921
-0.712434
-0.636954
-0.492932
-0.37667
-0.332224
-0.306475
-0.258852
-0.211043
-0.176939
-0.161696
-0.163212
-0.709357
-0.70955
-0.71071
-0.713227
-0.7186
-0.730225
-0.754345
-0.801195
-0.882646
-0.979002
-0.963599
-0.774114
-0.602697
-0.534535
-0.470215
-0.386294
-0.307661
-0.252022
-0.229982
-0.233922
-0.722383
-0.723699
-0.727133
-0.733764
-0.747142
-0.773444
-0.824297
-0.923131
-1.10761
-1.36815
-1.43478
-1.18361
-0.915462
-0.775351
-0.661654
-0.532011
-0.422564
-0.351871
-0.332621
-0.336879
-0.717713
-0.720093
-0.725321
-0.735667
-0.756273
-0.795715
-0.872027
-1.02357
-1.31534
-1.74885
-1.91195
-1.59971
-1.24569
-1.03732
-0.870374
-0.71055
-0.591099
-0.527046
-0.514975
-0.51839
-0.68144
-0.684341
-0.690455
-0.702707
-0.727049
-0.773404
-0.863445
-1.04253
-1.38699
-1.91055
-2.10367
-1.79016
-1.42164
-1.21148
-1.01924
-0.884014
-0.808766
-0.775764
-0.76294
-0.761674
-0.608633
-0.611358
-0.617063
-0.628525
-0.651564
-0.695759
-0.78112
-0.951966
-1.28459
-1.76164
-1.9222
-1.66378
-1.39525
-1.20442
-1.04772
-0.975161
-0.962458
-0.954539
-0.939818
-0.933642
-0.506129
-0.5081
-0.512256
-0.520749
-0.538278
-0.572113
-0.637427
-0.767614
-1.02227
-1.38674
-1.52174
-1.36789
-1.18146
-1.00985
-0.918609
-0.906537
-0.929146
-0.930793
-0.922019
-0.916431
-0.389294
-0.390268
-0.392423
-0.397134
-0.407418
-0.427622
-0.46666
-0.543916
-0.69554
-0.922823
-1.02167
-0.936897
-0.801839
-0.701218
-0.681637
-0.722851
-0.751786
-0.757711
-0.755929
-0.753601
-0.275449
-0.275551
-0.276029
-0.27751
-0.281478
-0.289742
-0.305864
-0.337528
-0.399087
-0.498171
-0.545167
-0.487335
-0.425089
-0.419285
-0.473168
-0.521688
-0.543056
-0.548487
-0.549999
-0.549558
-0.177717
-0.177287
-0.176773
-0.176318
-0.17631
-0.176936
-0.178585
-0.182153
-0.188661
-0.192016
-0.174553
-0.153792
-0.180194
-0.2425
-0.303607
-0.340266
-0.355258
-0.362184
-0.364904
-0.365401
-0.102286
-0.101663
-0.100818
-0.0996726
-0.0980051
-0.0952346
-0.0905395
-0.082622
-0.0693405
-0.0474177
-0.0233097
-0.0232891
-0.0732425
-0.133519
-0.178368
-0.204141
-0.215829
-0.221226
-0.224301
-0.225187
-0.0492519
-0.0486629
-0.0478897
-0.0468316
-0.0450148
-0.041653
-0.0357492
-0.0259356
-0.0107523
0.0093737
0.0219378
0.0116487
-0.0267845
-0.0685282
-0.0989808
-0.115979
-0.124063
-0.128273
-0.130763
-0.131571
-0.0151121
-0.0146578
-0.0141147
-0.0134409
-0.0121398
-0.00947423
-0.00466673
0.00317413
0.0145023
0.0271469
0.030411
0.017762
-0.00800992
-0.0341877
-0.0530973
-0.0639667
-0.0693828
-0.0721998
-0.0738674
-0.0744245
0.00483683
0.00514433
0.00546211
0.00572576
0.0064053
0.00807438
0.0112529
0.0163814
0.0233127
0.0297097
0.028221
0.0169753
7.70581e-05
-0.0159492
-0.027522
-0.0343631
-0.0378755
-0.0396926
-0.0407243
-0.0410646
0.014958
0.0151465
0.0152873
0.0152608
0.0154508
0.0162681
0.0180354
0.0209279
0.0245793
0.0270549
0.0238237
0.0149652
0.00391568
-0.00599244
-0.0131488
-0.0175247
-0.019857
-0.0210466
-0.0216795
-0.0218822
0.0186715
0.0187771
0.018804
0.0186113
0.0185029
0.018734
0.0195092
0.0208651
0.02243
0.0228057
0.0193877
0.0128268
0.00557414
-0.000669663
-0.00519115
-0.00805005
-0.00963596
-0.010433
-0.010825
-0.0109476
0.0183973
0.0184515
0.018419
0.0181683
0.0179075
0.0178064
0.0179895
0.0184382
0.018849
0.0182781
0.015311
0.010639
0.00587025
0.00187929
-0.00102455
-0.00291487
-0.00399756
-0.00453485
-0.00478344
-0.00485952
0.0157269
0.0157523
0.0156978
0.0154508
0.0151466
0.0149016
0.0147915
0.0147853
0.0146657
0.0138288
0.0115379
0.00835247
0.0052638
0.00272568
0.00086677
-0.000374418
-0.00110506
-0.0014642
-0.00161854
-0.00166257
0.0116501
0.0116603
0.011605
0.0113948
0.0111191
0.0108599
0.0106635
0.0105028
0.010237
0.00950672
0.0079481
0.00594423
0.00406095
0.00252795
0.00139426
0.000617799
0.000148893
-7.88589e-05
-0.000173223
-0.000201161
0.00675851
0.0067609
0.00671778
0.00656912
0.00637542
0.00619445
0.00604558
0.00591086
0.00571427
0.00527572
0.0044353
0.00340126
0.00244739
0.0016739
0.00109523
0.00068652
0.000430739
0.000306535
0.000253588
0.000236686
0.00142121
0.00143019
0.00147834
0.00151888
0.00148842
0.00143219
0.00137256
0.00131495
0.00124683
0.0011419
0.000961919
0.000718459
0.000484458
0.000285557
0.000131523
2.30088e-05
-2.9948e-05
-1.26547e-05
3.21771e-05
5.43087e-05
-0.670645
-0.443155
-0.202974
-0.0058036
0.152966
0.280552
0.388282
0.478424
0.516009
0.500403
-0.277184
-0.130487
0.0208014
0.151651
0.262487
0.35512
0.430024
0.482943
0.511049
0.523322
-0.0166692
0.0812829
0.182558
0.273202
0.351329
0.416767
0.468628
0.506794
0.534105
0.551399
0.166911
0.234484
0.3058
0.371023
0.427637
0.475502
0.51464
0.545906
0.57052
0.588412
0.306917
0.355258
0.407959
0.456588
0.499781
0.537251
0.569123
0.595642
0.616794
0.63449
0.420263
0.456629
0.49898
0.537743
0.57315
0.604784
0.632297
0.655404
0.673332
0.690811
0.518563
0.549453
0.586041
0.620337
0.652064
0.680783
0.705842
0.726592
0.74181
0.759227
0.610784
0.641441
0.676944
0.710407
0.741151
0.76873
0.792438
0.811468
0.824537
0.842015
0.708352
0.742604
0.779961
0.814512
0.845269
0.872033
0.89444
0.911907
0.923638
0.941475
0.824679
0.863522
0.902308
0.937078
0.96678
0.991822
1.01242
1.02836
1.03988
1.05826
0.970339
1.01014
1.04582
1.07649
1.10232
1.12459
1.14378
1.15945
1.17222
1.19038
1.14526
1.17764
1.20365
1.22611
1.2463
1.26517
1.2829
1.29954
1.31535
1.33357
1.33313
1.35083
1.36654
1.38325
1.39949
1.4141
1.4272
1.44122
1.45836
1.47806
1.51513
1.526
1.53819
1.54902
1.55831
1.56794
1.57891
1.59054
1.60052
1.61571
1.72609
1.72815
1.71301
1.6978
1.69149
1.6972
1.71582
1.74626
1.77843
1.80918
2.03202
1.89498
1.81874
1.77674
1.75932
1.76336
1.79076
1.8469
1.95036
2.16565
0.312766
0.309391
0.303468
0.293666
0.28073
0.268313
0.258003
0.250048
0.244361
0.241006
0.240503
0.243071
0.248031
0.255148
0.264482
0.276091
0.289161
0.30111
0.308544
0.313249
0.230767
0.236654
0.243569
0.248819
0.251676
0.251358
0.248463
0.244539
0.240936
0.238559
0.238253
0.240276
0.243798
0.248006
0.251828
0.253734
0.252549
0.248399
0.242461
0.235398
0.223102
0.22545
0.228817
0.231748
0.233987
0.235807
0.236777
0.236514
0.235449
0.234464
0.234466
0.235692
0.237308
0.238413
0.238315
0.237023
0.235116
0.232691
0.229476
0.226487
0.217948
0.219033
0.220926
0.223355
0.225363
0.226795
0.227911
0.228766
0.229194
0.229332
0.229637
0.230191
0.230508
0.230268
0.229565
0.228533
0.226987
0.224806
0.222604
0.221162
0.212859
0.213508
0.214655
0.216451
0.218336
0.22002
0.221325
0.222344
0.223213
0.223933
0.224456
0.224679
0.224546
0.224101
0.223316
0.222072
0.220435
0.218688
0.217242
0.216431
0.207989
0.20843
0.209265
0.210681
0.212311
0.213971
0.21554
0.216884
0.217988
0.218912
0.219569
0.219788
0.219579
0.218956
0.217919
0.216599
0.215167
0.213778
0.212703
0.212156
0.203323
0.203638
0.204307
0.205541
0.207021
0.208581
0.210194
0.211753
0.213123
0.214237
0.21503
0.215327
0.215061
0.214312
0.213239
0.212026
0.210786
0.209584
0.208707
0.208306
0.198931
0.199154
0.199703
0.200822
0.202236
0.203717
0.205229
0.206788
0.208335
0.209716
0.210707
0.211045
0.210773
0.210108
0.209229
0.208205
0.207083
0.206008
0.205277
0.204981
0.194822
0.194972
0.195424
0.196444
0.197793
0.199239
0.200725
0.202228
0.203741
0.20523
0.206423
0.206976
0.206974
0.206579
0.205888
0.205
0.204002
0.203057
0.202453
0.20224
0.191098
0.191178
0.19155
0.192513
0.193834
0.19526
0.196798
0.198438
0.200128
0.201775
0.203196
0.204052
0.204251
0.203972
0.203379
0.202623
0.201752
0.200903
0.2004
0.200264
0.187908
0.187942
0.188206
0.18897
0.190083
0.19132
0.192675
0.194189
0.195902
0.197765
0.199506
0.200688
0.201247
0.201387
0.201216
0.200811
0.200254
0.199685
0.199374
0.199304
0.184901
0.184912
0.185095
0.185655
0.186562
0.187682
0.189014
0.1906
0.192442
0.194524
0.196648
0.198291
0.199265
0.199708
0.199833
0.199739
0.199525
0.199278
0.199158
0.19912
0.181527
0.181543
0.181696
0.182114
0.182838
0.183837
0.185107
0.18674
0.188794
0.191254
0.193877
0.196028
0.197447
0.198348
0.198824
0.199117
0.199245
0.199291
0.1993
0.199276
0.177391
0.177404
0.177552
0.177934
0.178593
0.179566
0.180915
0.182719
0.185058
0.187971
0.191216
0.194023
0.196009
0.197347
0.198241
0.198838
0.199248
0.199493
0.199573
0.199557
0.172355
0.172357
0.172515
0.172968
0.173711
0.174816
0.176374
0.178506
0.181333
0.184893
0.188931
0.192481
0.195044
0.196841
0.198119
0.198953
0.199582
0.199934
0.200055
0.200054
0.166428
0.166415
0.166596
0.167125
0.168051
0.169384
0.171272
0.17386
0.177286
0.181663
0.186687
0.191176
0.19448
0.196839
0.198487
0.199681
0.200447
0.200864
0.201027
0.201043
0.159618
0.159589
0.159785
0.160432
0.161583
0.163303
0.165588
0.168783
0.173014
0.178433
0.184681
0.190319
0.194499
0.197497
0.199618
0.201096
0.202028
0.202557
0.202788
0.202821
0.151772
0.151727
0.151971
0.152732
0.154131
0.156258
0.159152
0.163078
0.168326
0.175058
0.182833
0.189866
0.195115
0.198905
0.201576
0.203412
0.204588
0.205279
0.205589
0.205636
0.142583
0.142528
0.142824
0.143766
0.145459
0.14804
0.151635
0.156564
0.16313
0.171528
0.181201
0.189937
0.196466
0.201168
0.20451
0.206803
0.208311
0.209215
0.209616
0.209672
0.131475
0.131409
0.131807
0.13299
0.135079
0.138268
0.142797
0.149029
0.157295
0.167808
0.17983
0.190627
0.19866
0.204494
0.20861
0.211456
0.213359
0.214515
0.215015
0.215082
0.117754
0.117675
0.118225
0.119746
0.122414
0.126473
0.13227
0.140224
0.15071
0.163901
0.178803
0.192068
0.201917
0.209033
0.214074
0.217578
0.219946
0.221389
0.222008
0.222084
0.100478
0.100392
0.101177
0.103222
0.106736
0.112065
0.119641
0.129937
0.143318
0.159859
0.178238
0.19441
0.20635
0.214979
0.221112
0.225401
0.228318
0.230092
0.230849
0.230933
0.078172
0.0780896
0.0792668
0.082147
0.0869963
0.0942755
0.104442
0.117966
0.135113
0.155798
0.178295
0.197816
0.212151
0.222524
0.229937
0.235164
0.238747
0.240925
0.241835
0.241931
0.0485282
0.0484998
0.0503875
0.0547306
0.0618395
0.0722183
0.0862402
0.104222
0.126225
0.151929
0.179175
0.202453
0.219461
0.231811
0.240715
0.247067
0.251467
0.254134
0.255228
0.255329
0.0073786
0.00756531
0.0110318
0.0184117
0.0296946
0.0451922
0.0649392
0.0889431
0.116999
0.14857
0.181108
0.208459
0.228358
0.242889
0.253504
0.261213
0.266654
0.26994
0.271233
0.271328
-0.0530568
-0.0515779
-0.0432131
-0.0292656
-0.010264
0.013394
0.0411523
0.0728034
0.108001
0.146115
0.1843
0.215891
0.238795
0.255631
0.268123
0.277402
0.284087
0.288173
0.289735
0.289837
-0.125635
-0.122945
-0.107039
-0.0827292
-0.0531989
-0.0200556
0.0164629
0.0563113
0.0992246
0.144649
0.189519
0.226551
0.253645
0.273909
0.289294
0.301068
0.309856
0.315192
0.316928
0.317287
-0.199986
-0.192076
-0.168595
-0.134289
-0.0950369
-0.0526902
-0.00745871
0.040584
0.0912243
0.144001
0.195662
0.238237
0.269557
0.293265
0.311622
0.325987
0.336977
0.343317
0.346175
0.346959
-0.258404
-0.249026
-0.220764
-0.179706
-0.132968
-0.0828869
-0.0299276
0.0256795
0.0835964
0.143304
0.201261
0.248787
0.283689
0.310106
0.33056
0.346556
0.358739
0.366361
0.370144
0.371152
-0.305903
-0.295968
-0.26427
-0.218448
-0.16606
-0.109848
-0.050469
0.0116939
0.0761383
0.142171
0.20582
0.257635
0.295415
0.323817
0.345674
0.36273
0.375761
0.384274
0.388437
0.389479
-0.345407
-0.335356
-0.301513
-0.251937
-0.195037
-0.133843
-0.0691052
-0.00130863
0.0688734
0.140577
0.209321
0.264862
0.304972
0.334824
0.357582
0.375191
0.388581
0.397466
0.401766
0.402871
-0.379723
-0.369655
-0.334229
-0.281663
-0.22103
-0.155638
-0.0862835
-0.013552
0.0617459
0.138577
0.211981
0.270862
0.312989
0.344012
0.367385
0.385233
0.398669
0.40764
0.411908
0.413078
-0.410402
-0.400357
-0.363736
-0.308684
-0.244949
-0.175947
-0.102518
-0.025383
0.0545744
0.136152
0.213938
0.276022
0.32006
0.352113
0.375964
0.39398
0.407423
0.416415
0.420695
0.421782
-0.43864
-0.428585
-0.390975
-0.333808
-0.267421
-0.195258
-0.118236
-0.0371206
0.0471257
0.133189
0.215217
0.280423
0.326334
0.359444
0.38383
0.402077
0.415584
0.424554
0.428865
0.429788
-0.465199
-0.455108
-0.416623
-0.357653
-0.288911
-0.213958
-0.133732
-0.0490083
0.0392038
0.129515
0.215679
0.284083
0.332039
0.366374
0.391419
0.409968
0.423577
0.432546
0.436836
0.437667
-0.490551
-0.480404
-0.441146
-0.38058
-0.309734
-0.232289
-0.149198
-0.0612103
0.0306648
0.125018
0.215347
0.287168
0.337369
0.373101
0.39896
0.417941
0.431742
0.440726
0.444974
0.445776
-0.515077
-0.504806
-0.46472
-0.402856
-0.330088
-0.25043
-0.164769
-0.0738169
0.0214579
0.119702
0.214207
0.289603
0.342319
0.379697
0.406576
0.426143
0.44024
0.449289
0.453423
0.454203
-0.538955
-0.528483
-0.487737
-0.424588
-0.350102
-0.268476
-0.180501
-0.0868574
0.0115584
0.113492
0.212112
0.291286
0.346841
0.386176
0.414302
0.434618
0.449106
0.458251
0.462275
0.463005
-0.56222
-0.551559
-0.510236
-0.445815
-0.369828
-0.286446
-0.196414
-0.100353
0.000916318
0.106285
0.208977
0.292131
0.350839
0.392469
0.422113
0.443357
0.458333
0.467592
0.471485
0.472103
-0.585008
-0.574093
-0.532118
-0.466593
-0.389281
-0.304349
-0.212501
-0.114299
-0.0104663
0.0980969
0.204734
0.291986
0.354176
0.39848
0.429961
0.452325
0.467861
0.477219
0.480936
0.481413
-0.607231
-0.59607
-0.553469
-0.486929
-0.408435
-0.322141
-0.228699
-0.12863
-0.0225221
0.0889388
0.199306
0.290695
0.356656
0.404068
0.43778
0.461493
0.477633
0.487012
0.490492
0.4908
-0.628901
-0.617486
-0.574251
-0.506794
-0.427245
-0.339762
-0.244945
-0.143258
-0.0351773
0.0788355
0.192657
0.288118
0.358047
0.409012
0.445483
0.470888
0.487649
0.496856
0.499941
0.500066
-0.649882
-0.63826
-0.594408
-0.52613
-0.445651
-0.357135
-0.261159
-0.1581
-0.0483525
0.0678664
0.184778
0.28413
0.358113
0.413021
0.452915
0.480604
0.498058
0.506704
0.509077
0.50897
-0.670246
-0.658348
-0.613913
-0.544904
-0.463611
-0.374209
-0.277245
-0.173069
-0.0619402
0.0561365
0.175703
0.27864
0.356612
0.415702
0.459748
0.490744
0.509392
0.516905
0.517752
0.517235
-0.689876
-0.677702
-0.632741
-0.56306
-0.481042
-0.390897
-0.293117
-0.188034
-0.0758158
0.043735
0.16551
0.271602
0.353352
0.416591
0.465358
0.501102
0.522541
0.528988
0.526667
0.524589
-0.708786
-0.696386
-0.650839