/*--------------------------------*- C++ -*----------------------------------*\
| =========                 |                                                 |
| \\      /  F ield         | OpenFOAM: The Open Source CFD Toolbox           |
|  \\    /   O peration     | Version:  2306                                  |
|   \\  /    A nd           | Website:  www.openfoam.com                      |
|    \\/     M anipulation  |                                                 |
\*---------------------------------------------------------------------------*/
FoamFile
{
    version     2.0;
    format      ascii;
    arch        "LSB;label=32;scalar=64";
    class       surfaceScalarField;
    location    "21";
    object      phi;
}
// * * * * * * * * * * * * * * * * * * * * * * * * * * * * * * * * * * * * * //

dimensions      [0 3 -1 0 0 0 0];

oriented        oriented;

internalField   nonuniform List<scalar> 
17370
(
-0.0910973
0.0935414
0.286567
-0.0749483
0.0569459
0.364778
-0.0409264
0.0299401
0.427154
-0.0211824
0.0155805
0.504854
-0.0113293
0.0086291
0.602102
-0.00649555
0.00504243
0.720511
-0.00382616
0.00295988
0.863773
-0.00219989
0.00163423
1.03602
-0.00111819
0.000712525
1.24291
-0.000317198
-5.43912e-05
1.49156
0.00042084
-0.000825957
1.4916
0.00122951
-0.00174006
1.2432
0.00229964
-0.00305263
1.03639
0.00391189
-0.00511984
0.864114
0.00656506
-0.00869047
0.721183
0.0113845
-0.0156295
0.60346
0.0212259
-0.0299774
0.508191
0.040958
-0.0569713
0.432181
0.074968
-0.0935532
0.365361
0.091107
0.197904
-0.12735
0.0881557
0.0391948
-0.36474
0.3538
-0.0726108
0.0835503
-0.446565
0.454372
-0.0816763
0.0738698
-0.520971
0.529531
-0.0657563
0.057196
-0.612847
0.621028
-0.0494357
0.0412542
-0.726988
0.733791
-0.0343095
0.0275056
-0.867505
0.872421
-0.0221623
0.0172454
-1.03855
1.04185
-0.0135591
0.0102567
-1.2447
1.24706
-0.00775082
0.00539159
-1.49281
1.4948
-0.00346406
0.00148141
-1.49266
1.49446
0.000307183
-0.00210558
-1.2441
1.246
0.00406234
-0.00596064
-1.0376
1.04007
0.00828488
-0.0107564
-0.866163
0.869814
0.0140204
-0.017671
-0.724483
0.729793
0.0225491
-0.027859
-0.608896
0.61581
0.0346293
-0.041543
-0.514999
0.522731
0.0496912
-0.0574234
-0.439773
0.447864
0.0659547
-0.0740456
-0.375175
0.377016
0.0818251
-0.0836667
-0.256947
0.223482
0.0726895
-0.0392248
-0.0686685
0.0589491
0.00971942
-0.0520131
0.0586975
-0.374553
0.367869
-0.0578055
0.0539788
-0.45383
0.457656
-0.0486256
0.0442919
-0.527741
0.532074
-0.0400744
0.0362942
-0.621099
0.624879
-0.032073
0.028006
-0.734857
0.738924
-0.0235446
0.0195714
-0.874005
0.877979
-0.0154783
0.0120108
-1.04334
1.04681
-0.00850867
0.00551194
-1.24859
1.25159
-0.00236212
-0.000574827
-1.49684
1.49978
0.00349347
-0.00660889
-1.49735
1.50047
0.00955711
-0.0129942
-1.25006
1.2535
0.0163993
-0.0204213
-1.04572
1.04974
0.0243297
-0.0287218
-0.877341
0.881733
0.0327264
-0.0368823
-0.739367
0.743523
0.0406066
-0.0447668
-0.6264
0.63056
0.0490523
-0.0543587
-0.534986
0.540293
0.0581366
-0.0589698
-0.457978
0.458811
0.052218
-0.0319314
-0.3365
0.316213
0.00975333
-0.0685742
0.0588209
-0.0532051
0.0491758
0.00402926
-0.0330388
0.0434855
-0.358428
0.347981
-0.0471674
0.0465569
-0.459515
0.460125
-0.0435562
0.040264
-0.536
0.539292
-0.0365335
0.0331951
-0.628409
0.631748
-0.0296462
0.0265266
-0.742216
0.745335
-0.0232235
0.0201347
-0.881499
0.884587
-0.0166489
0.0133748
-1.05026
1.05353
-0.00975654
0.00641675
-1.25483
1.25817
-0.00269368
-0.000865021
-1.50311
1.50667
0.00440298
-0.00807279
-1.50394
1.50761
0.0113377
-0.0148583
-1.25707
1.26059
0.0180375
-0.0214161
-1.05349
1.05687
0.0244086
-0.0276088
-0.88535
0.88855
0.0306357
-0.0340861
-0.747038
0.750488
0.0373408
-0.0409882
-0.634595
0.638242
0.044212
-0.0471376
-0.544551
0.547477
0.0476712
-0.0438834
-0.457044
0.453256
0.0333133
-0.0161069
-0.296964
0.279757
0.00407072
-0.05304
0.0489693
-0.0460763
0.0435839
0.00249238
-0.0226798
0.0329439
-0.337403
0.327138
-0.0386618
0.0396328
-0.459848
0.458877
-0.0384229
0.0361471
-0.541961
0.544237
-0.0335265
0.0309799
-0.634719
0.637265
-0.0279986
0.0251815
-0.748348
0.751166
-0.0220135
0.0190984
-0.887542
0.890457
-0.015872
0.0128677
-1.05663
1.05963
-0.00946403
0.00621436
-1.26149
1.26474
-0.00246889
-0.00117431
-1.51032
1.51396
0.0047933
-0.00846657
-1.51133
1.515
0.0116228
-0.0149053
-1.26399
1.26727
0.0177861
-0.0208689
-1.06001
1.0631
0.0236511
-0.0266747
-0.891687
0.894711
0.0293659
-0.0322203
-0.753702
0.756557
0.0346567
-0.0371635
-0.6413
0.643807
0.0393447
-0.0404367
-0.54936
0.550452
0.0393474
-0.0334639
-0.448179
0.442296
0.0230234
-0.0100589
-0.264769
0.251805
0.00254247
-0.0458238
0.0432813
-0.0415251
0.0397908
0.00173432
-0.0164385
0.0255099
-0.317412
0.30834
-0.0319623
0.0340302
-0.45731
0.455242
-0.0335994
0.0319468
-0.546171
0.547824
-0.0298003
0.0277494
-0.63949
0.641541
-0.0253993
0.0231133
-0.753724
0.75601
-0.020413
0.0177941
-0.893265
0.895884
-0.014776
0.01192
-1.06258
1.06544
-0.00866607
0.00556506
-1.26791
1.27101
-0.00196852
-0.00155434
-1.51755
1.52107
0.00504212
-0.00854211
-1.5186
1.5221
0.0115192
-0.0146071
-1.27046
1.27355
0.0172952
-0.0201227
-1.06609
1.06892
0.0225639
-0.0250705
-0.897527
0.900034
0.0271913
-0.0293749
-0.759033
0.761216
0.0312836
-0.033288
-0.645993
0.647997
0.0348126
-0.0350898
-0.551057
0.551334
0.0328483
-0.0261615
-0.435903
0.429216
0.0168589
-0.00709581
-0.240575
0.230812
0.00179504
-0.0411671
0.039372
-0.0383149
0.0370495
0.00126539
-0.0122151
0.0198446
-0.299987
0.292357
-0.0263176
0.029094
-0.452781
0.450005
-0.029245
0.0281114
-0.549234
0.550368
-0.0261591
0.0243065
-0.643487
0.64534
-0.0222318
0.0202632
-0.758095
0.760064
-0.0180032
0.0158009
-0.898261
0.900463
-0.0132013
0.0106376
-1.06815
1.07071
-0.00762823
0.00470591
-1.27404
1.27696
-0.00130723
-0.00200767
-1.52451
1.52783
0.00528337
-0.00855866
-1.5255
1.52877
0.0113148
-0.0141056
-1.2765
1.27929
0.0164536
-0.0188122
-1.0715
1.07386
0.0207946
-0.0228185
-0.902245
0.904269
0.0245739
-0.0264304
-0.763214
0.765071
0.0280985
-0.0298712
-0.64988
0.651653
0.030815
-0.0304477
-0.551295
0.550928
0.0274272
-0.0206419
-0.422416
0.41563
0.0127237
-0.00527179
-0.222297
0.214845
0.00133908
-0.0378292
0.0364901
-0.035964
0.0350424
0.000921645
-0.00902779
0.0152015
-0.285453
0.279279
-0.0212199
0.0243791
-0.446986
0.443827
-0.0251394
0.0245403
-0.551206
0.551805
-0.0229573
0.0213616
-0.647077
0.648673
-0.0195289
0.0177588
-0.761941
0.763711
-0.0156954
0.0136789
-0.902571
0.904588
-0.0113168
0.00900576
-1.07315
1.07546
-0.00629261
0.00362992
-1.27975
1.28242
-0.000503344
-0.00254672
-1.531
1.53405
0.0055455
-0.00851248
-1.53189
1.53486
0.0109649
-0.0134005
-1.28192
1.28435
0.0154322
-0.0174736
-1.07606
1.0781
0.0191988
-0.0209528
-0.906166
0.90792
0.0224613
-0.0240323
-0.766785
0.768356
0.0254066
-0.0267501
-0.653245
0.654588
0.0271136
-0.0260611
-0.550209
0.549157
0.0225802
-0.0161664
-0.408972
0.402558
0.00964152
-0.00395529
-0.208323
0.202637
0.00101142
-0.0353238
0.0343123
-0.0342671
0.0336168
0.000650288
-0.00648416
0.0112641
-0.273823
0.269043
-0.0164572
0.0196025
-0.440633
0.437488
-0.0207688
0.0204751
-0.552233
0.552527
-0.0192977
0.0179427
-0.650137
0.651492
-0.0163216
0.0147463
-0.76539
0.766966
-0.0129074
0.0111191
-0.906496
0.908284
-0.00903112
0.0069951
-1.07762
1.07966
-0.00460291
0.00226033
-1.28492
1.28726
0.000508792
-0.00322875
-1.53696
1.53968
0.00587807
-0.00844084
-1.53765
1.54021
0.0105161
-0.0125542
-1.28659
1.28863
0.0142348
-0.0159274
-1.07997
1.08166
0.0173599
-0.0188311
-0.909536
0.911007
0.0200747
-0.0213344
-0.769764
0.771024
0.0223888
-0.0232508
-0.655671
0.656533
0.0232351
-0.0216772
-0.547818
0.54626
0.0181151
-0.012432
-0.396484
0.390801
0.0072282
-0.00294638
-0.197698
0.193416
0.000760985
-0.0334388
0.0326778
-0.0330771
0.0326515
0.000425596
-0.00430899
0.00780479
-0.264907
0.261411
-0.0120299
0.0149196
-0.434449
0.431559
-0.0162665
0.016184
-0.552716
0.552798
-0.0152701
0.0141202
-0.652757
0.653907
-0.0127899
0.0115298
-0.768414
0.769674
-0.0100608
0.00859622
-0.909925
0.91139
-0.00682368
0.00504711
-1.08156
1.08334
-0.00292032
0.000811509
-1.28946
1.29157
0.00165645
-0.00405145
-1.54221
1.5446
0.0063584
-0.00856814
-1.54257
1.54478
0.0103251
-0.0120114
-1.29049
1.29218
0.0133512
-0.0146075
-1.08316
1.08441
0.0156014
-0.016571
-0.912243
0.913213
0.0174183
-0.0183319
-0.772132
0.773045
0.0191139
-0.0196075
-0.657216
0.65771
0.0192904
-0.0174433
-0.544544
0.542697
0.0140329
-0.0092122
-0.385536
0.380716
0.00520952
-0.00211505
-0.189738
0.186644
0.00056224
-0.0320174
0.0314552
-0.0323439
0.0321544
0.00018953
-0.00226013
0.00451154
-0.25855
0.256299
-0.00767585
0.0102031
-0.42884
0.426312
-0.0117227
0.0119915
-0.552739
0.552471
-0.0115485
0.0107594
-0.654906
0.655695
-0.0097594
0.00875613
-0.770816
0.77182
-0.00753919
0.00626657
-0.912729
0.914002
-0.00470045
0.00310434
-1.08498
1.08657
-0.00117541
-0.00072867
-1.29355
1.29545
0.00295884
-0.00508928
-1.54686
1.54899
0.00711025
-0.00901406
-1.54685
1.54875
0.0104854
-0.0118366
-1.29367
1.29502
0.0128682
-0.0138053
-1.08547
1.08641
0.0145141
-0.0151582
-0.913995
0.914639
0.0156308
-0.0160689
-0.773712
0.77415
0.0163858
-0.0162757
-0.657944
0.657834
0.0154755
-0.0132985
-0.5407
0.538523
0.0101186
-0.00623335
-0.376359
0.372474
0.00337028
-0.00133988
-0.184115
0.182085
0.000359869
-0.0310004
0.0306405
-0.0320649
0.0320511
1.37967e-05
-0.00081653
0.00207099
-0.254586
0.253331
-0.00418895
0.0062047
-0.424008
0.421992
-0.00775688
0.00834519
-0.552017
0.551429
-0.00830553
0.00782623
-0.656317
0.656796
-0.00707737
0.00625873
-0.772767
0.773586
-0.00517674
0.0040149
-0.915238
0.9164
-0.00254182
0.00103663
-1.0881
1.08961
0.000763569
-0.00250839
-1.29725
1.29899
0.00452148
-0.00641933
-1.55097
1.55287
0.00817371
-0.00975042
-1.55051
1.55208
0.0109217
-0.0119988
-1.29626
1.29734
0.0127723
-0.0133936
-1.08724
1.08786
0.0137859
-0.0140774
-0.915104
0.915396
0.0142543
-0.0143303
-0.774345
0.774421
0.0142119
-0.0135581
-0.6574
0.656746
0.0123118
-0.00997096
-0.536219
0.533878
0.00718111
-0.00419933
-0.36906
0.366078
0.00219557
-0.000851947
-0.180464
0.179121
0.000223048
-0.0303687
0.0301457
-0.0320965
0.0321817
-8.52544e-05
-5.28803e-05
0.000678474
-0.25244
0.251814
-0.00193533
0.00327469
-0.420319
0.41898
-0.00442027
0.00489401
-0.550865
0.550392
-0.00484005
0.00445867
-0.657219
0.6576
-0.00380538
0.00306576
-0.774415
0.775154
-0.0021096
0.00107982
-0.917478
0.918508
0.00020643
-0.00151068
-1.09095
1.09225
0.00306685
-0.00460625
-1.3006
1.30214
0.00639041
-0.00806059
-1.55465
1.55632
0.00954957
-0.0107876
-1.55353
1.55476
0.011603
-0.0122266
-1.29817
1.2988
0.0126055
-0.0128427
-1.08824
1.08848
0.0129292
-0.0128904
-0.9155
0.915461
0.0128013
-0.0126496
-0.77435
0.774198
0.0123139
-0.0115057
-0.656
0.655191
0.0101988
-0.00805687
-0.531642
0.5295
0.00573931
-0.00338385
-0.363477
0.361121
0.00180197
-0.000708752
-0.177964
0.176871
0.000183363
-0.029966
0.0297826
-0.0322892
0.0324135
-0.000124222
0.000292672
4.52383e-05
-0.251368
0.25103
-0.000848708
0.00172503
-0.417945
0.417068
-0.0024285
0.00259537
-0.55009
0.549923
-0.00230731
0.00177619
-0.658036
0.658567
-0.00102957
0.000286978
-0.775996
0.776738
0.000658326
-0.00166314
-0.919484
0.920488
0.00289985
-0.00413156
-1.0934
1.09463
0.00559758
-0.00702131
-1.30352
1.30495
0.00863214
-0.0100805
-1.55782
1.55927
0.0113056
-0.0122531
-1.55587
1.55682
0.0128028
-0.0131491
-1.29929
1.29964
0.0132923
-0.0133055
-1.08863
1.08865
0.013199
-0.0130063
-0.915326
0.915134
0.0127446
-0.012344
-0.773789
0.773388
0.0118395
-0.0109811
-0.654341
0.653483
0.00971898
-0.00773248
-0.527523
0.525537
0.00561034
-0.00341998
-0.358939
0.356749
0.00188765
-0.00077218
-0.175813
0.174698
0.000207323
-0.0296117
0.0294044
-0.032556
0.0327134
-0.000157355
0.000569792
-0.000393311
-0.250793
0.250617
-0.00025004
0.00103256
-0.416317
0.415534
-0.00167764
0.00177817
-0.549822
0.549722
-0.00140499
0.000734028
-0.659217
0.659888
9.81408e-05
-0.000937548
-0.777668
0.778507
0.00202179
-0.00319886
-0.921477
0.922654
0.00466005
-0.006125
-1.09582
1.09728
0.00783942
-0.00943626
-1.30634
1.30793
0.0111672
-0.0126628
-1.56065
1.56215
0.0138972
-0.0148173
-1.55773
1.55865
0.0153142
-0.0155638
-1.29993
1.30018
0.0155554
-0.0153096
-1.0885
1.08826
0.0149735
-0.0146062
-0.914845
0.914478
0.0142505
-0.013791
-0.772857
0.772397
0.0132525
-0.0122507
-0.65257
0.651568
0.010759
-0.00847829
-0.523562
0.521281
0.00612693
-0.00376033
-0.354557
0.35219
0.00211616
-0.000898677
-0.173569
0.172351
0.00025429
-0.0291986
0.0289443
-0.0328907
0.0330936
-0.000202963
0.0010125
-0.00111555
-0.250585
0.250688
0.000656189
0.00017533
-0.414777
0.413946
-0.00112404
0.00155318
-0.549464
0.549035
-0.001451
0.00104913
-0.660486
0.660888
-0.000267671
-0.000675591
-0.779621
0.780565
0.00205455
-0.00360837
-0.923912
0.925466
0.00554565
-0.00747361
-1.09882
1.10075
0.0097034
-0.0117754
-1.30964
1.31172
0.0140093
-0.0159393
-1.56377
1.5657
0.0175366
-0.0187733
-1.5597
1.56093
0.0194813
-0.0199044
-1.30056
1.30099
0.0200494
-0.0199938
-1.08798
1.08793
0.0197483
-0.0191945
-0.913896
0.913342
0.0184999
-0.0176413
-0.77175
0.770892
0.0165136
-0.0147006
-0.650289
0.648476
0.0123984
-0.0093612
-0.518779
0.515742
0.00659679
-0.00403474
-0.349805
0.347243
0.00230995
-0.00101544
-0.171142
0.169848
0.000300019
-0.028694
0.028394
-0.0333391
0.0336189
-0.000279884
0.00162007
-0.0021301
-0.250951
0.251461
0.00213909
-0.00149131
-0.413262
0.412614
0.000329006
0.000589951
-0.548316
0.547397
-0.000930438
0.000740579
-0.66118
0.66137
-0.000159942
-0.00081799
-0.781757
0.782735
0.00245304
-0.00436545
-0.927054
0.928966
0.00679708
-0.00921573
-1.10279
1.10521
0.0120162
-0.0146618
-1.31399
1.31663
0.0175455
-0.0200362
-1.56786
1.57035
0.0221146
-0.0237556
-1.56238
1.56402
0.0247372
-0.0253347
-1.30155
1.30215
0.025583
-0.0255389
-1.08784
1.08779
0.0251489
-0.0243868
-0.912557
0.911795
0.0234038
-0.0218371
-0.769664
0.768097
0.019695
-0.01674
-0.646166
0.643211
0.0135035
-0.0098226
-0.512474
0.508793
0.00684325
-0.00425175
-0.344754
0.342163
0.00250612
-0.00114056
-0.168581
0.167215
0.000348486
-0.0281008
0.0277523
-0.0339627
0.0343502
-0.000387549
0.00238532
-0.00340401
-0.252193
0.253212
0.00409104
-0.00406995
-0.412325
0.412304
0.00323815
-0.0022694
-0.546422
0.545453
0.00150096
-0.00144487
-0.661403
0.661347
0.00204494
-0.0031814
-0.783945
0.785082
0.00512269
-0.0073556
-0.930882
0.933115
0.0101463
-0.0129051
-1.10768
1.11043
0.0160936
-0.0190972
-1.31939
1.32239
0.0223474
-0.0250986
-1.57295
1.5757
0.0273162
-0.0289937
-1.56572
1.5674
0.029912
-0.0303985
-1.3028
1.30328
0.0304198
-0.0300255
-1.0875
1.0871
0.0293209
-0.0281679
-0.91074
0.909587
0.0265628
-0.0241072
-0.765985
0.76353
0.021211
-0.0174737
-0.639871
0.636134
0.0138235
-0.010028
-0.505177
0.501382
0.00711642
-0.00458292
-0.339742
0.337208
0.00279131
-0.00130244
-0.165878
0.16439
0.00040393
-0.027419
0.027015
-0.0348159
0.0353468
-0.000530862
0.00334398
-0.00494597
-0.254545
0.256147
0.00642578
-0.00722496
-0.412719
0.413519
0.00730551
-0.00692315
-0.544943
0.544561
0.00650884
-0.00656613
-0.661312
0.661369
0.00738779
-0.00883754
-0.786332
0.787781
0.0110273
-0.0134254
-0.935241
0.937639
0.0163888
-0.0192966
-1.11312
1.11603
0.0226085
-0.0256415
-1.32533
1.32836
0.0288062
-0.0313521
-1.57833
1.58088
0.0332318
-0.0344217
-1.56886
1.57005
0.0348717
-0.034794
-1.30358
1.3035
0.0342517
-0.0332317
-1.08632
1.0853
0.0319372
-0.0300161
-0.907898
0.905977
0.0277664
-0.0247364
-0.7606
0.75757
0.0215219
-0.0176623
-0.632353
0.628494
0.0141199
-0.0105441
-0.497918
0.494342
0.00776014
-0.00519267
-0.334863
0.332296
0.00323813
-0.00152989
-0.162904
0.161196
0.000475871
-0.0266279
0.026152
-0.0359704
0.03668
-0.000709661
0.00446175
-0.00670874
-0.258107
0.260354
0.00901777
-0.0106848
-0.414779
0.416446
0.0117772
-0.0123559
-0.545005
0.545584
0.0129108
-0.0137178
-0.661891
0.662698
0.0151767
-0.0170234
-0.789199
0.791046
0.0195205
-0.022124
-0.939858
0.942461
0.0252376
-0.0282066
-1.11877
1.12174
0.031474
-0.0343155
-1.33118
1.33402
0.0370857
-0.0390925
-1.5831
1.58511
0.0402931
-0.0406692
-1.57083
1.57121
0.0403383
-0.0393568
-1.30303
1.30205
0.0380009
-0.036106
-1.08373
1.08184
0.0340209
-0.031387
-0.903485
0.900851
0.0286896
-0.0254283
-0.754229
0.750968
0.0222045
-0.0185341
-0.624797
0.621127
0.0152297
-0.0118207
-0.491175
0.487766
0.00899636
-0.00616943
-0.329868
0.327041
0.00389995
-0.00185134
-0.159457
0.157408
0.000574987
-0.0256942
0.0251192
-0.0374812
0.0384338
-0.000952632
0.00592681
-0.00894533
-0.262968
0.265986
0.0121726
-0.014743
-0.418671
0.421242
0.0168839
-0.0184353
-0.547133
0.548684
0.0200419
-0.0217891
-0.66411
0.665857
0.0241427
-0.0266534
-0.792927
0.795437
0.0297251
-0.032721
-0.944931
0.947927
0.0361208
-0.0392148
-1.12453
1.12763
0.0424451
-0.0450559
-1.33659
1.3392
0.0473321
-0.0486491
-1.58668
1.58799
0.0489826
-0.0483093
-1.57103
1.57035
0.0469842
-0.0449825
-1.30056
1.29856
0.0427656
-0.0399689
-1.07938
1.07658
0.0371741
-0.0339606
-0.897716
0.894502
0.0309164
-0.0274904
-0.747401
0.743975
0.0242814
-0.0207225
-0.617594
0.614035
0.0174764
-0.0139534
-0.484709
0.481186
0.0108197
-0.0075244
-0.324316
0.32102
0.00478484
-0.00227155
-0.155304
0.15279
0.000703827
-0.0245663
0.0238625
-0.039476
0.0407721
-0.00129614
0.00795053
-0.0119678
-0.269376
0.273393
0.016271
-0.0197642
-0.424487
0.42798
0.0228772
-0.0253691
-0.551353
0.553845
0.0280744
-0.030871
-0.66829
0.671086
0.0343036
-0.0376881
-0.798029
0.801413
0.0415697
-0.0451577
-0.950853
0.954441
0.0490314
-0.0523784
-1.13058
1.13392
0.0556579
-0.0580806
-1.34153
1.34395
0.0598707
-0.0604681
-1.58883
1.58943
0.0598919
-0.0581495
-1.56908
1.56734
0.0558217
-0.052718
-1.29597
1.29287
0.0495498
-0.0458687
-1.07325
1.06957
0.0424081
-0.0386021
-0.890766
0.88696
0.035158
-0.031448
-0.740127
0.736416
0.0280809
-0.0243764
-0.610442
0.606738
0.020911
-0.016971
-0.47792
0.47398
0.0132788
-0.00928914
-0.317788
0.313798
0.00591768
-0.00280104
-0.150223
0.147107
0.000863272
-0.0231968
0.0223335
-0.0421534
0.0439593
-0.0018059
0.0108497
-0.016191
-0.277777
0.283119
0.0218008
-0.0263281
-0.432411
0.436938
0.0304801
-0.0339757
-0.557731
0.561227
0.0379084
-0.0418711
-0.674584
0.678547
0.0465512
-0.0509724
-0.804881
0.809302
0.0558336
-0.0601491
-0.957988
0.962303
0.0646131
-0.0682803
-1.13712
1.14079
0.0716441
-0.0738856
-1.34608
1.34832
0.0751686
-0.0750025
-1.58952
1.58935
0.0734621
-0.0706029
-1.56497
1.56211
0.0672414
-0.0630193
-1.28916
1.28494
0.0588984
-0.0542796
-1.06533
1.06071
0.0500688
-0.0455533
-0.882546
0.878031
0.0415684
-0.0373718
-0.732103
0.727906
0.0336174
-0.029481
-0.602769
0.598633
0.0255249
-0.0208926
-0.470172
0.465539
0.0164154
-0.0114367
-0.309886
0.304907
0.00722228
-0.00338038
-0.143981
0.140139
0.00102707
-0.021528
0.0205009
-0.0458232
0.0484554
-0.00263226
0.0153112
-0.0224979
-0.288858
0.296045
0.0298024
-0.0355738
-0.442927
0.448698
0.0409513
-0.0456167
-0.566506
0.571171
0.0510009
-0.0563163
-0.683213
0.688528
0.0623999
-0.0679521
-0.813779
0.819331
0.0738568
-0.0789191
-0.966567
0.971629
0.0839463
-0.0878709
-1.14426
1.14819
0.0912166
-0.0931602
-1.35018
1.35212
0.0937864
-0.0927081
-1.58858
1.5875
0.0900629
-0.0859577
-1.55855
1.55445
0.0814785
-0.0760808
-1.28008
1.27468
0.0709542
-0.0653069
-1.05547
1.04983
0.0602337
-0.054863
-0.872799
0.867429
0.050179
-0.0452932
-0.722909
0.718023
0.0409423
-0.0361231
-0.593999
0.58918
0.0314307
-0.0258107
-0.460916
0.455296
0.0202809
-0.0140914
-0.30008
0.293891
0.00884631
-0.00410347
-0.136322
0.131579
0.00123265
-0.0195353
0.0183027
-0.0510676
0.0551464
-0.00407882
0.0225871
-0.0324366
-0.303768
0.313618
0.0420341
-0.0494508
-0.45684
0.464257
0.0563249
-0.0624523
-0.578144
0.584271
0.0696439
-0.0764978
-0.69451
0.701364
0.084042
-0.0906757
-0.824885
0.831519
0.0974846
-0.103104
-0.976553
0.982172
0.10843
-0.112333
-1.15177
1.15567
0.115325
-0.116655
-1.3535
1.35483
0.116285
-0.114009
-1.58564
1.58337
0.110018
-0.104467
-1.54952
1.54397
0.098734
-0.0920489
-1.26859
1.2619
0.0858208
-0.079036
-1.04349
1.03671
0.0729949
-0.0666405
-0.86123
0.854875
0.0611264
-0.055394
-0.71213
0.706397
0.0502847
-0.0445594
-0.583595
0.577869
0.0388938
-0.0319909
-0.449552
0.442649
0.0251207
-0.0173942
-0.2879
0.280174
0.0108387
-0.00496089
-0.12695
0.121072
0.0014619
-0.0171611
0.0156992
-0.0589887
0.0661918
-0.00720315
0.0360144
-0.0500194
-0.324711
0.338716
0.0629365
-0.0723251
-0.475369
0.484758
0.0808035
-0.0885867
-0.593345
0.601128
0.09766
-0.105879
-0.708641
0.71686
0.114495
-0.121749
-0.837933
0.845187
0.12889
-0.134496
-0.987382
0.992987
0.139483
-0.142775
-1.15894
1.16223
0.144807
-0.144977
-1.3553
1.35547
0.1431
-0.139203
-1.58006
1.57616
0.133543
-0.126307
-1.53744
1.5302
0.119153
-0.11105
-1.25442
1.24632
0.103618
-0.0956071
-1.02918
1.02117
0.0885243
-0.0811137
-0.847598
0.840187
0.0746973
-0.0680266
-0.699436
0.692765
0.0620638
-0.0552959
-0.571099
0.564331
0.0483634
-0.0398015
-0.435401
0.426839
0.0312101
-0.0215538
-0.27262
0.262964
0.0133411
-0.0060217
-0.115521
0.108202
0.00170934
-0.0143809
0.0126716
-0.0730873
0.0766905
-0.00360316
0.0260777
-0.0383062
-0.355716
0.367945
0.0495008
-0.0582718
-0.499275
0.508046
0.0672133
-0.0767149
-0.611992
0.621493
0.0874055
-0.0969537
-0.724659
0.734207
0.10756
-0.116919
-0.851646
0.861005
0.126632
-0.134956
-0.997648
1.00597
0.143225
-0.149833
-1.16441
1.17102
0.155697
-0.159502
-1.35442
1.35822
0.161479
-0.160766
-1.57096
1.57024
0.157237
-0.151298
-1.52179
1.51585
0.144342
-0.135544
-1.23732
1.22852
0.126995
-0.116795
-1.01236
1.00216
0.107534
-0.0974725
-0.831807
0.821746
0.088588
-0.0792133
-0.684699
0.675324
0.070519
-0.0609635
-0.55603
0.546475
0.0513862
-0.0394876
-0.417659
0.405761
0.0285108
-0.0175216
-0.253268
0.242279
0.00942652
-0.0035295
-0.10149
0.095593
0.000729815
-0.011247
0.0105171
-0.0839401
0.0812508
0.00268925
0.00388162
-0.0113016
-0.383086
0.390506
0.0197011
-0.026567
-0.521534
0.5284
0.0349088
-0.0432393
-0.632073
0.640403
0.0529187
-0.0617308
-0.743599
0.752411
0.0710874
-0.0795528
-0.869888
0.878353
0.0883498
-0.095607
-1.01401
1.02127
0.103025
-0.10862
-1.17746
1.18306
0.11352
-0.11638
-1.36174
1.3646
0.117153
-0.115488
-1.56866
1.567
0.11112
-0.104469
-1.509
1.50235
0.0968222
-0.0874707
-1.21912
1.20976
0.0785167
-0.0683343
-0.991519
0.981337
0.0588582
-0.0484391
-0.8105
0.800081
0.0392458
-0.0299949
-0.663235
0.653984
0.0221938
-0.0142449
-0.533736
0.525787
0.00728164
-0.00103508
-0.393146
0.386899
-0.00248265
0.00417223
-0.230495
0.228805
-0.00410437
0.00266199
-0.0888333
0.0902757
-0.00111968
-0.00909398
0.0102137
-0.0841012
0.0809307
0.00317051
-0.00447669
0.000895037
-0.401028
0.40461
0.00443209
-0.00982698
-0.539189
0.544584
0.0168853
-0.0241158
-0.649423
0.656653
0.0323893
-0.0399607
-0.760673
0.768245
0.0482234
-0.0555602
-0.886185
0.893522
0.0629704
-0.0694505
-1.02838
1.03486
0.075906
-0.0808915
-1.18827
1.19326
0.0848674
-0.0869797
-1.36688
1.36899
0.0873834
-0.0853667
-1.56475
1.56274
0.0808429
-0.0742677
-1.49521
1.48863
0.0669546
-0.0583297
-1.20041
1.19179
0.0498079
-0.0404534
-0.970936
0.961582
0.0318058
-0.0223706
-0.789772
0.780337
0.0142551
-0.00601791
-0.64335
0.635113
-0.000665188
0.00706348
-0.515186
0.508787
-0.0115255
0.0142326
-0.378701
0.375994
-0.0140538
0.0115626
-0.223782
0.226273
-0.00829148
0.00444352
-0.0900646
0.0939125
-0.00155136
-0.0102855
0.0118369
-0.0822368
0.0792032
0.00303359
-0.00737444
0.00601125
-0.412293
0.413656
-0.00284593
-0.00131559
-0.552927
0.557089
0.00755382
-0.0136096
-0.663894
0.66995
0.020671
-0.0271752
-0.77554
0.782045
0.0342452
-0.0405522
-0.900463
0.90677
0.0473138
-0.0528648
-1.04099
1.04654
0.0585991
-0.0626266
-1.19793
1.20195
0.0661592
-0.0680251
-1.371
1.37287
0.0681989
-0.0660233
-1.56049
1.55831
0.0619731
-0.0561483
-1.48181
1.47598
0.0496637
-0.041759
-1.18327
1.17537
0.0343501
-0.0263001
-0.95228
0.94423
0.0187911
-0.0109618
-0.771168
0.763339
0.00390856
0.00300109
-0.625922
0.619012
-0.00849985
0.0132174
-0.500318
0.4956
-0.0161048
0.0173742
-0.370227
0.368957
-0.0160156
0.0122577
-0.224604
0.228362
-0.00855467
0.00437931
-0.0956343
0.0998097
-0.00146233
-0.0123358
0.0137981
-0.0803122
0.0777641
0.00254813
-0.00784177
0.00780027
-0.419611
0.419652
-0.005364
0.00210809
-0.564219
0.567475
0.00292333
-0.00832618
-0.676153
0.681556
0.0142738
-0.020021
-0.788137
0.793884
0.0261756
-0.0316949
-0.912758
0.918277
0.0375682
-0.0426046
-1.05204
1.05708
0.0475813
-0.051441
-1.20596
1.20982
0.0546383
-0.0563524
-1.37452
1.37624
0.0565752
-0.0546796
-1.55619
1.55429
0.0511438
-0.0458966
-1.46979
1.46454
0.0402772
-0.0336046
-1.16781
1.16114
0.0273014
-0.0203644
-0.936307
0.92937
0.0141493
-0.00760299
-0.755594
0.749048
0.00196392
0.00359847
-0.611708
0.606146
-0.00782322
0.0112553
-0.488966
0.485534
-0.0132535
0.0137877
-0.364711
0.364177
-0.012287
0.00919635
-0.227489
0.23058
-0.00627098
0.00313273
-0.101128
0.104266
-0.00107754
-0.0141896
0.0152671
-0.0787315
0.0766038
0.00212776
-0.00729709
0.00751368
-0.424488
0.424271
-0.0061097
0.00334389
-0.573083
0.575849
0.00130783
-0.00595139
-0.686624
0.691268
0.0111453
-0.0161971
-0.799084
0.804135
0.0217225
-0.0267193
-0.923577
0.928574
0.0321833
-0.0366972
-1.06193
1.06644
0.0413158
-0.0449459
-1.21351
1.21714
0.0479545
-0.0496236
-1.37783
1.3795
0.0499508
-0.0487156
-1.5525
1.55126
0.0456415
-0.041215
-1.45913
1.4547
0.0363103
-0.0305213
-1.15458
1.1488
0.025316
-0.0193012
-0.922644
0.916629
0.0140202
-0.00865938
-0.742722
0.737361
0.0040181
0.000516909
-0.600468
0.595933
-0.00395105
0.00681749
-0.480409
0.477543
-0.00811104
0.00843056
-0.360916
0.360596
-0.00759077
0.00547613
-0.229246
0.231361
-0.00358152
0.00181208
-0.104519
0.106288
-0.000648643
-0.0152874
0.015936
-0.0776149
0.0759795
0.00163537
-0.0061421
0.00652373
-0.428084
0.427702
-0.00524474
0.0030835
-0.580954
0.583115
0.00111597
-0.00533372
-0.695798
0.700016
0.0103068
-0.0147177
-0.808977
0.813388
0.0196425
-0.0241488
-0.933651
0.938157
0.029422
-0.0336255
-1.07107
1.07528
0.0378645
-0.0414413
-1.22068
1.22426
0.0447817
-0.0465138
-1.3813
1.38304
0.0471737
-0.0462008
-1.54979
1.54882
0.0438774
-0.0397996
-1.45024
1.44617
0.0356373
-0.0306916
-1.14303
1.13808
0.0260387
-0.0209751
-0.910832
0.905768
0.0163436
-0.0115142
-0.731927
0.727098
0.00770045
-0.00366412
-0.591105
0.587069
0.000507894
0.00194219
-0.473289
0.470839
-0.00331701
0.00401097
-0.357685
0.356991
-0.00375525
0.0027435
-0.229513
0.230525
-0.00180347
0.000973862
-0.105646
0.106475
-0.0004108
-0.0156402
0.016051
-0.0770563
0.0757783
0.00127796
-0.00491624
0.00532071
-0.430959
0.430555
-0.00404242
0.00195077
-0.587869
0.589961
0.00193234
-0.00573138
-0.704119
0.707918
0.0100496
-0.0143426
-0.817892
0.822185
0.0189535
-0.0236429
-0.942573
0.947262
0.0282756
-0.0323724
-1.07964
1.08374
0.0368312
-0.0402801
-1.2278
1.23125
0.0433004
-0.0455871
-1.38477
1.38706
0.0466239
-0.046141
-1.548
1.54752
0.044196
-0.0408898
-1.44238
1.43907
0.0372058
-0.032719
-1.13291
1.12842
0.0285425
-0.0238947
-0.900582
0.895934
0.0196763
-0.0154057
-0.722335
0.718065
0.0116232
-0.00796045
-0.582733
0.57907
0.00510442
-0.0025035
-0.467097
0.464496
0.000841073
3.09097e-05
-0.353936
0.353064
-0.000447404
0.000534552
-0.228149
0.228062
-0.00051501
0.000396568
-0.105068
0.105186
-0.000256844
-0.0155455
0.0158023
-0.0770371
0.0759686
0.00106854
-0.0035832
0.00377082
-0.433641
0.433454
-0.0026873
0.00054063
-0.594225
0.596372
0.00308934
-0.00678455
-0.711899
0.715594
0.0109539
-0.0148874
-0.826397
0.830331
0.0196487
-0.0236149
-0.951475
0.955441
0.0282648
-0.0322426
-1.08805
1.09203
0.0366628
-0.0403825
-1.23476
1.23848
0.0437874
-0.0459774
-1.38919
1.39138
0.0474779
-0.0475046
-1.54703
1.54706
0.0462749
-0.0433317
-1.43567
1.43273
0.0400842
-0.0359522
-1.12402
1.11989
0.0320758
-0.0276278
-0.891016
0.886568
0.0237224
-0.0195365
-0.71352
0.709335
0.0159045
-0.0122635
-0.575035
0.571394
0.00928227
-0.006752
-0.460869
0.458339
0.00476668
-0.00343039
-0.349597
0.34826
0.0023185
-0.00135559
-0.225329
0.224366
0.000609167
-7.75527e-06
-0.103156
0.102555
-0.000155987
-0.0150579
0.0152139
-0.0772848
0.0765407
0.000744057
-0.00241957
0.0022089
-0.436537
0.436748
-0.00126864
-0.00106345
-0.599784
0.602116
0.00434229
-0.00790483
-0.719204
0.722767
0.0119142
-0.0159886
-0.834235
0.838309
0.0201868
-0.0243368
-0.959674
0.963824
0.0289876
-0.0328039
-1.09648
1.10029
0.0373667
-0.041103
-1.24206
1.2458
0.0446418
-0.0474253
-1.39404
1.39682
0.0494911
-0.0498713
-1.54717
1.54755
0.0489278
-0.046668
-1.42993
1.42767
0.0438915
-0.0400129
-1.11557
1.11169
0.0362429
-0.0321192
-0.881954
0.877831
0.0279593
-0.0239623
-0.704802
0.700805
0.0203401
-0.0165724
-0.567564
0.563796
0.0136067
-0.0107014
-0.454499
0.451594
0.00843666
-0.00639081
-0.34467
0.342625
0.00479682
-0.00308281
-0.221206
0.219492
0.00158565
-0.000418809
-0.100193
0.0990265
-4.15636e-05
-0.0142959
0.0143374
-0.0779284
0.0773338
0.000594536
-0.00148113
0.00133809
-0.439655
0.439798
3.37947e-05
-0.00238422
-0.605358
0.607709
0.00578858
-0.00920879
-0.726038
0.729458
0.0130696
-0.016771
-0.842146
0.845848
0.021108
-0.0249747
-0.968034
0.971901
0.0296006
-0.0338669
-1.1046
1.10886
0.0381197
-0.0422172
-1.24963
1.25373
0.046222
-0.0491592
-1.39956
1.4025
0.0516687
-0.0528776
-1.5482
1.54941
0.0524086
-0.0507421
-1.42528
1.42361
0.0480999
-0.0445401
-1.10775
1.10419
0.0410141
-0.0368466
-0.873221
0.869053
0.0328278
-0.028693
-0.69621
0.692075
0.0249829
-0.0210059
-0.559686
0.555708
0.0177366
-0.0145958
-0.44775
0.444609
0.0117844
-0.00918913
-0.338674
0.336079
0.00696966
-0.00460497
-0.215781
0.213416
0.00260564
-0.000928933
-0.0963639
0.0946872
0.00013019
-0.0133642
0.0132341
-0.0788096
0.0783798
0.000429709
-0.000503061
0.000221731
-0.442943
0.443225
0.00129695
-0.00378582
-0.610727
0.613216
0.00704085
-0.0102895
-0.732622
0.735871
0.0142299
-0.0177942
-0.849592
0.853156
0.0219936
-0.0259901
-0.976277
0.980273
0.0305381
-0.0347881
-1.11302
1.11727
0.0392805
-0.0434352
-1.25779
1.26195
0.0476671
-0.0513839
-1.40577
1.40948
0.0543917
-0.0559509
-1.55061
1.55217
0.0561952
-0.0548508
-1.42184
1.42049
0.0527103
-0.0495645
-1.10049
1.09734
0.045976
-0.0418587
-0.864502
0.860385
0.0378389