/*--------------------------------*- C++ -*----------------------------------*\
| =========                 |                                                 |
| \\      /  F ield         | OpenFOAM: The Open Source CFD Toolbox           |
|  \\    /   O peration     | Version:  2306                                  |
|   \\  /    A nd           | Website:  www.openfoam.com                      |
|    \\/     M anipulation  |                                                 |
\*---------------------------------------------------------------------------*/
FoamFile
{
    version     2.0;
    format      ascii;
    arch        "LSB;label=32;scalar=64";
    class       volVectorField;
    location    "21";
    object      U;
}
// * * * * * * * * * * * * * * * * * * * * * * * * * * * * * * * * * * * * * //

dimensions      [0 1 -1 0 0 0 0];

internalField   nonuniform List<vector> 
8800
(
(0.984961 -0.0884497 0)
(1.00213 -0.0568185 0)
(0.999682 -0.0305492 0)
(1.00002 -0.0158513 0)
(1.00006 -0.00870788 0)
(1.00004 -0.00506987 0)
(1.00002 -0.00298591 0)
(1.00002 -0.00168784 0)
(1.00002 -0.000806261 0)
(1.00005 -0.000127364 0)
(1.00002 0.000548625 0)
(1.00001 0.00130649 0)
(1.00001 0.00235518 0)
(1.00003 0.00397162 0)
(1.00005 0.0066834 0)
(1.00006 0.0117109 0)
(0.999922 0.0220331 0)
(0.999203 0.0411605 0)
(1.00745 0.0768939 0)
(0.773649 0.0450694 0)
(0.361034 -0.0151681 0)
(1.04558 -0.074183 0)
(1.08712 -0.0678613 0)
(1.04779 -0.0522652 0)
(1.0246 -0.0383472 0)
(1.01233 -0.02604 0)
(1.00641 -0.0166933 0)
(1.00358 -0.0102332 0)
(1.00217 -0.00567479 0)
(1.00152 -0.00213695 0)
(1.0014 0.00104764 0)
(1.00176 0.00433804 0)
(1.00271 0.008216 0)
(1.0047 0.0135404 0)
(1.0088 0.02128 0)
(1.0174 0.0321427 0)
(1.03457 0.0455278 0)
(1.06559 0.0596742 0)
(1.09413 0.0729124 0)
(0.842365 0.055683 0)
(0.217149 -0.00164295 0)
(1.07592 -0.0502991 0)
(1.09987 -0.048655 0)
(1.06465 -0.0401141 0)
(1.0399 -0.0329632 0)
(1.02365 -0.0256744 0)
(1.01387 -0.0183043 0)
(1.00839 -0.0116403 0)
(1.00556 -0.00593489 0)
(1.00444 -0.000741757 0)
(1.00475 0.00428233 0)
(1.00659 0.00956103 0)
(1.01052 0.015614 0)
(1.01786 0.0225749 0)
(1.03056 0.0298843 0)
(1.05079 0.0369115 0)
(1.08058 0.0442808 0)
(1.10645 0.0515411 0)
(0.94325 0.0412171 0)
(0.216767 0.00165488 0)
(0.176075 -0.0006396 0)
(1.01891 -0.0352889 0)
(1.10565 -0.0412441 0)
(1.0781 -0.0360435 0)
(1.05274 -0.0299913 0)
(1.03541 -0.0242799 0)
(1.0234 -0.0186598 0)
(1.01551 -0.012814 0)
(1.0109 -0.00686125 0)
(1.0089 -0.000754111 0)
(1.00946 0.00529911 0)
(1.01259 0.0111613 0)
(1.01863 0.0169073 0)
(1.0284 0.0224511 0)
(1.04281 0.027895 0)
(1.06362 0.0336242 0)
(1.09415 0.0396935 0)
(1.09471 0.0414547 0)
(0.829945 0.0225908 0)
(0.175435 0.000653179 0)
(0.154689 -0.00048001 0)
(0.957911 -0.0253097 0)
(1.10423 -0.0347492 0)
(1.08793 -0.0323268 0)
(1.06123 -0.0278193 0)
(1.0432 -0.0228708 0)
(1.03079 -0.0177104 0)
(1.02213 -0.012368 0)
(1.01653 -0.00670703 0)
(1.01389 -0.000530705 0)
(1.01461 0.00567471 0)
(1.01854 0.0113948 0)
(1.02547 0.0166534 0)
(1.03573 0.0216478 0)
(1.05053 0.0264999 0)
(1.07243 0.0310332 0)
(1.10135 0.0349645 0)
(1.07032 0.0332746 0)
(0.743514 0.0140564 0)
(0.153732 0.000495078 0)
(0.140432 -0.000348757 0)
(0.901751 -0.0187703 0)
(1.09669 -0.0294634 0)
(1.09579 -0.0285634 0)
(1.06863 -0.0249128 0)
(1.04982 -0.0209569 0)
(1.03686 -0.0164416 0)
(1.02785 -0.0114745 0)
(1.02189 -0.00611442 0)
(1.01894 -0.000167746 0)
(1.01968 0.00584585 0)
(1.02385 0.0112421 0)
(1.03102 0.0160937 0)
(1.04166 0.0205292 0)
(1.05711 0.0244667 0)
(1.07986 0.0279502 0)
(1.10385 0.030707 0)
(1.03953 0.027014 0)
(0.6787 0.00978692 0)
(0.139093 0.000366562 0)
(0.130212 -0.000260529 0)
(0.853543 -0.0141132 0)
(1.08481 -0.024866 0)
(1.10142 -0.025067 0)
(1.0752 -0.0218124 0)
(1.05572 -0.0183945 0)
(1.04221 -0.0146144 0)
(1.03276 -0.0102626 0)
(1.02653 -0.0052859 0)
(1.02344 0.000320476 0)
(1.02409 0.00595002 0)
(1.0283 0.010938 0)
(1.03572 0.0152196 0)
(1.04678 0.0188671 0)
(1.06279 0.0220563 0)
(1.08615 0.0250656 0)
(1.10365 0.0270651 0)
(1.00681 0.0219309 0)
(0.629573 0.00720315 0)
(0.128408 0.000282265 0)
(0.122711 -0.000193016 0)
(0.813735 -0.0105042 0)
(1.0703 -0.0205315 0)
(1.10471 -0.021761 0)
(1.08091 -0.0191546 0)
(1.06084 -0.0161119 0)
(1.04701 -0.0127093 0)
(1.03733 -0.00878626 0)
(1.03088 -0.00426547 0)
(1.0276 0.000898632 0)
(1.02815 0.00605643 0)
(1.03237 0.0105191 0)
(1.03987 0.0142358 0)
(1.05111 0.0173562 0)
(1.0675 0.0200839 0)
(1.09138 0.0226342 0)
(1.10074 0.0236425 0)
(0.974809 0.0175553 0)
(0.591967 0.00536716 0)
(0.120345 0.000219825 0)
(0.117333 -0.000138835 0)
(0.78225 -0.00759147 0)
(1.05495 -0.0162715 0)
(1.10647 -0.0181111 0)
(1.08587 -0.0161174 0)
(1.06571 -0.013439 0)
(1.05182 -0.010379 0)
(1.04198 -0.00692119 0)
(1.03524 -0.00297414 0)
(1.03167 0.00161915 0)
(1.03214 0.00620508 0)
(1.03644 0.0099733 0)
(1.04398 0.0130294 0)
(1.05517 0.015648 0)
(1.07156 0.0179127 0)
(1.09505 0.0198714 0)
(1.09539 0.0200676 0)
(0.945597 0.0137285 0)
(0.563453 0.003973 0)
(0.114281 0.00017252 0)
(0.113612 -9.52621e-05 0)
(0.758438 -0.00508872 0)
(1.04038 -0.0121838 0)
(1.10724 -0.014309 0)
(1.09003 -0.0127038 0)
(1.06951 -0.0105193 0)
(1.0552 -0.00808898 0)
(1.04526 -0.00514761 0)
(1.0386 -0.00160786 0)
(1.03505 0.00248473 0)
(1.03521 0.00645335 0)
(1.03913 0.00966389 0)
(1.04643 0.0121121 0)
(1.05773 0.013931 0)
(1.07452 0.01545 0)
(1.09731 0.0168863 0)
(1.08852 0.0164941 0)
(0.920315 0.010347 0)
(0.542262 0.00281787 0)
(0.109714 0.000137782 0)
(0.111513 -3.65712e-05 0)
(0.74198 -0.00274409 0)
(1.02733 -0.00807892 0)
(1.10697 -0.0105178 0)
(1.09332 -0.00967809 0)
(1.07269 -0.00800788 0)
(1.05839 -0.00599929 0)
(1.04841 -0.00339533 0)
(1.04157 -0.000198059 0)
(1.03774 0.0034963 0)
(1.0377 0.00699037 0)
(1.04145 0.0096742 0)
(1.04857 0.0115692 0)
(1.05962 0.012848 0)
(1.07637 0.0137315 0)
(1.09805 0.0142703 0)
(1.08048 0.0129482 0)
(0.899366 0.00715631 0)
(0.527683 0.00177793 0)
(0.106574 9.06653e-05 0)
(0.110887 1.00867e-05 0)
(0.732087 -0.00108552 0)
(1.01624 -0.00466107 0)
(1.10517 -0.00719194 0)
(1.09546 -0.00704541 0)
(1.07539 -0.00579948 0)
(1.06137 -0.00402303 0)
(1.05166 -0.00155961 0)
(1.04489 0.00142353 0)
(1.04089 0.00474248 0)
(1.04049 0.00778045 0)
(1.04376 0.00992013 0)
(1.05031 0.011368 0)
(1.06079 0.012089 0)
(1.07704 0.0124204 0)
(1.09661 0.012162 0)
(1.07118 0.00999889 0)
(0.882867 0.00487563 0)
(0.518266 0.00114642 0)
(0.10466 5.31856e-05 0)
(0.11119 4.21036e-05 0)
(0.726927 -0.000206499 0)
(1.00815 -0.00231962 0)
(1.10283 -0.00420115 0)
(1.09676 -0.00409523 0)
(1.07751 -0.00299416 0)
(1.06369 -0.00140108 0)
(1.05399 0.000728268 0)
(1.04705 0.00331163 0)
(1.04276 0.00625668 0)
(1.04189 0.00883306 0)
(1.04469 0.0103564 0)
(1.05082 0.0110257 0)
(1.06092 0.0112149 0)
(1.07683 0.0110394 0)
(1.09402 0.0104663 0)
(1.06205 0.00812314 0)
(0.870191 0.0038883 0)
(0.511469 0.000967684 0)
(0.103349 4.16288e-05 0)
(0.111923 5.00931e-05 0)
(0.7243 0.000189837 0)
(1.00309 -0.00116097 0)
(1.10161 -0.00231295 0)
(1.09824 -0.00180067 0)
(1.07985 -0.000592997 0)
(1.0662 0.000993887 0)
(1.05656 0.00303372 0)
(1.04968 0.00545091 0)
(1.04517 0.00810382 0)
(1.0437 0.0102321 0)
(1.04576 0.0112465 0)
(1.05127 0.0115533 0)
(1.06067 0.0113648 0)
(1.07586 0.010911 0)
(1.09117 0.00999278 0)
(1.05391 0.00772806 0)
(0.859473 0.00387455 0)
(0.505198 0.00104783 0)
(0.102076 5.04107e-05 0)
(0.112889 5.70063e-05 0)
(0.72286 0.000510675 0)
(0.99936 -0.000587778 0)
(1.10122 -0.00161136 0)
(1.1004 -0.000931123 0)
(1.08224 0.000437687 0)
(1.06855 0.00224766 0)
(1.05891 0.00465751 0)
(1.05187 0.0074825 0)
(1.04691 0.0103197 0)
(1.04475 0.0124635 0)
(1.04604 0.0133996 0)
(1.05089 0.0134344 0)
(1.05997 0.0127964 0)
(1.07448 0.0121811 0)
(1.08814 0.0111814 0)
(1.04574 0.00850562 0)
(0.848659 0.00423288 0)
(0.498483 0.00119962 0)
(0.100547 6.80564e-05 0)
(0.114095 6.56394e-05 0)
(0.722653 0.00104288 0)
(0.995594 0.000241625 0)
(1.1003 -0.00136621 0)
(1.10238 -0.00112641 0)
(1.08512 0.00012366 0)
(1.07167 0.00242889 0)
(1.06211 0.00563197 0)
(1.05478 0.00929364 0)
(1.04918 0.0129751 0)
(1.0462 0.0157494 0)
(1.04664 0.017088 0)
(1.05048 0.0173767 0)
(1.05871 0.016948 0)
(1.07268 0.0156781 0)
(1.08377 0.0137581 0)
(1.03541 0.00955214 0)
(0.836887 0.00450796 0)
(0.491285 0.00133833 0)
(0.0987038 8.54245e-05 0)
(0.115755 8.50921e-05 0)
(0.724128 0.00170502 0)
(0.99208 0.0016532 0)
(1.09754 -0.000257532 0)
(1.10341 -0.000723834 0)
(1.08816 0.00017928 0)
(1.07554 0.00289922 0)
(1.06619 0.00691126 0)
(1.05849 0.0115333 0)
(1.0521 0.0162869 0)
(1.04812 0.0198793 0)
(1.04749 0.0217318 0)
(1.05035 0.022211 0)
(1.05701 0.0215103 0)
(1.06933 0.0197604 0)
(1.07593 0.0160604 0)
(1.022 0.0101494 0)
(0.824587 0.00467867 0)
(0.48373 0.00149177 0)
(0.0965521 0.000102804 0)
(0.118101 0.000116078 0)
(0.728313 0.00256715 0)
(0.990446 0.00374782 0)
(1.09355 0.00229871 0)
(1.10373 0.00114672 0)
(1.09132 0.00210172 0)
(1.08021 0.00535007 0)
(1.07109 0.00994771 0)
(1.06298 0.0152094 0)
(1.05559 0.0205588 0)
(1.05037 0.024405 0)
(1.04845 0.0261584 0)
(1.04985 0.0262544 0)
(1.05471 0.0250181 0)
(1.06357 0.0221054 0)
(1.06465 0.0169282 0)
(1.00709 0.0103 0)
(0.812511 0.0049578 0)
(0.475696 0.00170122 0)
(0.0940819 0.000120105 0)
(0.12133 0.000161427 0)
(0.736021 0.00367139 0)
(0.992237 0.00604741 0)
(1.09104 0.00610618 0)
(1.10366 0.00553687 0)
(1.0949 0.00692525 0)
(1.08543 0.0105172 0)
(1.07647 0.0154097 0)
(1.06782 0.0208652 0)
(1.05915 0.0260684 0)
(1.05232 0.0293396 0)
(1.04885 0.0302247 0)
(1.04839 0.0292914 0)
(1.05094 0.0269705 0)
(1.05557 0.0229009 0)
(1.0519 0.0170861 0)
(0.992705 0.010625 0)
(0.800698 0.00554299 0)
(0.46673 0.00200144 0)
(0.0912022 0.000140876 0)
(0.125682 0.000218278 0)
(0.747372 0.00489211 0)
(0.997956 0.00865015 0)
(1.09205 0.0104447 0)
(1.10522 0.0114075 0)
(1.09916 0.0138678 0)
(1.09094 0.0179671 0)
(1.08202 0.0230949 0)
(1.07249 0.0284657 0)
(1.06217 0.0330088 0)
(1.05337 0.0351142 0)
(1.04802 0.0345969 0)
(1.04544 0.0321756 0)
(1.04536 0.0284416 0)
(1.04649 0.0235559 0)
(1.03947 0.0177113 0)
(0.979402 0.0116791 0)
(0.788347 0.00654421 0)
(0.456191 0.00242544 0)
(0.0877742 0.000169076 0)
(0.131405 0.000297173 0)
(0.762678 0.00649562 0)
(1.00814 0.0117757 0)
(1.0973 0.0153094 0)
(1.10975 0.0179932 0)
(1.10482 0.0219365 0)
(1.09705 0.0269881 0)
(1.08765 0.0325747 0)
(1.07674 0.0378757 0)
(1.06432 0.0415959 0)
(1.05313 0.0422074 0)
(1.04561 0.0398862 0)
(1.04071 0.0359245 0)
(1.0383 0.0308763 0)
(1.03688 0.0253662 0)
(1.02767 0.0195324 0)
(0.966449 0.0136156 0)
(0.774377 0.00794737 0)
(0.443398 0.00298225 0)
(0.0836131 0.000205706 0)
(0.138999 0.000410338 0)
(0.782681 0.00870579 0)
(1.02292 0.0157287 0)
(1.1067 0.0209042 0)
(1.11767 0.0254546 0)
(1.11251 0.0311331 0)
(1.1042 0.0375088 0)
(1.09355 0.0438719 0)
(1.08059 0.0492491 0)
(1.06548 0.0521623 0)
(1.05142 0.051208 0)
(1.04142 0.0470686 0)
(1.03436 0.0413829 0)
(1.02989 0.0351295 0)
(1.02661 0.0288852 0)
(1.01581 0.0227524 0)
(0.95264 0.0164437 0)
(0.757714 0.0098132 0)
(0.427727 0.00368067 0)
(0.078567 0.000250473 0)
(0.149234 0.000580936 0)
(0.808595 0.011853 0)
(1.04273 0.0209712 0)
(1.12044 0.0279033 0)
(1.12922 0.0345141 0)
(1.12277 0.0421994 0)
(1.11287 0.0501792 0)
(1.09998 0.0575147 0)
(1.08413 0.0630352 0)
(1.06564 0.0651139 0)
(1.04826 0.0625012 0)
(1.03547 0.0564887 0)
(1.02623 0.0490599 0)
(1.01995 0.0414407 0)
(1.01517 0.0342093 0)
(1.00291 0.0273632 0)
(0.936791 0.0201698 0)
(0.737726 0.0121337 0)
(0.408748 0.00446596 0)
(0.0725172 0.000291484 0)
(0.163354 0.000863779 0)
(0.842449 0.0166372 0)
(1.06887 0.0284386 0)
(1.13909 0.0374066 0)
(1.14478 0.0464702 0)
(1.13592 0.0564044 0)
(1.12319 0.0661137 0)
(1.10692 0.074392 0)
(1.08725 0.0798993 0)
(1.06468 0.0809031 0)
(1.04353 0.0763848 0)
(1.02769 0.0683345 0)
(1.01624 0.059062 0)
(1.00819 0.0498668 0)
(1.00198 0.0413575 0)
(0.988051 0.0334116 0)
(0.917831 0.024889 0)
(0.713424 0.0149849 0)
(0.385775 0.00544617 0)
(0.0653326 0.000343356 0)
(0.183579 0.00136365 0)
(0.887522 0.0242612 0)
(1.10329 0.0397205 0)
(1.16354 0.0510831 0)
(1.16479 0.0632969 0)
(1.15195 0.0756146 0)
(1.13492 0.0868496 0)
(1.11407 0.0956526 0)
(1.08964 0.100601 0)
(1.06232 0.0999741 0)
(1.03702 0.0931216 0)
(1.01796 0.0827677 0)
(1.00417 0.0714694 0)
(0.994267 0.0604973 0)
(0.986523 0.0504675 0)
(0.970417 0.0411122 0)
(0.894669 0.0308137 0)
(0.683678 0.0185531 0)
(0.358149 0.00663315 0)
(0.056915 0.000394 0)
(0.213318 0.00250082 0)
(0.94953 0.0377088 0)
(1.14819 0.0586311 0)
(1.19501 0.0727057 0)
(1.18915 0.0882136 0)
(1.17031 0.102358 0)
(1.14737 0.114177 0)
(1.1207 0.122447 0)
(1.0907 0.125819 0)
(1.05813 0.122685 0)
(1.02844 0.112904 0)
(1.00608 0.0999172 0)
(0.989845 0.0864035 0)
(0.977956 0.0735181 0)
(0.968389 0.0618197 0)
(0.949421 0.0508766 0)
(0.866186 0.0383097 0)
(0.647393 0.0230222 0)
(0.325954 0.00814032 0)
(0.0475471 0.000428846 0)
(0.254383 0.00903537 -2.61256e-20)
(1.03232 0.0654212 -2.08021e-20)
(1.20157 0.0912971 5.88682e-21)
(1.23137 0.108331 0)
(1.21533 0.125144 1.58939e-35)
(1.18894 0.139075 1.02025e-22)
(1.15898 0.149738 -2.21248e-21)
(1.12573 0.156106 0)
(1.08962 0.156908 9.02029e-35)
(1.0513 0.150599 -6.97714e-21)
(1.01674 0.137559 0)
(0.990635 0.121839 -1.013e-20)
(0.971461 0.106113 -3.10431e-20)
(0.957071 0.0914292 -1.50319e-20)
(0.94503 0.0783289 -4.73839e-21)
(0.922232 0.0661282 -2.8664e-21)
(0.829413 0.0510073 0)
(0.601159 0.0311437 2.04188e-21)
(0.288282 0.0122354 2.41181e-21)
(0.0389491 0.00131594 4.2133e-20)
(0.281139 0.0250854 -4.74398e-20)
(1.10005 0.109804 9.94629e-22)
(1.24675 0.139263 -2.82661e-21)
(1.26395 0.157465 0)
(1.23875 0.172603 4.77924e-21)
(1.20505 0.184782 2.88208e-21)
(1.16814 0.193532 -1.28895e-21)
(1.12817 0.197759 -1.13244e-20)
(1.08548 0.196074 0)
(1.04063 0.186875 2.96842e-20)
(1.00004 0.17094 3.30932e-20)
(0.968885 0.152874 1.06982e-20)
(0.945467 0.135303 4.24193e-20)
(0.92734 0.119033 6.25661e-20)
(0.911349 0.104512 0)
(0.882486 0.0908804 9.29114e-20)
(0.783216 0.073106 1.34842e-19)
(0.553852 0.0477485 1.49465e-19)
(0.259676 0.0216779 -1.72238e-19)
(0.033726 0.00288438 -3.14108e-21)
(0.278972 0.0410064 0)
(1.14034 0.167158 -1.46964e-20)
(1.2793 0.199263 0)
(1.2892 0.216408 2.43496e-20)
(1.25706 0.227979 0)
(1.21702 0.236759 1.30258e-20)
(1.17385 0.24225 1.04468e-21)
(1.1277 0.243298 -1.60723e-20)
(1.07887 0.238442 -3.11949e-21)
(1.02788 0.226005 1.43421e-20)
(0.981792 0.207224 7.76032e-20)
(0.946089 0.187116 -5.94452e-22)
(0.91887 0.168243 -3.19655e-20)
(0.897442 0.151214 -6.22181e-20)
(0.878523 0.136143 7.54319e-20)
(0.847672 0.121863 -1.35487e-19)
(0.753892 0.101489 -1.84215e-20)
(0.540544 0.0709916 0)
(0.26729 0.0353059 1.58327e-22)
(0.0387581 0.00547462 0)
(0.270523 0.0546631 -3.58742e-19)
(1.1598 0.227375 1.50435e-19)
(1.30022 0.264549 8.21434e-20)
(1.3058 0.280019 -1.58795e-20)
(1.26883 0.287704 2.43342e-20)
(1.224 0.292495 -3.10799e-20)
(1.17576 0.294151 4.41864e-22)
(1.1244 0.291462 0)
(1.07022 0.28298 -5.51766e-20)
(1.01377 0.267033 0)
(0.962812 0.245379 -3.95958e-20)
(0.923289 0.223384 -5.61241e-20)
(0.893022 0.20344 -3.59698e-20)
(0.869122 0.185919 -4.65148e-20)
(0.848329 0.17065 0)
(0.817647 0.155865 0)
(0.733428 0.134092 -1.24667e-19)
(0.540909 0.0985657 2.47714e-20)
(0.28197 0.0521469 -1.43921e-20)
(0.0453924 0.00887146 -1.65542e-20)
(0.261927 0.0668791 2.64856e-19)
(1.16619 0.287237 0)
(1.31191 0.331045 -2.29865e-19)
(1.31469 0.344868 -5.95357e-20)
(1.27437 0.348854 -4.57532e-20)
(1.22601 0.34969 0)
(1.17385 0.347445 -6.75352e-21)
(1.11823 0.340925 1.37972e-20)
(1.0596 0.32866 2.37962e-20)
(0.99851 0.30906 7.32568e-20)
(0.943463 0.284407 0)
(0.900912 0.260486 -1.22624e-19)
(0.868396 0.239465 -7.87293e-20)
(0.842824 0.221473 -4.7506e-20)
(0.820989 0.206152 3.12168e-19)
(0.79138 0.191337 3.83326e-20)
(0.715117 0.16896 1.82473e-19)
(0.540792 0.127726 -8.75461e-19)
(0.291927 0.0701452 5.18903e-19)
(0.0503252 0.0124889 -6.17195e-19)
(0.25433 0.0778948 2.79488e-19)
(1.16455 0.344767 -5.28027e-20)
(1.31642 0.396428 4.03919e-20)
(1.3175 0.409044 1.10307e-19)
(1.27472 0.409638 6.81116e-20)
(1.2237 0.406757 3.33455e-21)
(1.16847 0.400788 6.13466e-21)
(1.10941 0.390534 9.41739e-21)
(1.04705 0.374539 -5.25168e-20)
(0.982099 0.351238 0)
(0.923649 0.323467 -5.25068e-20)
(0.878767 0.297409 -3.04934e-21)
(0.844709 0.275126 -8.83347e-20)
(0.818143 0.25649 0)
(0.795913 0.240926 -6.82286e-20)
(0.767763 0.225953 -1.66005e-19)
(0.698243 0.202454 4.57848e-19)
(0.536193 0.155537 -4.52925e-19)
(0.294501 0.0864941 6.38691e-19)
(0.0524101 0.0156283 -6.57694e-19)
(0.248218 0.0881296 -8.27146e-22)
(1.15807 0.399372 6.45841e-20)
(1.31569 0.45965 1.92827e-19)
(1.31564 0.471516 -6.74576e-20)
(1.27108 0.469039 3.88555e-20)
(1.21798 0.462752 0)
(1.16027 0.453318 1.84808e-20)
(1.09836 0.439517 -6.38024e-21)
(1.03283 0.419919 -2.36491e-20)
(0.964528 0.39294 0)
(0.903241 0.361906 -5.12071e-20)
(0.856454 0.333457 -7.24542e-20)
(0.821276 0.309593 9.68005e-20)
(0.794193 0.289951 -6.21065e-20)
(0.772049 0.273696 -3.01145e-19)
(0.745389 0.258164 1.85134e-19)
(0.680957 0.232969 5.82791e-20)
(0.527037 0.17994 0)
(0.291517 0.100144 -6.218e-19)
(0.0523312 0.0180823 -2.25836e-20)
(0.243488 0.097898 4.57827e-20)
(1.14878 0.450929 -7.4249e-20)
(1.31111 0.520174 -1.0543e-19)
(1.31028 0.531595 -2.07737e-19)
(1.26435 0.526433 1.88202e-19)
(1.2096 0.517115 -1.01304e-19)
(1.14987 0.504484 -3.88999e-20)
(1.08556 0.487382 -8.67608e-21)
(1.01728 0.464359 2.46511e-20)
(0.945978 0.433771 -1.79533e-19)
(0.882094 0.399378 -6.33142e-20)
(0.833696 0.368289 0)
(0.797812 0.342435 1.06009e-19)
(0.77058 0.321378 1.31267e-19)
(0.748734 0.304076 1.61735e-19)
(0.723332 0.287502 -2.02135e-19)
(0.66236 0.260196 -6.07357e-20)
(0.513964 0.201016 7.14563e-20)
(0.284335 0.111158 0)
(0.0509791 0.0199267 -4.92325e-20)
(0.239927 0.107326 -5.31207e-19)
(1.13808 0.499575 3.39812e-19)
(1.30384 0.577749 1.15969e-19)
(1.30233 0.588954 -1.58438e-19)
(1.25532 0.581472 1.12386e-19)
(1.19926 0.569452 -7.79452e-21)
(1.13785 0.553947 3.8237e-20)
(1.07147 0.533827 -4.26788e-21)
(1.00074 0.507599 -4.28441e-20)
(0.926713 0.473521 3.61557e-22)
(0.860479 0.435704 -1.88603e-19)
(0.810627 0.401738 1.85309e-19)
(0.774112 0.373578 -1.18985e-19)
(0.74682 0.350761 1.48211e-19)
(0.72531 0.332091 0)
(0.700934 0.314089 -1.09814e-19)
(0.642348 0.283988 -2.34188e-21)
(0.497764 0.218766 -3.12842e-19)
(0.273822 0.119577 -4.58911e-20)
(0.0485028 0.0210841 0)
(0.237366 0.116516 0)
(1.1268 0.545537 3.68862e-19)
(1.29462 0.632295 2.70086e-19)
(1.29253 0.643473 1.78656e-19)
(1.24463 0.63396 1.08378e-19)
(1.18748 0.619556 0)
(1.12468 0.601488 3.57232e-20)
(1.05652 0.578646 -2.41794e-21)
(0.98359 0.549485 9.09208e-20)
(0.90704 0.512102 -2.18552e-20)
(0.838507 0.470838 -1.38401e-19)
(0.787107 0.433772 9.26248e-20)
(0.749846 0.403013 -3.93108e-21)
(0.722528 0.378085 1.56072e-19)
(0.701389 0.357698 1.02169e-19)
(0.677843 0.33796 -2.39184e-19)
(0.620741 0.30464 2.88727e-19)
(0.478903 0.233129 8.57053e-20)
(0.260712 0.125607 3.51556e-19)
(0.045205 0.021545 -9.2948e-19)
(0.235672 0.125609 -1.36267e-19)
(1.11549 0.588972 2.12617e-19)
(1.28414 0.683865 -1.6799e-19)
(1.28142 0.695115 -2.07135e-19)
(1.23277 0.683814 0)
(1.17476 0.667304 8.76507e-20)
(1.11078 0.646977 -1.03309e-19)
(1.04104 0.621715 -8.76436e-22)
(0.966102 0.589904 0)
(0.887055 0.549446 -3.40691e-19)
(0.816119 0.504803 3.77696e-19)
(0.763161 0.464516 0)
(0.725093 0.430916 1.40993e-19)
(0.697637 0.403533 -3.94753e-21)
(0.676817 0.381098 -3.23255e-19)
(0.653834 0.359258 1.26974e-19)
(0.597465 0.322247 0)
(0.457766 0.244229 4.65151e-19)
(0.24554 0.129258 0)
(0.0413419 0.0214414 -4.43051e-19)
(0.234646 0.134611 1.51863e-19)
(1.10437 0.630145 2.42909e-19)
(1.27298 0.732456 -1.75978e-19)
(1.26943 0.743925 0)
(1.22018 0.731021 1.48675e-19)
(1.16145 0.712662 0)
(1.09645 0.690346 1.34924e-19)
(1.02532 0.662959 1.52265e-20)
(0.948472 0.628805 8.76642e-21)
(0.866961 0.585558 -1.68283e-19)
(0.793541 0.537676 3.65535e-20)
(0.738811 0.494115 0)
(0.699803 0.457459 -2.99897e-19)
(0.672031 0.427371 4.08129e-21)
(0.651419 0.402555 0)
(0.628726 0.378228 4.8243e-21)
(0.57241 0.336944 4.25278e-19)
(0.434337 0.252022 -4.07074e-19)
(0.228515 0.130505 1.19488e-19)
(0.0369569 0.0207086 0)
(0.233954 0.143407 0)
(1.09369 0.669089 2.71706e-19)
(1.2613 0.778223 2.06028e-19)
(1.2569 0.78995 -4.3775e-21)
(1.20717 0.775612 9.28594e-20)
(1.14784 0.755631 2.06333e-19)
(1.08199 0.73158 -4.35028e-20)
(1.00959 0.702352 6.16988e-21)
(0.930966 0.666174 5.42177e-20)
(0.847034 0.620476 -2.62008e-19)
(0.77094 0.569579 -6.35935e-21)
(0.714087 0.52273 -1.22379e-19)
(0.673843 0.482773 4.91697e-19)
(0.645626 0.449682 -4.86789e-21)
(0.625102 0.422205 -2.54937e-19)
(0.602432 0.394964 -4.65514e-19)
(0.545594 0.34881 0)
(0.408737 0.256653 0)
(0.209792 0.12925 1.31183e-19)
(0.0322507 0.0193613 -7.55808e-20)
(0.233843 0.152116 1.88719e-19)
(1.08356 0.705781 -5.95342e-19)
(1.24934 0.821322 -2.20482e-19)
(1.24413 0.833248 0)
(1.194 0.817639 -3.03831e-21)
(1.1342 0.796242 2.47145e-19)
(1.06762 0.770695 -1.44708e-19)
(0.994095 0.739899 -6.61773e-20)
(0.913818 0.702021 5.42145e-20)
(0.827445 0.654231 -2.01091e-19)
(0.748464 0.600617 -3.19316e-19)
(0.689143 0.550561 3.26215e-19)
(0.647235 0.507149 0)
(0.618319 0.470741 -1.1477e-19)
(0.59775 0.440262 -2.79934e-19)
(0.574836 0.409635 -3.37321e-19)
(0.516848 0.357858 -4.08364e-19)
(0.380942 0.257991 1.21579e-19)
(0.189366 0.125286 -7.10017e-20)
(0.0271889 0.0173867 7.83238e-22)
(0.233715 0.160663 0)
(1.07411 0.740384 0)
(1.23732 0.861826 4.96827e-21)
(1.23131 0.873916 0)
(1.18087 0.857193 -3.47892e-19)
(1.12069 0.834556 -2.17827e-19)
(1.05351 0.807718 0)
(0.979007 0.775609 -1.57276e-20)
(0.897173 0.736343 6.46303e-20)
(0.808369 0.686851 -4.61755e-19)
(0.726314 0.630902 0)
(0.66412 0.577816 -2.08984e-19)
(0.620104 0.530845 -5.95951e-21)
(0.590078 0.490815 -4.90696e-21)
(0.569274 0.456906 2.98775e-19)
(0.545868 0.422279 -8.19531e-22)
(0.4862 0.363992 -8.86832e-19)
(0.350776 0.2558 2.64762e-19)
(0.16734 0.118622 7.81849e-20)
(0.0218234 0.0148272 0)
(0.233614 0.168918 -6.92617e-19)
(1.06507 0.773235 -3.65725e-19)
(1.22537 0.899854 -5.50591e-19)
(1.2186 0.912063 7.71998e-19)
(1.16793 0.894336 -6.51158e-19)
(1.10746 0.870628 0)
(1.03979 0.84269 -1.22124e-19)
(0.964439 0.809502 2.95532e-20)
(0.881163 0.769151 7.44811e-21)
(0.78999 0.718365 3.66105e-20)
(0.704682 0.660519 3.9958e-19)
(0.639186 0.604686 -7.13861e-20)
(0.592499 0.554176 -3.03319e-19)
(0.560834 0.510198 -1.36353e-19)
(0.539515 0.472273 1.66336e-19)
(0.515358 0.432811 -6.38599e-22)
(0.453593 0.366977 2.43023e-19)
(0.318194 0.249772 -5.74136e-19)
(0.144036 0.109248 6.79853e-19)
(0.0164453 0.0118548 9.70328e-20)
(0.233414 0.176846 2.54034e-19)
(1.05643 0.804365 -2.00028e-19)
(1.21361 0.935522 1.17216e-20)
(1.20611 0.947812 4.35384e-19)
(1.15528 0.929179 1.51846e-19)
(1.09462 0.904528 4.33452e-19)
(1.02658 0.875659 -5.37725e-20)
(0.950494 0.841601 1.40669e-19)
(0.865918 0.800447 -2.68947e-20)
(0.772443 0.748769 -2.50509e-19)
(0.683763 0.689523 0)
(0.614571 0.631353 -3.21468e-19)
(0.564555 0.57746 4.40347e-19)
(0.530497 0.529255 0)
(0.50817 0.486521 -3.55906e-19)
(0.483021 0.44098 2.20178e-19)
(0.419 0.36625 -2.6254e-19)
(0.28411 0.239749 -3.13887e-19)
(0.120506 0.0976741 -5.52762e-19)
(0.0112852 0.00863147 -4.2473e-19)
(0.233379 0.184545 -2.78689e-19)
(1.04803 0.833767 2.13536e-19)
(1.2021 0.968916 5.11522e-19)
(1.19392 0.981252 5.97397e-19)
(1.14301 0.961812 -3.1742e-19)
(1.08223 0.936343 2.98222e-19)
(1.01393 0.90668 -1.67129e-19)
(0.937251 0.87195 1.72765e-19)
(0.851504 0.83025 -3.63346e-21)
(0.755843 0.778064 2.37905e-19)
(0.663732 0.71794 8.47354e-19)
(0.590503 0.657942 0)
(0.5365 0.601016 0)
(0.499037 0.548492 -1.57582e-19)
(0.474793 0.499973 0)
(0.448224 0.446303 4.79068e-19)
(0.38227 0.360687 5.73016e-19)
(0.249484 0.225005 0)
(0.0980988 0.0842091 0)
(0.0067412 0.00548464 4.61697e-19)
(0.233061 0.191749 3.06839e-19)
(1.03991 0.861456 2.55276e-19)
(1.19089 1.00016 3.66788e-19)
(1.18209 1.01251 -5.3212e-19)
(1.13117 0.992337 -3.53056e-19)
(1.07035 0.966147 -3.94409e-19)
(1.0019 0.935816 2.47132e-19)
(0.924752 0.900577 7.76347e-22)
(0.837981 0.85856 -9.5469e-21)
(0.740278 0.806231 -1.18148e-20)
(0.644765 0.745765 4.28835e-19)
(0.567231 0.684516 0)
(0.508627 0.625102 4.44427e-19)
(0.466546 0.56852 3.32264e-19)
(0.438774 0.5133 8.47624e-19)
(0.409638 0.448426 2.58503e-19)
(0.342597 0.348115 -3.15506e-19)
(0.216403 0.203194 -1.84509e-19)
(0.0809097 0.068811 0)
(0.00406151 0.00291648 5.00855e-19)
(0.23293 0.198866 -6.73051e-19)
(1.03203 0.887541 0)
(1.18 1.02932 4.0872e-19)
(1.17066 1.04168 -4.34893e-19)
(1.11981 1.02085 3.98551e-19)
(1.05901 0.994026 5.74358e-19)
(0.99052 0.963125 -5.7066e-19)
(0.913018 0.927521 6.15929e-21)
(0.825376 0.885387 0)
(0.725809 0.833226 -2.18969e-19)
(0.627004 0.772957 -8.8719e-19)
(0.545009 0.711093 4.36857e-20)
(0.481342 0.649865 6.04151e-19)
(0.433365 0.58999 0)
(0.399582 0.527691 5.72328e-19)
(0.365082 0.448039 0)
(0.296387 0.325818 0)
(0.185575 0.165899 -2.04969e-19)
(0.083749 0.0411165 0)
(0.0245651 0.0100674 1.35091e-19)
(0.232479 0.205346 -7.33872e-19)
(1.02438 0.912303 0)
(1.16941 1.05662 6.59497e-19)
(1.15959 1.06898 0)
(1.10888 1.04759 -2.15507e-19)
(1.04816 1.02026 0)
(0.979718 0.988909 -4.24062e-20)
(0.901956 0.953112 -2.96491e-20)
(0.813577 0.911088 -1.77965e-21)
(0.712294 0.859428 -2.12348e-19)
(0.610328 0.799929 2.30657e-20)
(0.523734 0.738207 3.61044e-19)
(0.454517 0.675827 5.84261e-19)
(0.399309 0.613908 8.35626e-20)
(0.356172 0.54528 4.48114e-19)
(0.311165 0.448291 0)
(0.232271 0.295428 6.87488e-19)
(0.130611 0.101862 -4.02565e-19)
(0.0514545 0.0556234 4.59125e-19)
(-0.0571325 0.401883 -5.41506e-19)
(0.232006 0.211555 5.97191e-19)
(1.01672 0.935681 9.63996e-19)
(1.15906 1.08235 0)
(1.14876 1.09483 9.59902e-21)
(1.09823 1.07313 5.8444e-19)
(1.03755 1.04549 -1.10562e-18)
(0.969216 1.01394 -2.50156e-19)
(0.891205 0.97826 0)
(0.802116 0.936721 -5.7291e-20)
(0.699145 0.886111 -5.89173e-21)
(0.593932 0.828127 0)
(0.502396 0.767614 0)
(0.427001 0.704827 5.13103e-19)
(0.363397 0.642217 -2.61501e-19)
(0.306496 0.569876 -4.47928e-19)
(0.243718 0.456775 0)
(0.129579 0.275914 3.46989e-19)
(0.0229459 0.433993 -4.00592e-19)
(0.0423132 1.8031 -2.10562e-19)
(0.0768706 2.76354 -2.82162e-19)
(0.231352 0.216994 -4.33339e-19)
(1.00921 0.95776 -1.21222e-18)
(1.14893 1.10653 3.78116e-19)
(1.13817 1.11908 3.66224e-19)
(1.0879 1.09725 0)
(1.02723 1.06947 -7.89816e-19)
(0.959189 1.03791 -4.17956e-19)
(0.880922 1.00254 1.95969e-20)
(0.791225 0.961775 -7.65478e-21)
(0.686699 0.912652 1.57266e-19)
(0.578371 0.856817 3.92358e-19)
(0.481935 0.798752 3.70998e-19)
(0.400024 0.736355 5.03738e-19)
(0.327978 0.673166 -5.96679e-19)
(0.25641 0.603707 -6.62941e-19)
(0.165459 0.486405 0)
(0.0691995 0.810445 0)
(0.123788 2.48769 1.79215e-19)
(0.129137 3.16941 0)
(0.130845 3.37483 3.83782e-19)
(0.233567 0.222204 0)
(1.00244 0.978734 0)
(1.13878 1.12901 0)
(1.12761 1.14153 1.01681e-19)
(1.0776 1.11974 5.19376e-19)
(1.01699 1.09203 -6.01357e-19)
(0.949538 1.06071 -2.98691e-19)
(0.871048 1.02585 2.22014e-20)
(0.780854 0.986103 -1.361e-19)
(0.674966 0.938895 -2.0154e-20)
(0.563763 0.885837 7.0444e-19)
(0.462708 0.831409 -4.36296e-20)
(0.374047 0.770967 5.66445e-20)
(0.294674 0.703995 8.48059e-20)
(0.211074 0.644425 2.49411e-21)
(0.132979 0.910687 3.43022e-21)
(0.171691 2.62372 -9.0382e-19)
(0.189457 3.27142 -3.38324e-19)
(0.173336 3.42386 1.52693e-19)
(0.155632 3.44977 -1.55206e-19)
(0.152867 0.174508 2.37989e-19)
(0.990152 1.00166 0)
(1.12841 1.14995 -7.31697e-19)
(1.1177 1.16268 -9.34635e-19)
(1.06794 1.14124 1.08325e-18)
(1.00761 1.11375 6.3914e-19)
(0.940115 1.08243 3.46162e-19)
(0.861649 1.04827 -3.77096e-19)
(0.77115 1.00979 1.44831e-19)
(0.664265 0.964849 0)
(0.5506 0.915116 2.99788e-19)
(0.445438 0.865072 -2.74577e-19)
(0.349939 0.81068 0)
(0.26429 0.738164 7.2261e-20)
(0.191087 0.839511 1.75757e-19)
(0.183008 2.30819 -2.20054e-19)
(0.260123 3.30841 2.40282e-19)
(0.236588 3.44361 1.16096e-19)
(0.197037 3.46887 1.29085e-19)
(0.170953 3.48067 1.61819e-19)
(0.271658 0.25765 -4.29116e-19)
(0.972248 1.00845 0)
(1.10929 1.17304 7.46882e-19)
(1.10397 1.19397 9.68183e-19)
(1.05248 1.17282 -1.1029e-18)
(0.991997 1.14586 -6.73872e-19)
(0.923944 1.11588 -5.34698e-19)
(0.845265 1.08292 -2.80636e-20)
(0.754026 1.04667 -2.08932e-19)
(0.645299 1.00581 -3.29773e-21)
(0.527935 0.96281 1.11384e-20)
(0.416429 0.92136 2.10094e-19)
(0.307353 0.881271 4.58886e-20)
(0.239014 0.983324 -6.6525e-20)
(0.265014 2.18189 -1.54886e-19)
(0.336661 3.30879 1.06994e-19)
(0.324007 3.48215 -9.67666e-20)
(0.282301 3.50747 -5.44567e-20)
(0.241872 3.53654 1.09056e-20)
(0.183474 3.52823 -6.72884e-22)
(0.259772 0.254225 0)
(0.968882 1.02938 1.95812e-19)
(1.10105 1.19496 -1.48638e-19)
(1.09405 1.21586 -1.0841e-19)
(1.0428 1.19473 -7.26777e-19)
(0.982544 1.16797 6.59511e-19)
(0.914389 1.13817 3.60583e-19)
(0.835881 1.10601 -2.94863e-20)
(0.744683 1.07126 2.58977e-19)
(0.635559 1.0333 -2.82743e-20)
(0.516847 0.995292 -3.68995e-19)
(0.402934 0.960401 2.98566e-20)
(0.296477 0.944039 -3.94678e-20)
(0.282319 1.39563 -5.47576e-20)
(0.373841 3.0087 3.64014e-20)
(0.410256 3.47216 1.93404e-21)
(0.36237 3.54729 -5.60512e-20)
(0.32044 3.57376 -9.38778e-20)
(0.26476 3.59902 1.42396e-19)
(0.199728 3.59251 4.66244e-20)
(0.243255 0.251321 4.76851e-19)
(0.963733 1.05255 1.32779e-18)
(1.09216 1.2187 -4.26123e-19)
(1.0837 1.23913 -4.13062e-19)
(1.03267 1.21784 0)
(0.972683 1.19109 9.67479e-19)
(0.904713 1.1615 5.51032e-19)
(0.826663 1.13008 -3.10709e-20)
(0.735848 1.09689 2.69224e-20)
(0.626871 1.06197 1.38846e-19)
(0.507607 1.02921 -1.03233e-19)
(0.393184 1.00187 -1.9898e-19)
(0.303121 1.05371 -2.55017e-19)
(0.358701 1.99556 2.82789e-19)
(0.470333 3.35318 1.31786e-19)
(0.463993 3.54588 0)
(0.407565 3.59514 0)
(0.368211 3.64443 1.43527e-19)
(0.296039 3.71502 0)
(0.212382 3.67579 2.17416e-19)
(0.231859 0.25188 -6.99177e-19)
(0.956415 1.07634 -1.10915e-18)
(1.08185 1.24345 0)
(1.07215 1.26316 1.09855e-20)
(1.02138 1.24146 -7.11269e-19)
(0.961786 1.21456 1.44061e-18)
(0.894336 1.18519 3.71293e-19)
(0.816969 1.1544 -3.86512e-20)
(0.726811 1.12266 2.90496e-19)
(0.618405 1.09071 -1.51597e-20)
(0.499375 1.06326 0)