/*--------------------------------*- C++ -*----------------------------------*\
| =========                 |                                                 |
| \\      /  F ield         | OpenFOAM: The Open Source CFD Toolbox           |
|  \\    /   O peration     | Version:  2306                                  |
|   \\  /    A nd           | Website:  www.openfoam.com                      |
|    \\/     M anipulation  |                                                 |
\*---------------------------------------------------------------------------*/
FoamFile
{
    version     2.0;
    format      ascii;
    arch        "LSB;label=32;scalar=64";
    class       volScalarField;
    location    "39";
    object      p;
}
// * * * * * * * * * * * * * * * * * * * * * * * * * * * * * * * * * * * * * //

dimensions      [0 2 -2 0 0 0 0];

internalField   nonuniform List<scalar> 
8800
(
0.935036
0.886983
0.848603
0.819954
0.799319
0.784547
0.77392
0.766386
0.761506
0.759387
0.760602
0.764765
0.771401
0.780714
0.793452
0.811028
0.835465
0.869072
0.911514
0.968639
0.767575
0.77478
0.783213
0.786623
0.784698
0.779161
0.772429
0.766239
0.761442
0.758533
0.758196
0.760657
0.765129
0.771098
0.777989
0.784593
0.788715
0.788196
0.782127
0.773145
0.744301
0.750476
0.754668
0.75802
0.760507
0.761285
0.760151
0.75797
0.755884
0.75491
0.755813
0.758157
0.760952
0.763141
0.763653
0.762106
0.759247
0.7556
0.751062
0.747277
0.739193
0.741892
0.744605
0.746905
0.748537
0.749841
0.750719
0.750882
0.750563
0.750454
0.751135
0.752233
0.752976
0.752879
0.752057
0.750841
0.749076
0.746564
0.744132
0.742602
0.734037
0.735457
0.73725
0.739293
0.741028
0.74231
0.743303
0.744128
0.744742
0.745257
0.745818
0.746202
0.746174
0.745778
0.745047
0.743815
0.742096
0.7402
0.738869
0.738046
0.729077
0.729989
0.731218
0.732788
0.734423
0.735922
0.737157
0.738181
0.739105
0.739931
0.740515
0.740727
0.740593
0.740099
0.739181
0.737926
0.736544
0.735254
0.734422
0.733879
0.72427
0.724934
0.725885
0.727173
0.728568
0.730015
0.731423
0.732687
0.733809
0.734815
0.735516
0.735769
0.735592
0.735002
0.734116
0.7331
0.732041
0.731086
0.730489
0.73009
0.719594
0.720106
0.72088
0.721996
0.723254
0.724605
0.726019
0.727437
0.728779
0.729992
0.730852
0.73118
0.731026
0.730523
0.729822
0.729019
0.728184
0.727458
0.72701
0.7267
0.714989
0.715396
0.716044
0.717038
0.718224
0.719522
0.720926
0.72242
0.723946
0.725398
0.726462
0.726935
0.72693
0.726613
0.726109
0.725494
0.724841
0.724293
0.723953
0.723703
0.71038
0.71071
0.711271
0.712187
0.713325
0.714605
0.716032
0.717606
0.719295
0.721005
0.722336
0.723051
0.72328
0.723179
0.72287
0.722445
0.721958
0.721555
0.721297
0.721091
0.705687
0.705959
0.70646
0.707331
0.708451
0.709752
0.711241
0.71293
0.71481
0.716804
0.718482
0.719527
0.72004
0.720183
0.720081
0.719839
0.719513
0.719233
0.719041
0.718866
0.700836
0.701063
0.701524
0.702381
0.703524
0.704888
0.706484
0.708348
0.710489
0.712843
0.714947
0.716381
0.717218
0.717627
0.717748
0.717687
0.717515
0.717343
0.717205
0.717053
0.695752
0.695941
0.696383
0.697256
0.698463
0.699936
0.701696
0.703807
0.706295
0.709116
0.711738
0.713625
0.714828
0.715534
0.715896
0.716023
0.716003
0.71593
0.715837
0.715704
0.69035
0.690508
0.690945
0.691861
0.693173
0.694801
0.696781
0.699203
0.702124
0.70553
0.708783
0.711218
0.712864
0.713922
0.714564
0.714908
0.715041
0.715062
0.715009
0.714889
0.684534
0.684664
0.68511
0.686097
0.687553
0.689389
0.691655
0.69447
0.697929
0.702047
0.706082
0.709193
0.711378
0.712852
0.713818
0.714403
0.714707
0.714824
0.714809
0.7147
0.678197
0.678299
0.678767
0.679849
0.681494
0.683603
0.686248
0.689578
0.693716
0.698713
0.703702
0.707638
0.710464
0.712423
0.713745
0.714608
0.715115
0.715338
0.715361
0.715259
0.671188
0.671272
0.671761
0.672967
0.674856
0.677311
0.680437
0.684425
0.689446
0.695563
0.701706
0.706595
0.710169
0.71272
0.714498
0.715678
0.716402
0.716735
0.716797
0.716699
0.663263
0.66334
0.663892
0.665234
0.667415
0.670304
0.674026
0.678807
0.684871
0.692327
0.699898
0.706003
0.710517
0.713784
0.71613
0.717721
0.718711
0.719175
0.719277
0.719181
0.654175
0.654222
0.654846
0.656393
0.658964
0.662418
0.666911
0.672739
0.680166
0.689309
0.698598
0.706111
0.711705
0.715813
0.718832
0.720913
0.722227
0.722843
0.722986
0.722886
0.643553
0.643585
0.644301
0.646117
0.649171
0.653343
0.65882
0.665963
0.675084
0.686301
0.697669
0.706881
0.713794
0.718924
0.72273
0.725407
0.727115
0.727905
0.728086
0.727976
0.630794
0.630818
0.631662
0.633837
0.637541
0.642664
0.649437
0.658285
0.669542
0.6833
0.697182
0.708402
0.716849
0.723178
0.727933
0.731332
0.733497
0.734478
0.734691
0.734564
0.61506
0.615082
0.616135
0.618854
0.623492
0.629955
0.638504
0.649625
0.663636
0.680531
0.697355
0.71087
0.721063
0.728755
0.734583
0.738782
0.741443
0.742619
0.742857
0.742704
0.595169
0.5952
0.596598
0.600167
0.606189
0.614566
0.625569
0.639698
0.657177
0.677857
0.698135
0.714293
0.726459
0.735685
0.742705
0.747814
0.750996
0.752355
0.752606
0.752424
0.569316
0.569382
0.57139
0.576377
0.58461
0.595854
0.610373
0.628555
0.650427
0.675624
0.699826
0.718883
0.733205
0.744099
0.752412
0.758477
0.762169
0.763682
0.763931
0.763715
0.534499
0.534695
0.537948
0.545561
0.557555
0.573237
0.592789
0.616302
0.643564
0.673999
0.702551
0.724741
0.741356
0.754032
0.763739
0.770789
0.774941
0.776553
0.776771
0.77652
0.484989
0.486045
0.4926
0.505597
0.524133
0.546676
0.573171
0.603431
0.637057
0.673341
0.706541
0.73199
0.750968
0.765477
0.776639
0.78465
0.789187
0.790808
0.790962
0.790672
0.41206
0.419498
0.434655
0.457618
0.48585
0.517536
0.552512
0.590565
0.631293
0.674001
0.712293
0.741359
0.763031
0.77968
0.792568
0.801668
0.806664
0.808381
0.808536
0.808291
0.333831
0.350737
0.375263
0.408874
0.447263
0.488258
0.531824
0.577917
0.626239
0.676201
0.720703
0.754492
0.779769
0.799304
0.814544
0.825165
0.8307
0.832464
0.832665
0.832579
0.268204
0.288246
0.320662
0.36321
0.410509
0.460283
0.512178
0.566153
0.621916
0.678921
0.729348
0.767552
0.79618
0.818354
0.835519
0.847077
0.852927
0.855048
0.85529
0.855284
0.214456
0.236396
0.274195
0.32312
0.377427
0.434531
0.493777
0.554972
0.617718
0.681383
0.737381
0.779654
0.811267
0.835631
0.854211
0.866836
0.873659
0.875712
0.876012
0.876054
0.169716
0.192817
0.234213
0.288263
0.348221
0.411364
0.476881
0.544461
0.613549
0.683386
0.744534
0.790508
0.824715
0.850895
0.870748
0.88426
0.891669
0.893988
0.894433
0.8945
0.13147
0.15522
0.19951
0.257416
0.322139
0.390426
0.461378
0.534605
0.609423
0.684911
0.750799
0.800101
0.836556
0.864175
0.884879
0.899031
0.906886
0.909674
0.910255
0.910347
0.0977768
0.121944
0.168426
0.22966
0.298359
0.371118
0.44689
0.525192
0.605241
0.685958
0.756234
0.808551
0.846924
0.87567
0.897062
0.911686
0.919934
0.923074
0.92377
0.923861
0.0672273
0.0917568
0.14003
0.20407
0.276218
0.352904
0.43299
0.515923
0.600826
0.686457
0.760863
0.815951
0.855999
0.885699
0.907598
0.922599
0.9311
0.934453
0.935204
0.935279
0.0389418
0.06381
0.113572
0.18001
0.25521
0.335378
0.419351
0.506538
0.595987
0.686302
0.764679
0.822411
0.864011
0.894567
0.916878
0.932123
0.940757
0.944248
0.945027
0.945062
0.0121957
0.0374346
0.0886271
0.15707
0.234965
0.318233
0.405728
0.496837
0.590565
0.685386
0.767662
0.828014
0.87116
0.902569
0.925336
0.940759
0.949491
0.953039
0.953842
0.95384
-0.0133531
0.0122946
0.0646338
0.134947
0.215226
0.301263
0.391953
0.486682
0.584439
0.683621
0.769785
0.832821
0.877609
0.909932
0.933173
0.948809
0.957571
0.961049
0.961855
0.96185
-0.0380958
-0.011889
0.0413478
0.113426
0.195808
0.284323
0.377919
0.475982
0.577522
0.680925
0.771019
0.836891
0.883472
0.916836
0.94061
0.956445
0.965217
0.968649
0.969348
0.969291
-0.0621426
-0.0355366
0.0187747
0.0923777
0.176602
0.267341
0.363565
0.464687
0.569763
0.677247
0.771334
0.840249
0.888842
0.923396
0.947785
0.96383
0.972552
0.975859
0.976459
0.97633
-0.0856377
-0.0584831
-0.00321871
0.071712
0.157576
0.250294
0.348874
0.45278
0.561138
0.672539
0.770669
0.842876
0.893758
0.929704
0.954781
0.971005
0.979588
0.982686
0.98315
0.982967
-0.108685
-0.0809251
-0.0247488
0.0514038
0.138717
0.23319
0.333875
0.440287
0.551653
0.666766
0.768947
0.844699
0.898225
0.935831
0.961683
0.978019
0.986345
0.989133
0.989454
0.98923
-0.131302
-0.102861
-0.0458036
0.0314574
0.12006
0.216067
0.318616
0.427256
0.541336
0.659902
0.766091
0.84562
0.902198
0.941849
0.968623
0.984936
0.992786
0.995154
0.995317
0.995066
-0.153331
-0.124245
-0.0663338
0.0119059
0.10164
0.198993
0.303163
0.413763
0.530251
0.651974
0.762033
0.845517
0.905568
0.947795
0.975812
0.991964
0.998972
1.0007
1.00068
1.00042
-0.174744
-0.145048
-0.0863318
-0.00720068
0.0835175
0.182031
0.287608
0.39989
0.51848
0.643015
0.756729
0.844242
0.908152
0.953611
0.983514
0.999576
1.0052
1.0058
1.0055
1.00528
-0.195612
-0.165227
-0.105769
-0.02583
0.0657571
0.165268
0.272043
0.385744
0.506121
0.6331
0.750139
0.84165
0.9097
0.959053
0.991877
1.00858
1.01245
1.01091
1.00979
1.00979
-0.215756
-0.184769
-0.124583
-0.0439179
0.0484179
0.148788
0.256564
0.371438
0.493296
0.622335
0.742265
0.837598
0.909911
0.963624
1.00058
1.01973
1.0229
1.01843
1.01474
1.01389
-0.235268
-0.203667
-0.142789
-0.0614934
0.0314657
0.132544
0.241114
0.356912
0.479934
0.610647
0.732971
0.831821
0.908459
0.966647
1.00862
1.03276
1.03854
1.03358
1.02322
1.01254
-0.254072
-0.22191
-0.160514
-0.0787534
0.0146054
0.116196
0.225271
0.341672
0.46548
0.597379
0.72158
0.823479
0.904695
0.967106
1.01366
1.0442
1.05383
1.04419
1.02471
1.01562
-0.271988
-0.239499
-0.177584
-0.0954866
-0.00187358
0.100075
0.209259
0.32605
0.450255
0.582814
0.708232
0.812148
0.898033
0.963901
1.01085
1.04123
1.05465
1.03256
0.965287
0.935013
-0.288546
-0.257636
-0.193624
-0.111132
-0.0172181
0.0847004
0.193374
0.310301
0.434511
0.56711
0.692954
0.79755
0.887454
0.956672
0.996071
1.01888
1.0159
0.964651
0.89551
0.853385
-0.338865
-0.274567
-0.208348
-0.126532
-0.0326822
0.068814
0.177642
0.294205
0.417943
0.549873
0.675241
0.779336
0.869413
0.945247
0.957985
0.962534
0.922761
0.857453
0.781919
0.740045
-0.305925
-0.289138
-0.230213
-0.148364
-0.0556718
0.0455624
0.15349
0.269257
0.391801
0.521912
0.644832
0.746536
0.82744
0.906343
0.901159
0.795466
0.695834
0.62576
0.554344
0.58876
-0.337655
-0.307468
-0.247243
-0.166148
-0.0733998
0.0275173
0.135578
0.250655
0.372071
0.500259
0.620177
0.717927
0.790432
0.832338
0.788376
0.646557
0.524595
0.436663
0.340265
0.393329
-0.361773
-0.329157
-0.267171
-0.185882
-0.0931276
0.00764387
0.115559
0.229757
0.349714
0.475406
0.591447
0.683445
0.746273
0.754615
0.653189
0.486488
0.339863
0.224961
0.0976355
0.134921
-0.385422
-0.351403
-0.288103
-0.206027
-0.113147
-0.0125348
0.0948508
0.208035
0.326333
0.449177
0.560512
0.645951
0.693405
0.67063
0.516666
0.325668
0.142776
-0.0204814
-0.205738
-0.21225
-0.408573
-0.374085
-0.309871
-0.22711
-0.134042
-0.0336426
0.0730892
0.185143
0.301539
0.421194
0.527229
0.60547
0.634504
0.576712
0.386881
0.179118
-0.0308623
-0.209307
-0.458413
-0.728879
-0.432051
-0.397507
-0.332768
-0.249531
-0.156262
-0.056017
0.0501319
0.161037
0.275441
0.391713
0.492242
0.562054
0.572062
0.463979
0.27343
0.0631968
-0.140503
-0.304539
-0.380083
-0.495038
-0.456806
-0.422148
-0.357126
-0.273635
-0.180302
-0.0803005
0.0251728
0.134763
0.246866
0.35927
0.453887
0.513308
0.499014
0.35635
0.172051
-0.0215113
-0.188372
-0.279237
-0.302047
-0.318836
-0.48311
-0.448322
-0.383102
-0.299511
-0.206292
-0.106695
-0.0021349
0.10584
0.215227
0.323118
0.411389
0.45753
0.42461
0.255852
0.0800451
-0.0884902
-0.216067
-0.254202
-0.266875
-0.268071
-0.51117
-0.476181
-0.410746
-0.327143
-0.234171
-0.135194
-0.0317961
0.0742304
0.180464
0.283227
0.364438
0.396162
0.345019
0.162684
-0.00389237
-0.153297
-0.230927
-0.247514
-0.248643
-0.248475
-0.541031
-0.505748
-0.440068
-0.356516
-0.263936
-0.165768
-0.063797
0.039931
0.142592
0.239681
0.312832
0.332775
0.246919
0.0773732
-0.0815925
-0.202857
-0.238963
-0.238484
-0.238518
-0.237956
-0.572395
-0.536917
-0.470952
-0.387525
-0.295478
-0.19834
-0.0980808
0.00298785
0.101648
0.192588
0.257224
0.261154
0.15481
-0.00264108
-0.143665
-0.219952
-0.229982
-0.232113
-0.232266
-0.232035
-0.604682
-0.569094
-0.503143
-0.419926
-0.328585
-0.232718
-0.134461
-0.036437
0.0578224
0.142229
0.198243
0.186472
0.0709713
-0.0719686
-0.188814
-0.223842
-0.230784
-0.229399
-0.22845
-0.227976
-0.637425
-0.601719
-0.536154
-0.453297
-0.362876
-0.268541
-0.172611
-0.0780095
0.0114162
0.0892219
0.135021
0.112058
-0.00815832
-0.130651
-0.221347
-0.238843
-0.230978
-0.230203
-0.229163
-0.228159
-0.669767
-0.634208
-0.569057
-0.486994
-0.397765
-0.305282
-0.212012
-0.121181
-0.037064
0.0341798
0.0698299
0.0390706
-0.0839182
-0.175141
-0.232613
-0.239318
-0.238012
-0.234801
-0.233392
-0.232761
-0.700102
-0.665404
-0.600941
-0.520051
-0.43243
-0.342165
-0.251911
-0.165149
-0.0867448
-0.0223234
0.00807079
-0.0444951
-0.158358
-0.218531
-0.225505
-0.252559
-0.246865
-0.238687
-0.237646
-0.237601
-0.726886
-0.693143
-0.630745
-0.551291
-0.465777
-0.378149
-0.291313
-0.208864
-0.136302
-0.0793773
-0.0513047
-0.134056
-0.252169
-0.268707
-0.254795
-0.276147
-0.28652
-0.288097
-0.285748
-0.283625
-0.748063
-0.716076
-0.656145
-0.579311
-0.496446
-0.411968
-0.328937
-0.251016
-0.184152
-0.135526
-0.111989
-0.217987
-0.382663
-0.455046
-0.397086
-0.413679
-0.430762
-0.43284
-0.420465
-0.411422
-0.761523
-0.732167
-0.675574
-0.602154
-0.522829
-0.442128
-0.363286
-0.290032
-0.228499
-0.188298
-0.170986
-0.287443
-0.514414
-0.843084
-0.828178
-0.650263
-0.578864
-0.555523
-0.535946
-0.529079
-0.764678
-0.739221
-0.687097
-0.618058
-0.543159
-0.466991
-0.392643
-0.324092
-0.267301
-0.233474
-0.217917
-0.321914
-0.476726
-0.771077
-0.857059
-0.583824
-0.474655
-0.464472
-0.474181
-0.476765
-0.755808
-0.734998
-0.688667
-0.625444
-0.55592
-0.484887
-0.415259
-0.351135
-0.298212
-0.266858
-0.244859
-0.278178
-0.153222
0.0530734
0.00623666
-0.286868
-0.45354
-0.458044
-0.455455
-0.454047
-0.732589
-0.716553
-0.678631
-0.623147
-0.560057
-0.494619
-0.429628
-0.369046
-0.319071
-0.288989
-0.277969
-0.248008
-0.0654365
0.375825
0.273597
-0.142956
-0.404335
-0.420012
-0.432358
-0.444774
-0.697109
-0.686424
-0.657487
-0.611337
-0.555504
-0.495775
-0.434916
-0.376464
-0.327196
-0.297031
-0.300057
-0.389264
-0.680353
-1.19348
-1.68167
-1.94541
-1.74704
-1.39165
-1.08378
-1.02648
-0.654995
-0.648823
-0.629463
-0.59247
-0.544008
-0.489072
-0.431056
-0.372867
-0.319569
-0.284849
-0.288604
-0.531368
-1.1835
-2.02729
-2.46023
-2.65361
-2.54814
-2.29459
-2.00989
-1.82209
-0.614368
-0.610848
-0.600054
-0.571624
-0.528636
-0.476734
-0.419218
-0.358187
-0.297025
-0.241751
-0.21738
-0.311607
-0.615492
-0.914533
-1.09285
-0.992323
-0.729803
-0.454649
-0.229648
-0.112572
-0.582067
-0.579913
-0.574453
-0.553599
-0.514461
-0.462604
-0.402549
-0.334423
-0.259711
-0.172115
-0.0761274
0.0597291
0.263227
0.660116
1.16093
1.65029
2.04432
2.28358
2.38782
2.41817
-0.555298
-0.554443
-0.553059
-0.540384
-0.504777
-0.450989
-0.385672
-0.309209
-0.220796
-0.113987
0.0187045
0.169263
0.494041
1.00312
1.61336
2.14671
2.53558
2.76534
2.87508
2.90644
-0.537581
-0.537164
-0.537113
-0.530351
-0.498995
-0.442724
-0.37133
-0.288447
-0.191021
-0.07889
0.0475453
0.17666
0.393287
0.879446
1.42165
1.90725
2.26938
2.47665
2.56696
2.59094
-0.523537
-0.522959
-0.52285
-0.521019
-0.495073
-0.437143
-0.360315
-0.272923
-0.175135
-0.0651147
0.0465377
0.165056
0.30223
0.678308
1.1239
1.49118
1.76297
1.91664
1.98385
2.00198
-0.515774
-0.51413
-0.51357
-0.514275
-0.492652
-0.431778
-0.34973
-0.259325
-0.163691
-0.0590907
0.042789
0.142924
0.244282
0.484963
0.805368
1.07005
1.26268
1.37012
1.41704
1.42819
-0.518401
-0.518227
-0.521484
-0.522609
-0.494738
-0.422531
-0.333802
-0.242105
-0.149728
-0.0527612
0.0342304
0.110642
0.177566
0.343089
0.55789
0.734419
0.864586
0.937226
0.968588
0.975507
-0.508962
-0.514308
-0.521775
-0.518297
-0.478649
-0.396729
-0.305257
-0.217224
-0.133542
-0.0502576
0.020626
0.0775633
0.125085
0.2375
0.385742
0.50077
0.582672
0.627954
0.646614
0.649882
-0.430826
-0.438293
-0.446486
-0.440945
-0.402545
-0.331838
-0.255378
-0.18162
-0.112448
-0.0440991
0.0145956
0.0569523
0.0945659
0.164705
0.262509
0.339332
0.391424
0.418718
0.429367
0.430241
-0.276314
-0.281725
-0.287969
-0.285879
-0.263926
-0.225301
-0.180511
-0.132522
-0.083327
-0.032189
0.0114398
0.0414249
0.0686644
0.117041
0.178241
0.227886
0.261471
0.279648
0.286697
0.286815
-0.106971
-0.109679
-0.114748
-0.119924
-0.120011
-0.113956
-0.0997728
-0.078787
-0.0511517
-0.0177011
0.0128959
0.0366714
0.0568728
0.0887942
0.128186
0.160298
0.18093
0.191897
0.195831
0.195161
0.0151032
0.0137385
0.00897742
-0.00174704
-0.0165387
-0.0287959
-0.0343999
-0.0319431
-0.0207068
-0.00146304
0.019764
0.0385519
0.0548304
0.0766272
0.100424
0.119189
0.131811
0.138366
0.14038
0.139365
0.0777853
0.0768862
0.0724778
0.0610693
0.0432122
0.0247942
0.0105835
0.00325655
0.00399948
0.01292
0.0265732
0.0411695
0.0550209
0.0684152
0.0821457
0.0936505
0.101403
0.105364
0.106285
0.105109
0.0996451
0.0989622
0.0954714
0.0860679
0.0706251
0.0533746
0.038009
0.026946
0.0219928
0.0239754
0.0314124
0.0420821
0.0532101
0.0607699
0.0677888
0.074937
0.0804084
0.0834172
0.0839963
0.082776
0.100567
0.100047
0.0975577
0.0908603
0.0794584
0.065743
0.0522986
0.0411973
0.0338503
0.0314086
0.0334993
0.0388444
0.0452187
0.0474665
0.0516025
0.0579272
0.0633988
0.0665913
0.0672998
0.0660645
0.0930555
0.0926688
0.0910053
0.0866141
0.0788783
0.0689926
0.0584698
0.0487623
0.0409414
0.0356352
0.0325388
0.0306806
0.0286829
0.0286311
0.0351069
0.0427118
0.0484104
0.0513065
0.0519135
0.0508182
0.0834172
0.0831222
0.082044
0.0793284
0.0743973
0.0676993
0.0600266
0.052276
0.0449844
0.0381338
0.0307271
0.0216606
0.0129983
0.0122865
0.02091
0.0296327
0.0354388
0.0380012
0.0385036
0.0376793
0.0744505
0.0742191
0.0735291
0.071927
0.0689721
0.0647053
0.0594455
0.0536817
0.0475593
0.0406229
0.0309672
0.0170098
0.00377817
0.00517263
0.015855
0.0245046
0.0291987
0.030944
0.0311907
0.030587
0.0670993
0.0669199
0.0664771
0.0655582
0.0638744
0.0613185
0.0580052
0.0541732
0.0499225
0.0445189
0.035774
0.0220117
0.00915418
0.0129994
0.0233434
0.0304756
0.033492
0.0340374
0.0340359
0.0335816
0.0612799
0.0611568
0.0608885
0.0603738
0.0595116
0.0581249
0.0563296
0.0543456
0.0523657
0.0498191
0.045449
0.0374811
0.0310418
0.036714
0.0439943
0.0475873
0.0486963
0.0487476
0.0486367
0.0482244
0.0563344
0.0562603
0.0561147
0.0558273
0.0554499
0.0550037
0.0543737
0.0540693
0.0544946
0.0561215
0.058755
0.0606095
0.0628671
0.0688427
0.0716421
0.0720731
0.0721839
0.0723438
0.0722036
0.071637
0.0515422
0.0515144
0.0514877
0.0513849
0.051295
0.051406
0.0517514
0.0528514
0.055593
0.0615454
0.0719994
0.0848678
0.0958591
0.100363
0.0991661
0.0974149
0.0971854
0.0976695
0.0973047
0.096571
0.0462737
0.0462715
0.0463267
0.0463256
0.0464221
0.046783
0.0481262
0.0503116
0.0547122
0.0641375
0.0810069
0.104355
0.12434
0.126625
0.120631
0.11692
0.11698
0.117719
0.117005
0.116173
0.0400977
0.0401206
0.0402635
0.0404431
0.0408008
0.0412563
0.042611
0.0456338
0.0512517
0.0622299
0.0824437
0.111383
0.13619
0.137483
0.128718
0.125764
0.126149
0.12738
0.126391
0.125435
0.0324881
0.0325214
0.0327405
0.0331233
0.0335314
0.0343807
0.0356863
0.0384256
0.0438427
0.0543854
0.073656
0.10155
0.125947
0.12408
0.117784
0.117358
0.120732
0.121877
0.120531
0.119398
0.0234125
0.0234407
0.0236742
0.0240835
0.0247576
0.0256558
0.0269027
0.0290306
0.0332861
0.0415391
0.0558061
0.0745939
0.0891465
0.0876927
0.0872712
0.0912359
0.0957365
0.0973181
0.0960679
0.0948513
0.0133222
0.013276
0.013416
0.0138331
0.0142547
0.0146998
0.015604
0.0172507
0.0199678
0.0246146
0.0317695
0.0391836
0.0386376
0.0405203
0.0453001
0.0512653
0.0542345
0.054726
0.0542414
0.0532299
0.00294474
0.00282861
0.00264775
0.00239612
0.00217784
0.00227331
0.00257318
0.00293057
0.00354971
0.00452381
0.00664195
0.00852721
0.00695642
0.00747786
0.00928693
0.00853181
0.0044227
0.00157647
0.00431668
0.0057788
-0.0128509
0.179017
0.384883
0.556988
0.69498
0.804509
0.895938
0.972466
1.00351
0.987324
0.320946
0.447174
0.579077
0.69315
0.789496
0.869554
0.933984
0.979066
1.0025
1.01524
0.545897
0.631351
0.720905
0.800746
0.869368
0.926693
0.972058
1.00543
1.02984
1.04763
0.708745
0.769187
0.832296
0.890462
0.940875
0.983569
1.01861
1.04687
1.06974
1.08795
0.836096
0.879512
0.927304
0.971273
1.01046
1.04464
1.07392
1.09854
1.11856
1.13647
0.941173
0.974715
1.01373
1.04961
1.08248
1.11202
1.13789
1.1598
1.17698
1.19456
1.03451
1.06368
1.09806
1.13054
1.1607
1.18809
1.2121
1.23208
1.24678
1.26423
1.12357
1.15317
1.18734
1.21967
1.24943
1.27616
1.29919
1.31772
1.33043
1.34789
1.21919
1.25288
1.28941
1.32322
1.35335
1.37958
1.40155
1.41868
1.43016
1.44797
1.33425
1.37288
1.41116
1.44543
1.47473
1.49944
1.51976
1.53549
1.54684
1.56519
1.47905
1.51857
1.55417
1.5846
1.61019
1.63227
1.65129
1.66683
1.67949
1.69762
1.65385
1.68591
1.71172
1.73408
1.75414
1.7729
1.79053
1.80709
1.82284
1.84104
1.84149
1.85905
1.87459
1.89119
1.90735
1.92191
1.93494
1.94891
1.966
1.98568
2.02309
2.03407
2.04622
2.05701
2.06627
2.07583
2.08672
2.09831
2.10826
2.12344
2.23413
2.23615
2.22099
2.20576
2.19938
2.20505
2.22366
2.25407
2.28621
2.31696
2.54003
2.40298
2.32669
2.28461
2.26718
2.27121
2.29856
2.35471
2.45816
2.67345
0.831328
0.827951
0.822021
0.812209
0.79926
0.786828
0.776504
0.768537
0.762852
0.75953
0.759108
0.761796
0.766875
0.774095
0.783512
0.795186
0.808306
0.82029
0.827743
0.83246
0.749349
0.755233
0.762136
0.76737
0.770208
0.769869
0.76695
0.763006
0.759408
0.757074
0.756857
0.758998
0.76264
0.766962
0.770884
0.772867
0.771741
0.767639
0.761738
0.754691
0.741715
0.744062
0.747406
0.750306
0.752513
0.754301
0.755241
0.754959
0.753891
0.752941
0.753039
0.754399
0.756162
0.757398
0.757411
0.756215
0.754389
0.752032
0.748867
0.745899
0.736598
0.737684
0.739545
0.741918
0.743867
0.745242
0.746315
0.747141
0.747565
0.74775
0.748162
0.748868
0.749348
0.749263
0.7487
0.747795
0.746367
0.74429
0.742165
0.740747
0.731537
0.732192
0.733296
0.735007
0.736799
0.738397
0.739636
0.740625
0.741493
0.742242
0.742881
0.743307
0.743372
0.743104
0.742492
0.74142
0.739949
0.73835
0.737009
0.736222
0.726658
0.727113
0.727892
0.729178
0.730658
0.73217
0.733606
0.734849
0.73592
0.736896
0.737697
0.738131
0.738164
0.737808
0.737044
0.735983
0.734796
0.733623
0.732689
0.732165
0.721922
0.722262
0.722868
0.723925
0.7252
0.726556
0.727971
0.729372
0.730669
0.73184
0.732808
0.733349
0.733396
0.733005
0.732302
0.731438
0.730522
0.72961
0.728911
0.728526
0.717291
0.717556
0.718044
0.718943
0.720095
0.721366
0.722727
0.724168
0.72563
0.727027
0.728203
0.728885
0.729013
0.728738
0.728217
0.727553
0.726823
0.72612
0.725596
0.725301
0.712694
0.712904
0.71331
0.714101
0.715174
0.716396
0.71774
0.719215
0.720794
0.722408
0.723837
0.724729
0.725048
0.724977
0.724655
0.724181
0.723629
0.723098
0.722706
0.722474
0.708054
0.708222
0.708569
0.709288
0.710316
0.711514
0.712878
0.714419
0.716126
0.717958
0.719681
0.720879
0.721477
0.721652
0.721543
0.72126
0.720887
0.720507
0.720222
0.720038
0.703291
0.703426
0.703731
0.704407
0.705419
0.70664
0.708065
0.709716
0.711606
0.713706
0.715791
0.717371
0.718299
0.718754
0.718879
0.718791
0.718587
0.718346
0.71815
0.718003
0.698332
0.698439
0.698715
0.699374
0.700407
0.701696
0.703227
0.705048
0.707191
0.709639
0.712175
0.714218
0.715529
0.716291
0.716672
0.716793
0.716756
0.716645
0.716525
0.716407
0.693098
0.693181
0.69344
0.694105
0.695196
0.696593
0.698282
0.700337
0.702816
0.705727
0.70883
0.711414
0.713165
0.714283
0.714952
0.715305
0.715441
0.715455
0.715403
0.71531
0.687503
0.687563
0.687813
0.688506
0.689686
0.691233
0.693132
0.695481
0.698366
0.701833
0.705628
0.708891
0.711197
0.712754
0.713761
0.71438
0.714706
0.714852
0.714864
0.714792
0.68144
0.681478
0.681724
0.682462
0.683767
0.685517
0.6877
0.690436
0.693843
0.698007
0.702652
0.706741
0.709711
0.711786
0.713174
0.714084
0.71465
0.714935
0.715013
0.714961
0.674792
0.674802
0.675047
0.675853
0.677322
0.679337
0.681879
0.685118
0.689204
0.694249
0.699944
0.705032
0.708785
0.711463
0.713316
0.714564
0.715393
0.715833
0.715978
0.715944
0.667349
0.667349
0.667615
0.668501
0.670177
0.672497
0.675502
0.679363
0.684287
0.690434
0.697421
0.703702
0.708407
0.711828
0.71425
0.715937
0.717073
0.717687
0.717905
0.717886
0.658868
0.658834
0.659133
0.660143
0.662071
0.664804
0.668386
0.67303
0.67899
0.686462
0.695026
0.70281
0.708673
0.712977
0.716094
0.718331
0.719839
0.720668
0.720968
0.720964
0.649059
0.649001
0.649342
0.650518
0.652772
0.656034
0.660364
0.666032
0.673354
0.682551
0.69305
0.702559
0.709767
0.715115
0.719042
0.721915
0.723873
0.724959
0.725347
0.725353
0.637428
0.637346
0.637757
0.639152
0.641822
0.645759
0.651046
0.658007
0.667004
0.678281
0.691138
0.702789
0.711637
0.718249
0.723166
0.726806
0.72932
0.730703
0.731186
0.731195
0.623257
0.623152
0.623684
0.625398
0.62865
0.633526
0.640127
0.648832
0.660045
0.673978
0.689683
0.703796
0.7145
0.722553
0.728612
0.733137
0.73628
0.73799
0.738566
0.738571
0.605554
0.605428
0.606164
0.608371
0.612486
0.618706
0.627134
0.638185
0.652254
0.66947
0.688578
0.705575
0.718421
0.728111
0.735476
0.740977
0.744818
0.746868
0.747528
0.74752
0.582856
0.582723
0.583801
0.586793
0.592255
0.600493
0.611554
0.625835
0.643631
0.664903
0.688018
0.70828
0.723515
0.735009
0.743789
0.7504
0.75497
0.757348
0.758075
0.758047
0.552829
0.552729
0.554431
0.558816
0.566572
0.578017
0.592985
0.611739
0.63434
0.660527
0.688239
0.712108
0.729921
0.743367
0.753664
0.761453
0.766751
0.769414
0.770178
0.770122
0.511383
0.511459
0.514548
0.521827
0.533827
0.55053
0.571302
0.596085
0.624682
0.656614
0.68944
0.717183
0.737712
0.753196
0.765121
0.774143
0.780107
0.782959
0.783707
0.783615
0.450865
0.452086
0.459648
0.473408
0.493157
0.5182
0.547122
0.579581
0.615276
0.653636
0.691915
0.723651
0.746942
0.764488
0.778003
0.788199
0.794769
0.797666
0.79829
0.798158
0.378358
0.380539
0.395073
0.418853
0.449401
0.484222
0.522044
0.562737
0.606111
0.651669
0.696423
0.733286
0.760371
0.780885
0.796671
0.80847
0.815877
0.81901
0.819743
0.819735
0.303761
0.310333
0.331894
0.365788
0.406598
0.450978
0.497695
0.546683
0.597839
0.650741
0.702202
0.744436
0.775481
0.799136
0.81756
0.831192
0.83938
0.842287
0.84288
0.842979
0.243149
0.251727
0.277887
0.318824
0.367549
0.420019
0.474732
0.531477
0.590057
0.650017
0.707869
0.755126
0.789834
0.816273
0.836713
0.851616
0.860194
0.863593
0.864716
0.864891
0.193615
0.202791
0.232442
0.278518
0.333291
0.392254
0.453688
0.517248
0.582581
0.649098
0.712936
0.764843
0.802829
0.831649
0.853789
0.869817
0.879319
0.883428
0.884774
0.884975
0.151977
0.16139
0.193434
0.243379
0.303117
0.367485
0.434603
0.504088
0.575448
0.647956
0.717306
0.773468
0.814368
0.845182
0.868653
0.885573
0.895927
0.90054
0.902073
0.902286
0.115823
0.125321
0.159105
0.212239
0.276057
0.345014
0.417091
0.491812
0.568591
0.646565
0.721007
0.781055
0.824534
0.856989
0.88143
0.899002
0.909991
0.915043
0.916741
0.916989
0.0835676
0.0930867
0.128204
0.184029
0.251264
0.324181
0.400641
0.480069
0.561801
0.644846
0.724043
0.787693
0.833449
0.867274
0.892494
0.910638
0.922035
0.927464
0.929239
0.929493
0.0540291
0.0635838
0.0997771
0.157894
0.228064
0.30447
0.384824
0.468527
0.554838
0.642653
0.726373
0.793426
0.841277
0.876306
0.902174
0.920668
0.932318
0.938006
0.939826
0.94009
0.0264215
0.036019
0.0732112
0.133235
0.205996
0.285487
0.369328
0.456929
0.547497
0.639839
0.727931
0.798297
0.848177
0.884351
0.910844
0.929653
0.941429
0.947225
0.949068
0.949336
0.000226722
0.00989902
0.047987
0.109649
0.184724
0.266943
0.353926
0.445091
0.539625
0.636281
0.72865
0.802329
0.854274
0.891638
0.918773
0.937918
0.949848
0.955656
0.95749
0.957635
-0.0250051
-0.0151655
0.0237262
0.0868572
0.164004
0.248647
0.338463
0.432887
0.531117
0.631882
0.728464
0.805539
0.859672
0.898341
0.926189
0.945669
0.957719
0.963484
0.965254
0.965404
-0.0495039
-0.0394351
0.000153355
0.0647303
0.143683
0.230467
0.322846
0.420247
0.5219
0.626576
0.727327
0.807929
0.864447
0.904586
0.933252
0.95311
0.965259
0.970964
0.972622
0.972734
-0.0733631
-0.0630792
-0.0227167
0.0431385
0.123663
0.212362
0.307033
0.407134
0.511943
0.620311
0.725182
0.80948
0.868636
0.910459
0.940069
0.960337
0.97253
0.978086
0.9796
0.979645
-0.0967211
-0.0861383
-0.0450501
0.0219926
0.103916
0.194311
0.291023
0.393555
0.501247
0.613073
0.72197
0.810125
0.872224
0.916019
0.946727
0.967408
0.979568
0.984895
0.986197
0.986161
-0.119569
-0.108694
-0.0668749
0.00125822
0.0844443
0.176336
0.274857
0.379552
0.489841
0.604854
0.717636
0.809768
0.875151
0.921294
0.953323
0.974411
0.986368
0.991305
0.99236
0.992258
-0.141956
-0.130747
-0.0881455
-0.0190328
0.0652728
0.158474
0.258585
0.365192
0.477784
0.59568
0.712143
0.808315
0.87731
0.926272
0.959986
0.981505
0.993005
0.997315
0.998053
0.997886
-0.163685
-0.152222
-0.108855
-0.038841
0.0464549
0.140801
0.242278
0.350548
0.465153
0.585613
0.705474
0.805667
0.87855
0.930858
0.966846
0.989013
0.999729
1.00296
1.00322
1.00299
-0.184894
-0.173071
-0.128983
-0.0581456
0.0280255
0.123363
0.226032
0.335709
0.452042
0.574744
0.69765
0.801723
0.878676
0.934839
0.973918
0.997417
1.00721
1.0086
1.00787
1.00755
-0.205423
-0.193268
-0.148498
-0.0768954
0.0100641
0.106246
0.209933
0.320798
0.438566
0.56315
0.688718
0.796397
0.877482
0.937874
0.980928
1.0071
1.01677
1.01571
1.01265
1.01143
-0.22532
-0.212852
-0.167344
-0.0950352
-0.0073901
0.0895211
0.194065
0.305898
0.424842
0.550973
0.678766
0.789617
0.874771
0.939511
0.987137
1.0177
1.02967
1.02772
1.02073
1.01092
-0.244505
-0.23179
-0.185604
-0.112725
-0.0245545
0.0729004
0.178085
0.290594
0.410403
0.537687
0.667236
0.780759
0.869977
0.939201
0.99148
1.02784
1.04556
1.04585
1.03569
1.02951
-0.262925
-0.250068
-0.203278
-0.129915
-0.0414127
0.0563971
0.16202
0.274873
0.395217
0.523186
0.653966
0.76946
0.862431
0.936169
0.991629
1.03211
1.05293
1.05817
1.02117
0.972911
-0.280278
-0.267018
-0.220315
-0.146508
-0.0580146
0.039912
0.145845
0.258859
0.379353
0.507535
0.638906
0.755545
0.851129
0.929955
0.985595