/*--------------------------------*- C++ -*----------------------------------*\
| =========                 |                                                 |
| \\      /  F ield         | OpenFOAM: The Open Source CFD Toolbox           |
|  \\    /   O peration     | Version:  2306                                  |
|   \\  /    A nd           | Website:  www.openfoam.com                      |
|    \\/     M anipulation  |                                                 |
\*---------------------------------------------------------------------------*/
FoamFile
{
    version     2.0;
    format      ascii;
    arch        "LSB;label=32;scalar=64";
    class       surfaceScalarField;
    location    "39";
    object      phi;
}
// * * * * * * * * * * * * * * * * * * * * * * * * * * * * * * * * * * * * * //

dimensions      [0 3 -1 0 0 0 0];

oriented        oriented;

internalField   nonuniform List<scalar> 
17370
(
-0.0910992
0.0935444
0.286566
-0.074953
0.0569524
0.364776
-0.0409351
0.0299507
0.427153
-0.0211946
0.0155926
0.504854
-0.0113401
0.00863815
0.602104
-0.00650419
0.00505318
0.720509
-0.00384069
0.00297782
0.863769
-0.00221933
0.00164996
1.03602
-0.00112408
0.000706127
1.24292
-0.000297117
-9.51869e-05
1.49158
0.000479419
-0.00088548
1.4916
0.00128621
-0.00178978
1.24319
0.00234076
-0.00308401
1.03638
0.00393868
-0.00514616
0.864114
0.00659268
-0.00871957
0.721184
0.0114131
-0.0156553
0.603457
0.0212479
-0.0299941
0.508185
0.0409696
-0.0569782
0.432177
0.074973
-0.093556
0.365359
0.0911112
0.1979
-0.127344
0.0881395
0.0392045
-0.364734
0.353784
-0.0726348
0.0835848
-0.446564
0.454365
-0.0817199
0.0739193
-0.520969
0.529523
-0.0658103
0.0572563
-0.612846
0.621014
-0.0495038
0.0413355
-0.726998
0.733785
-0.0344065
0.0276189
-0.867514
0.872438
-0.0222824
0.0173581
-1.03855
1.04189
-0.0136519
0.0103112
-1.24471
1.24712
-0.00776285
0.00535621
-1.49283
1.49485
-0.00339305
0.0013814
-1.49269
1.4945
0.000435844
-0.00225174
-1.2441
1.24602
0.00422507
-0.00613835
-1.0376
1.04009
0.00848266
-0.0109732
-0.86616
0.869821
0.0142549
-0.017916
-0.724481
0.729782
0.0227984
-0.0280991
-0.608891
0.61578
0.0348455
-0.0417342
-0.514993
0.522704
0.0498571
-0.0575683
-0.439772
0.447838
0.0660744
-0.0741395
-0.375161
0.377001
0.0818898
-0.0837299
-0.256923
0.223431
0.0727353
-0.0392434
-0.0686433
0.0589114
0.00973191
-0.0520901
0.0587928
-0.374534
0.367831
-0.0579099
0.0540856
-0.453823
0.457647
-0.0487278
0.0443884
-0.527735
0.532074
-0.0401636
0.0363808
-0.621094
0.624876
-0.0321597
0.0280965
-0.734869
0.738933
-0.0236392
0.0196624
-0.874041
0.878017
-0.0155414
0.0120361
-1.04339
1.04689
-0.00847853
0.0054219
-1.24865
1.25171
-0.00219459
-0.000802071
-1.49694
1.49994
0.00377848
-0.00694966
-1.49743
1.5006
0.00992724
-0.0133813
-1.2501
1.25356
0.0167867
-0.0207997
-1.04573
1.04975
0.0246871
-0.029058
-0.877328
0.881699
0.0330477
-0.0371888
-0.739325
0.743466
0.0408982
-0.0450455
-0.626358
0.630505
0.0493206
-0.0546168
-0.534949
0.540245
0.0583776
-0.0591806
-0.457932
0.458735
0.0523823
-0.0320217
-0.336415
0.316055
0.00978132
-0.0685162
0.0587349
-0.0531491
0.0490969
0.00405223
-0.0331877
0.0436894
-0.358351
0.347849
-0.0474127
0.0468293
-0.459496
0.46008
-0.0438543
0.0405847
-0.536008
0.539277
-0.0368737
0.0335394
-0.628426
0.63176
-0.0299802
0.0268411
-0.742241
0.74538
-0.0235094
0.0203587
-0.881557
0.884707
-0.0167771
0.0134101
-1.05037
1.05374
-0.00968856
0.00626232
-1.255
1.25843
-0.00244867
-0.00119145
-1.50331
1.50695
0.00480477
-0.00853971
-1.50413
1.50787
0.0118579
-0.0154337
-1.25718
1.26075
0.0186549
-0.022075
-1.05352
1.05694
0.0250902
-0.0282914
-0.88531
0.888511
0.0313225
-0.0347686
-0.746963
0.750409
0.0380002
-0.0416004
-0.634531
0.638131
0.0447747
-0.0476453
-0.544483
0.547353
0.0481224
-0.0442519
-0.456915
0.453044
0.0335763
-0.0162393
-0.296704
0.279367
0.00411113
-0.0529211
0.04881
-0.0459712
0.0434428
0.00252842
-0.0229503
0.0333295
-0.337196
0.326816
-0.0391215
0.0401133
-0.45978
0.458788
-0.0389012
0.036604
-0.541938
0.544235
-0.0339648
0.0314058
-0.634742
0.637301
-0.0284086
0.0255661
-0.748439
0.751282
-0.0223558
0.0193826
-0.887708
0.890681
-0.0160866
0.0129952
-1.0569
1.05999
-0.0094697
0.00608174
-1.26184
1.26522
-0.00217205
-0.00163431
-1.51071
1.51451
0.00540628
-0.00921002
-1.51168
1.51548
0.0124537
-0.015785
-1.26423
1.26756
0.0186824
-0.0217629
-1.06011
1.06319
0.024552
-0.0275816
-0.891658
0.894687
0.030275
-0.0331185
-0.753602
0.756446
0.0355396
-0.0380326
-0.641148
0.643641
0.0402054
-0.0412578
-0.549184
0.550237
0.0401034
-0.0340773
-0.447869
0.441843
0.0234453
-0.0102598
-0.264214
0.251028
0.00260043
-0.045621
0.0430205
-0.0413407
0.0395505
0.00179018
-0.0168878
0.0261803
-0.316933
0.30764
-0.0328067
0.0349536
-0.45719
0.455043
-0.034539
0.0328619
-0.546224
0.547901
-0.030664
0.0285649
-0.639583
0.641682
-0.0261551
0.0237972
-0.753888
0.756246
-0.0209993
0.0182698
-0.89353
0.896259
-0.015106
0.0120972
-1.063
1.06601
-0.00866522
0.00538226
-1.26852
1.27181
-0.00157481
-0.00215066
-1.51828
1.52201
0.00583069
-0.00950446
-1.51923
1.52291
0.0126049
-0.0157915
-1.27083
1.27402
0.0185521
-0.0214353
-1.06622
1.0691
0.0239198
-0.0264756
-0.897491
0.900046
0.0286374
-0.0308502
-0.758904
0.761116
0.032776
-0.0347893
-0.645853
0.647866
0.0362899
-0.0364895
-0.550816
0.551016
0.0340958
-0.0271309
-0.43526
0.428295
0.0175014
-0.00739247
-0.239528
0.229419
0.00187769
-0.040841
0.0389633
-0.0380076
0.0366599
0.00134763
-0.0129145
0.0209148
-0.298997
0.290996
-0.0277055
0.0306529
-0.45246
0.449513
-0.0308808
0.0297771
-0.549312
0.550416
-0.0277976
0.0258957
-0.643704
0.645606
-0.0237198
0.0216176
-0.758462
0.760564
-0.0191539
0.0167189
-0.898795
0.901229
-0.0138282
0.0109998
-1.06889
1.07172
-0.00770233
0.00452031
-1.27501
1.27819
-0.000828041
-0.00276542
-1.52565
1.52924
0.00630163
-0.009825
-1.52651
1.53003
0.0127775
-0.0157655
-1.27715
1.28014
0.0182809
-0.0208176
-1.07184
1.07438
0.022942
-0.0250964
-0.902362
0.904516
0.0269468
-0.0288712
-0.763144
0.765069
0.0305562
-0.032318
-0.649738
0.6515
0.0331696
-0.0326442
-0.550863
0.550338
0.0293475
-0.0220971
-0.421134
0.413883
0.0136667
-0.00569658
-0.220484
0.212514
0.00145381
-0.0373261
0.0358723
-0.035482
0.0344421
0.00103991
-0.0101027
0.0168754
-0.283634
0.276861
-0.0234113
0.0268216
-0.446311
0.4429
-0.0276338
0.0269628
-0.551288
0.551959
-0.0252245
0.0234671
-0.647468
0.649225
-0.0214399
0.0194735
-0.762608
0.764574
-0.017163
0.0148932
-0.903522
0.905791
-0.0122209
0.00959677
-1.07438
1.077
-0.00650476
0.00348047
-1.28126
1.28429
6.11161e-05
-0.00350524
-1.53274
1.53619
0.00688149
-0.0102089
-1.53347
1.5368
0.0129464
-0.0156552
-1.28302
1.28573
0.0178957
-0.0201336
-1.07677
1.07901
0.0220162
-0.023932
-0.906539
0.908455
0.0255749
-0.0272847
-0.76686
0.768569
0.0287756
-0.0302197
-0.653124
0.654568
0.0305758
-0.0293528
-0.54948
0.548257
0.0254652
-0.0183293
-0.40667
0.399534
0.0110198
-0.00456069
-0.205372
0.198913
0.00116858
-0.0345798
0.0334112
-0.0335285
0.0327168
0.000811673
-0.00801416
0.0137113
-0.270655
0.264958
-0.0197679
0.0233859
-0.439375
0.435757
-0.0246895
0.0242775
-0.552529
0.552941
-0.0228225
0.0211873
-0.650967
0.652602
-0.0192703
0.0174045
-0.766497
0.768363
-0.015204
0.0130369
-0.907947
0.910114
-0.0104833
0.00798642
-1.07948
1.08198
-0.00506182
0.002206
-1.28718
1.29003
0.00113782
-0.00439667
-1.53952
1.54278
0.00756988
-0.0106565
-1.54001
1.5431
0.0131626
-0.0156191
-1.28834
1.29079
0.0176451
-0.0196626
-1.08115
1.08317
0.0213494
-0.0230567
-0.910266
0.911974
0.0245162
-0.0260371
-0.770164
0.771685
0.0273411
-0.0284201
-0.655811
0.65689
0.0284197
-0.026556
-0.546725
0.544862
0.02231
-0.0154913
-0.392556
0.385737
0.0091317
-0.00376253
-0.193052
0.187682
0.000967833
-0.0323577
0.0313899
-0.0320037
0.031369
0.000634743
-0.00639808
0.0111717
-0.259751
0.254978
-0.0166367
0.0202604
-0.432136
0.428513
-0.0219
0.0217277
-0.553267
0.553439
-0.0205241
0.0189646
-0.654241
0.655801
-0.0171209
0.0153198
-0.770197
0.771998
-0.0131965
0.0111082
-0.912166
0.914254
-0.00865096
0.00625391
-1.08435
1.08674
-0.00345392
0.000733178
-1.29277
1.29549
0.00242898
-0.00548884
-1.54591
1.54897
0.0084432
-0.0112882
-1.54606
1.54891
0.0135789
-0.0158068
-1.29317
1.2954
0.0176266
-0.0194239
-1.08511
1.08691
0.0209178
-0.0224292
-0.913584
0.915095
0.0237256
-0.0250768
-0.773099
0.77445
0.0262409
-0.0269328
-0.657757
0.658449
0.0265791
-0.0241996
-0.542762
0.540383
0.0197641
-0.0133448
-0.37913
0.372711
0.00775838
-0.00318985
-0.182755
0.178187
0.000824559
-0.030507
0.0296824
-0.0308155
0.0303241
0.000491392
-0.00509205
0.00906482
-0.250633
0.24666
-0.0138896
0.0173686
-0.424975
0.421496
-0.019204
0.0192371
-0.553557
0.553524
-0.0182456
0.0167355
-0.657401
0.658911
-0.0149301
0.0131613
-0.773775
0.775543
-0.0110808
0.00904466
-0.916222
0.918258
-0.00666017
0.00434407
-1.08901
1.09132
-0.00164841
-0.000953158
-1.29808
1.30068
0.00395362
-0.006824
-1.5519
1.55477
0.00956552
-0.0121793
-1.55164
1.55425
0.01426
-0.0162628
-1.29755
1.29956
0.0178818
-0.0194641
-1.08863
1.09021
0.0207687
-0.0220862
-0.916519
0.917837
0.0232222
-0.0244133
-0.775707
0.776898
0.0254066
-0.0257473
-0.658939
0.659279
0.0250361
-0.0222423
-0.537822
0.535029
0.0177317
-0.0117217
-0.366519
0.360509
0.00675229
-0.00277747
-0.173952
0.169977
0.000723008
-0.0289225
0.0281995
-0.0299026
0.0295333
0.000369278
-0.003988
0.00724959
-0.243071
0.239809
-0.0114141
0.0146332
-0.41817
0.414951
-0.0165395
0.0167497
-0.553463
0.553253
-0.0158718
0.014465
-0.660442
0.661849
-0.0126864
0.0109284
-0.777285
0.779044
-0.0088584
0.00683943
-0.920175
0.922194
-0.00448846
0.00222145
-1.09351
1.09578
0.0003905
-0.00289666
-1.30317
1.30567
0.00575794
-0.00845923
-1.55751
1.56021
0.0110029
-0.0133905
-1.55675
1.55914
0.0152578
-0.0170276
-1.30149
1.30325
0.018442
-0.0198113
-1.09173
1.09309
0.0209333
-0.0220638
-0.919087
0.920218
0.0230409
-0.0240602
-0.777989
0.779008
0.024803
-0.0248667
-0.659473
0.659537
0.0237773
-0.0206424
-0.532088
0.528953
0.0161261
-0.0104976
-0.354719
0.34909
0.00601547
-0.00248214
-0.166257
0.162724
0.000652233
-0.0275263
0.0268741
-0.0292265
0.0289675
0.000259067
-0.00300787
0.00561921
-0.236898
0.234287
-0.00911442
0.0119804
-0.411941
0.409075
-0.0138319
0.0141385
-0.553065
0.552759
-0.0133298
0.0119955
-0.663297
0.664631
-0.0102239
0.00845433
-0.780773
0.782543
-0.00637399
0.00435746
-0.924088
0.926105
-0.00202842
-0.000197129
-1.09792
1.10015
0.00275746
-0.00518295
-1.30806
1.31048
0.00792075
-0.010468
-1.56279
1.56534
0.0128237
-0.0149854
-1.5614
1.56357
0.0166372
-0.018165
-1.30495
1.30648
0.0193642
-0.0205107
-1.0944
1.09554
0.0214404
-0.0223711
-0.921283
0.922214
0.0231712
-0.0239794
-0.779915
0.780723
0.024464
-0.0242632
-0.659435
0.659234
0.0228076
-0.0193845
-0.525708
0.522284
0.0148947
-0.00959512
-0.343666
0.338366
0.00548922
-0.00227872
-0.159388
0.156177
0.000606216
-0.0262614
0.0256551
-0.0287665
0.0286132
0.00015329
-0.00208721
0.00407825
-0.23201
0.230019
-0.00688842
0.00932408
-0.406461
0.404026
-0.0110116
0.0113381
-0.552532
0.552205
-0.0105688
0.00927109
-0.666044
0.667342
-0.00748448
0.00568227
-0.784282
0.786084
-0.00356777
0.00152766
-0.927991
0.930031
0.000814701
-0.0030433
-1.10226
1.10449
0.00556861
-0.00793022
-1.31279
1.31515
0.0105478
-0.0129291
-1.56775
1.57013
0.0150763
-0.0169934
-1.56559
1.56751
0.0184121
-0.0196795
-1.30792
1.30919
0.0206431
-0.0215393
-1.09661
1.0975
0.0222537
-0.0229668
-0.923075
0.923788
0.0235825
-0.0242075
-0.781458
0.782083
0.0243883
-0.0239033
-0.658817
0.658332
0.0221047
-0.0184296
-0.518786
0.51511
0.0139739
-0.00894492
-0.333256
0.328227
0.00512466
-0.00214564
-0.153123
0.150144
0.000579022
-0.0250818
0.0245027
-0.0285165
0.0284696
4.6933e-05
-0.00117636
0.00255265
-0.228354
0.226978
-0.00465497
0.00659221
-0.40188
0.399943
-0.00801748
0.0082956
-0.552017
0.551739
-0.00754035
0.00626498
-0.668743
0.670018
-0.00444705
0.00259158
-0.787845
0.789701
-0.00040758
-0.00169428
-0.931938
0.93404
0.00409118
-0.00634702
-1.1066
1.10885
0.00887204
-0.0111956
-1.3174
1.31973
0.0137216
-0.0159597
-1.57238
1.57461
0.0179144
-0.0195845
-1.56929
1.57096
0.0207623
-0.0217613
-1.31038
1.31138
0.0224795
-0.0231112
-1.09831
1.09895
0.0235774
-0.0240262
-0.924421
0.924869
0.024423
-0.024829
-0.782589
0.782995
0.0246924
-0.0238564
-0.657546
0.65671
0.0216888
-0.0177681
-0.511387
0.507466
0.0133335
-0.00851171
-0.323369
0.318547
0.00489765
-0.00207346
-0.147289
0.144464
0.00056893
-0.0239502
0.0233813
-0.0284806
0.0285435
-6.29606e-05
-0.000228177
0.000978192
-0.225929
0.225179
-0.00233824
0.00370207
-0.39834
0.396976
-0.00475013
0.00488409
-0.551677
0.551543
-0.00407559
0.00276607
-0.671438
0.672747
-0.000885558
-0.00105397
-0.791509
0.793449
0.00333691
-0.00551712
-0.936004
0.938184
0.00798575
-0.0102869
-1.11099
1.11329
0.0128323
-0.0151371
-1.32193
1.32424
0.0175843
-0.0196826
-1.57671
1.57881
0.0214275
-0.0228271
-1.57247
1.57387
0.0237264
-0.0244068
-1.31227
1.31295
0.0248307
-0.0251385
-1.09948
1.09979
0.0253231
-0.0254878
-0.925254
0.925419
0.025665
-0.0257798
-0.783146
0.783261
0.025388
-0.0241066
-0.655526
0.654245
0.0215633
-0.0174043
-0.503545
0.499386
0.0129675
-0.00828331
-0.313886
0.309201
0.00479832
-0.00205696
-0.141737
0.138996
0.000573837
-0.0228351
0.0222612
-0.0286719
0.0288694
-0.000197557
0.000744869
-0.000685225
-0.224761
0.224701
0.000126175
0.000593645
-0.395978
0.395258
-0.00116429
0.00106751
-0.551716
0.551812
-0.000141247
-0.00128245
-0.674263
0.675686
0.00327668
-0.00533056
-0.795346
0.797399
0.00774041
-0.0100332
-0.940215
0.942508
0.0126159
-0.0150026
-1.11546
1.11785
0.0176056
-0.0199179
-1.32643
1.32874
0.0223023
-0.0242555
-1.58076
1.58272
0.0257783
-0.0268843
-1.5751
1.5762
0.0274896
-0.0278128
-1.3135
1.31382
0.0279079
-0.0278675
-1.09998
1.09994
0.0277434
-0.0275883
-0.925489
0.925334
0.0274763
-0.0272325
-0.783022
0.782778
0.0265266
-0.0247407
-0.65268
0.650894
0.0218069
-0.0173821
-0.495254
0.49083
0.0128915
-0.00826254
-0.304653
0.300024
0.00482778
-0.00209796
-0.136324
0.133594
0.000595259
-0.0217049
0.0211097
-0.0291333
0.0294721
-0.000338791
0.00186808
-0.00246325
-0.22495
0.225545
0.00279797
-0.00284525
-0.39494
0.394987
0.00288893
-0.00331198
-0.552341
0.552764
0.00439303
-0.00593177
-0.677338
0.678877
0.00806883
-0.0102825
-0.799403
0.801617
0.01289
-0.0153662
-0.944662
0.947138
0.0181388
-0.0206735
-1.12012
1.12265
0.0233915
-0.0257418
-1.33094
1.33329
0.028075
-0.0298734
-1.5845
1.5863
0.0311482
-0.0319164
-1.5771
1.57787
0.032196
-0.0321394
-1.31401
1.31395
0.0318774
-0.0314567
-1.09975
1.09933
0.0309956
-0.0304716
-0.925016
0.924492
0.0300164
-0.0293283
-0.782113
0.781425
0.0281917
-0.0258371
-0.648909
0.646554
0.0224609
-0.017723
-0.486452
0.481714
0.0131155
-0.00844968
-0.295511
0.290846
0.00498161
-0.00219164
-0.13091
0.12812
0.00063069
-0.0205291
0.0198984
-0.0298864
0.0304007
-0.000514369
0.00312945
-0.00452809
-0.22656
0.227958
0.00579423
-0.00667479
-0.395425
0.396305
0.00746522
-0.00833063
-0.553734
0.554599
0.00967865
-0.0114124
-0.680713
0.682447
0.0137773
-0.0162233
-0.803789
0.806235
0.0190984
-0.0218111
-0.949478
0.95219
0.0248186
-0.0275314
-1.12507
1.12778
0.0303921
-0.0328089
-1.33552
1.33794
0.0351185
-0.0367813
-1.58794
1.5896
0.0378022
-0.0381934
-1.5784
1.57879
0.0380849
-0.0375834
-1.31369
1.31319
0.0369059
-0.0360363
-1.09867
1.0978
0.03518
-0.0342332
-0.923724
0.922777
0.0334044
-0.0321775
-0.780244
0.779017
0.0305093
-0.0275406
-0.644064
0.641095
0.0236756
-0.0185492
-0.477043
0.471917
0.0137229
-0.00889176
-0.286263
0.281432
0.00528297
-0.00234438
-0.125349
0.122411
0.000680143
-0.0192807
0.0186005
-0.031003
0.0317452
-0.000742201
0.00465677
-0.00694209
-0.229792
0.232077
0.00925942
-0.0110428
-0.397609
0.399393
0.0126854
-0.0141303
-0.556162
0.557607
0.015901
-0.0179531
-0.684578
0.68663
0.0206677
-0.0234381
-0.808649
0.811419
0.0266613
-0.0296752
-0.954767
0.957781
0.0329848
-0.0359329
-1.13037
1.13332
0.0389833
-0.0414847
-1.34022
1.34272
0.0437549
-0.0452288
-1.59105
1.59253
0.0459274
-0.0458931
-1.5789
1.57887
0.0453307
-0.0443401
-1.31243
1.31144
0.0431892
-0.0417974
-1.09663
1.09524
0.040482
-0.0390542
-0.921504
0.920077
0.037789
-0.0360071
-0.777279
0.775497
0.0337644
-0.030114
-0.638031
0.63438
0.0256681
-0.0200227
-0.46686
0.461215
0.0148338
-0.00966702
-0.27664
0.271473
0.0057753
-0.00257178
-0.119452
0.116249
0.000746453
-0.0179311
0.0171846
-0.0325689
0.0335961
-0.00102719
0.00648809
-0.00980335
-0.234805
0.23812
0.0133262
-0.0161386
-0.40173
0.404542
0.01872
-0.0208295
-0.559905
0.562015
0.0231499
-0.0256427
-0.689189
0.691682
0.0288396
-0.0320471
-0.814164
0.817371
0.0357403
-0.0391627
-0.960674
0.964096
0.0428846
-0.0461531
-1.13617
1.13944
0.0494619
-0.0520821
-1.34508
1.3477
0.0543212
-0.0555901
-1.59377
1.59504
0.0559298
-0.0553932
-1.57851
1.57797
0.0543207
-0.0527267
-1.31007
1.30848
0.051047
-0.0490953
-1.09346
1.0915
0.0472792
-0.0453257
-0.918235
0.916281
0.0435458
-0.0411533
-0.773176
0.770783
0.0382381
-0.033797
-0.630663
0.626222
0.0286519
-0.0223259
-0.455644
0.449318
0.0165873
-0.0108596
-0.266285
0.260557
0.00650259
-0.00289077
-0.112976
0.109364
0.000833977
-0.0164453
0.0156113
-0.0346895
0.0360976
-0.00140814
0.00883617
-0.0134008
-0.241849
0.246414
0.0183215
-0.0222951
-0.408061
0.412034
0.0259402
-0.0288411
-0.565226
0.568127
0.0318729
-0.0349692
-0.694802
0.697898
0.0388385
-0.0426504
-0.820575
0.824386
0.0469893
-0.0509617
-0.967436
0.971409
0.0552116
-0.0588592
-1.14262
1.14626
0.0624356
-0.0651386
-1.35016
1.35286
0.0672642
-0.0682163
-1.596
1.59695
0.0680706
-0.0669042
-1.57703
1.57587
0.0652182
-0.0629444
-1.30644
1.30416
0.0606699
-0.0581005
-1.08904
1.08647
0.0557596
-0.0532366
-0.913813
0.91129
0.0508477
-0.0477777
-0.767863
0.764793
0.044109
-0.0387707
-0.621731
0.616393
0.0327921
-0.0255722
-0.443064
0.435844
0.0190385
-0.0124798
-0.254732
0.248173
0.0074604
-0.00329759
-0.105632
0.10147
0.000942208
-0.0147803
0.0138381
-0.0375453
0.0394991
-0.00195385
0.0120612
-0.018215
-0.25133
0.257484
0.0247963
-0.030111
-0.417015
0.422329
0.0350037
-0.0389138
-0.572488
0.576399
0.0428952
-0.0468348
-0.701779
0.705718
0.0516365
-0.0562423
-0.828214
0.83282
0.0613692
-0.0659637
-0.975311
0.979905
0.070758
-0.0747503
-1.14978
1.15378
0.0785132
-0.081189
-1.35532
1.358
0.0830449
-0.0835159
-1.5975
1.59797
0.0827091
-0.0807427
-1.57419
1.57223
0.0783096
-0.0752335
-1.30136
1.29829
0.072262
-0.068993
-1.08327
1.08
0.0660693
-0.0629662
-0.908119
0.905016
0.0599213
-0.0561235
-0.761163
0.757366
0.0516039
-0.0452065
-0.611007
0.60461
0.0381802
-0.0297637
-0.428677
0.42026
0.0221371
-0.014462
-0.241453
0.233778
0.00859692
-0.00376638
-0.0971562
0.0923257
0.00106366
-0.0128995
0.0118358
-0.0414444
0.0442407
-0.0027963
0.0167766
-0.0250237
-0.263917
0.272164
0.0336381
-0.0405588
-0.429196
0.436116
0.046971
-0.0521215
-0.582212
0.587363
0.0574117
-0.0625585
-0.710616
0.715763
0.0685118
-0.0740227
-0.837423
0.842934
0.0799797
-0.0851702
-0.984401
0.989591
0.0904263
-0.0946423
-1.15756
1.16178
0.0984089
-0.100853
-1.36031
1.36275
0.102177
-0.101904
-1.59789
1.59762
0.100197
-0.097212
-1.56963
1.56665
0.0938602
-0.0898317
-1.29459
1.29056
0.0860578
-0.0819952
-1.07599
1.07193
0.0784412
-0.0747044
-0.901077
0.897341
0.0710232
-0.0663577
-0.752862
0.748196
0.0608176
-0.0530981
-0.598117
0.590397
0.0447245
-0.0347531
-0.411863
0.401892
0.0257198
-0.016663
-0.225924
0.216867
0.00980955
-0.00424553
-0.0873516
0.0817876
0.00118205
-0.0107847
0.00960264
-0.0469407
0.051181
-0.00424028
0.0242178
-0.035363
-0.280727
0.291872
0.0466613
-0.0557404
-0.445628
0.454707
0.0639663
-0.0705634
-0.594968
0.601566
0.0774433
-0.0840069
-0.721824
0.728387
0.0911917
-0.0975637
-0.848393
0.854765
0.104218
-0.109823
-0.994593
1.0002
0.11528
-0.119438
-1.16564
1.16979
0.122859
-0.124731
-1.36465
1.36652
0.125146
-0.123796
-1.59661
1.59526
0.120907
-0.116662
-1.5629
1.55866
0.112225
-0.107076
-1.28581
1.28066
0.102358
-0.0973714
-1.067
1.06202
0.0930874
-0.0886042
-0.892464
0.887981
0.0842104
-0.0784768
-0.742621
0.736887
0.0716753
-0.0622881
-0.582447
0.57306
0.0522272
-0.0403353
-0.391907
0.380015
0.0295908
-0.0189247
-0.2077
0.197034
0.010985
-0.00467492
-0.0761509
0.0698408
0.00127599
-0.00845421
0.00717822
-0.0551031
0.0624004
-0.00729726
0.0375635
-0.0530577
-0.303912
0.319406
0.0681586
-0.0800769
-0.467791
0.479709
0.0902079
-0.0981993
-0.61116
0.619152
0.106643
-0.114418
-0.735553
0.743328
0.122481
-0.129282
-0.86087
0.867671
0.136089
-0.141569
-1.00537
1.01085
0.146617
-0.150133
-1.17331
1.17682
0.152596
-0.153336
-1.36755
1.36829
0.152303
-0.149434
-1.59292
1.59005
0.145011
-0.13924
-1.55351
1.54773
0.13352
-0.127108
-1.27474
1.26833
0.121339
-0.115317
-1.05606
1.05003
0.110182
-0.104776
-0.882016
0.87661
0.0994826
-0.092356
-0.729907
0.72278
0.083964
-0.0725255
-0.563189
0.551751
0.0603806
-0.0462018
-0.368018
0.353839
0.0335337
-0.0211498
-0.186478
0.174094
0.0120751
-0.00503039
-0.0636561
0.0566114
0.00133029
-0.00597009
0.00463981
-0.0692532
0.073234
-0.00398086
0.0284362
-0.0418565
-0.337487
0.350908
0.0552899
-0.0660758
-0.496904
0.50769
0.0757246
-0.0848951
-0.630512
0.639683
0.0953116
-0.104555
-0.750701
0.759944
0.114792
-0.123879
-0.87361
0.882697
0.133473
-0.141878
-1.0154
1.02381
0.150447
-0.157521
-1.17923
1.18631
0.164129
-0.16885
-1.36782
1.37254
0.172145
-0.172984
-1.58589
1.58673
0.171276
-0.167511
-1.54079
1.53702
0.162724
-0.156553
-1.26102
1.25485
0.150668
-0.143665
-1.04299
1.03599
0.137504
-0.130679
-0.869401
0.862575
0.123842
-0.114333
-0.714027
0.704518
0.102338
-0.0863332
-0.539436
0.523431
0.0698831
-0.0512041
-0.33929
0.320611
0.0355312
-0.0212244
-0.16213
0.147823
0.0114414
-0.00446806
-0.0502227
0.0432493
0.00107034
-0.00344931
0.00237896
-0.0804676
0.0783731
0.00209443
0.00666731
-0.0153748
-0.367135
0.375843
0.0255722
-0.033294
-0.52315
0.530872
0.0411029
-0.0490485
-0.651239
0.659185
0.0586309
-0.067403
-0.768891
0.777663
0.0766856
-0.0851398
-0.891289
0.899743
0.0940354
-0.101489
-1.03194
1.0394
0.109254
-0.115288
-1.19317
1.19921
0.120822
-0.12441
-1.37687
1.38046
0.126158
-0.125579
-1.58652
1.58594
0.122423
-0.117157
-1.53212
1.52685
0.110864
-0.103141
-1.24782
1.2401
0.0958692
-0.0877847
-1.02805
1.01997
0.0804195
-0.0722902
-0.85298
0.844851
0.0646928
-0.0559168
-0.69081
0.682034
0.0464591
-0.0350013
-0.505106
0.493648
0.0246598
-0.0151802
-0.301485
0.292005
0.00888048
-0.00435054
-0.134107
0.129578
0.00188089
-0.000559141
-0.0367304
0.0354087
9.38789e-05
-0.00122927
0.00113539
-0.0816372
0.0786839
0.00295329
-0.00230548
-0.00255152
-0.387064
0.391921
0.00938508
-0.0152025
-0.542613
0.54843
0.0213089
-0.0282469
-0.669073
0.676011
0.0366111
-0.0442871
-0.785599
0.793275
0.0526514
-0.0601154
-0.907514
0.914978
0.0677228
-0.0744496
-1.0467
1.05343
0.0812452
-0.0866098
-1.20482
1.21018
0.0910772
-0.0937313
-1.38335
1.38601
0.0948638
-0.0936552
-1.58463
1.58342
0.090029
-0.0844432
-1.52096
1.51537
0.0780419
-0.0704431
-1.23221
1.22461
0.0628635
-0.0545344
-1.01124
1.00291
0.0466801
-0.0377315
-0.835343
0.826395
0.02953
-0.0206761
-0.668964
0.66011
0.0127086
-0.00441366
-0.479918
0.471623
-0.000953277
0.00389631
-0.281409
0.278466
-0.00459675
0.00395963
-0.123752
0.124389
-0.00277474
0.00136714
-0.0335304
0.034938
-0.000412833
-0.000844924
0.00125776
-0.0802632
0.0774669
0.00279631
-0.00578229
0.00356686
-0.400187
0.402402
0.000637373
-0.00517657
-0.557295
0.561834
0.0105463
-0.0164512
-0.683939
0.689844
0.0236961
-0.0303957
-0.800423
0.807123
0.037666
-0.0441564
-0.921973
0.928463
0.0511377
-0.0569175
-1.05975
1.06553
0.0629549
-0.0673024
-1.21517
1.21952
0.0712501
-0.0735854
-1.38852
1.39085
0.0744208
-0.07302
-1.58197
1.58057
0.0698424
-0.0649248
-1.50959
1.50467
0.0591518
-0.0518138
-1.21706
1.20972
0.0446004
-0.0362575
-0.994077
0.985734
0.0278185
-0.0182628
-0.815942
0.806386
0.00917338
-0.000221276
-0.647479
0.638527
-0.00630531
0.0113432
-0.461572
0.456534
-0.0131948
0.0124789
-0.272672
0.273388
-0.0105429
0.0076141
-0.123528
0.126457
-0.00496363
0.00232366
-0.0355238
0.0381638
-0.00069321
-0.00140156
0.00209477
-0.0786861
0.0762405
0.00244561
-0.00678497
0.00613225
-0.408841
0.409494
-0.00305277
-8.5892e-05
-0.569342
0.57248
0.00461735
-0.0100817
-0.696542
0.702007
0.0162544
-0.0222231
-0.813199
0.819167
0.028606
-0.0343117
-0.934553
0.940259
0.0403763
-0.0456052
-1.07121
1.07644
0.0508332
-0.0549751
-1.22379
1.22793
0.0585663
-0.0607519
-1.39296
1.39515
0.0616476
-0.0605249
-1.57927
1.57815
0.0578014
-0.0532608
-1.49942
1.49488
0.0479888
-0.041229
-1.20254
1.19578
0.0342567
-0.0258155
-0.976865
0.968424
0.0174576
-0.00792953
-0.795664
0.786136
-0.000540133
0.00835271
-0.627258
0.619445
-0.013566
0.0168887
-0.448926
0.445603
-0.0174727
0.0154279
-0.270288
0.272333
-0.0124303
0.00886349
-0.127722
0.131289
-0.00569277
0.00262753
-0.0399461
0.0430113
-0.000794341
-0.00251978
0.00331412
-0.0772654
0.075184
0.00208145
-0.00658787
0.00641905
-0.414672
0.414841
-0.00467269
0.00202091
-0.57851
0.581162
0.00222452
-0.00690438
-0.707351
0.712031
0.0122601
-0.0174891
-0.824387
0.829616
0.0232093
-0.0283532
-0.945651
0.950795
0.033966
-0.0386352
-1.08143
1.0861
0.0434699
-0.0473613
-1.23186
1.23575
0.050757
-0.0528943
-1.39721
1.39935
0.0538597
-0.0532883
-1.57712
1.57655
0.0507981
-0.0467048
-1.49007
1.48597
0.0416718
-0.0351365
-1.18886
1.18233
0.0286051
-0.0203778
-0.959734
0.951507
0.0124551
-0.00384109
-0.776197
0.767583
-0.00356739
0.0102053
-0.609987
0.603349
-0.0143064
0.0168741
-0.439757
0.437189
-0.016951
0.0148957
-0.27057
0.272626
-0.0120649
0.00854434
-0.133137
0.136658
-0.00542271
0.00251698
-0.0449461
0.0478519
-0.000763535
-0.00375624
0.00451978
-0.0762067
0.0745898
0.00161689
-0.00565438
0.00580346
-0.418911
0.418762
-0.00444725
0.00248336
-0.586525
0.588489
0.00143787
-0.00566273
-0.716728
0.720953
0.0107408
-0.015262
-0.83446
0.838981
0.0203124
-0.0249084
-0.955928
0.960524
0.0302873
-0.0346142
-1.09083
1.09516
0.0390448
-0.0428731
-1.23953
1.24336
0.0465887
-0.0487479
-1.4016
1.40376
0.0499407
-0.0494338
-1.57567
1.57517
0.0473964
-0.0432489
-1.48168
1.47753
0.038579
-0.0324918
-1.17561
1.16952
0.0262277
-0.0188327
-0.943327
0.935932
0.0116783
-0.00394444
-0.758632
0.750898
-0.00222961
0.00793842
-0.595294
0.589585
-0.0115724
0.0134731
-0.432463
0.430562
-0.0136822
0.0122686
-0.271466
0.272879
-0.00993589
0.00700366
-0.138227
0.14116
-0.0044374
0.00208259
-0.049447
0.0518018
-0.000650732
-0.00487238
0.00552311
-0.0756643
0.0744023
0.00126201
-0.0045265
0.00478594
-0.422204
0.421945
-0.0035968
0.00176677
-0.593418
0.595248
0.00192435
-0.00565074
-0.72512
0.728846
0.0099785
-0.0143146
-0.843439
0.847775
0.0189813
-0.0237217
-0.964945
0.969685
0.0284191
-0.0326209
-1.09962
1.10382
0.0372623
-0.0409464
-1.24713
1.25081
0.0443033
-0.0469517
-1.4059
1.40854
0.0483671
-0.048122
-1.57473
1.57448
0.0461727
-0.0424938
-1.47352
1.46984
0.0380989
-0.0324037
-1.16312
1.15742
0.0267384
-0.0201066
-0.92852
0.921888
0.0138815
-0.00742483
-0.743312
0.736855
0.00191386
0.00291713
-0.582866
0.578035
-0.00599517
0.00794072
-0.426135
0.42419
-0.00848949
0.00767601
-0.271616
0.272429
-0.00626223
0.00438244
-0.141849
0.143729
-0.00279428
0.00133395
-0.052745
0.0542053
-0.000437738
-0.00572792
0.00616565
-0.0756582
0.0746187
0.00103953
-0.00319206
0.00318902
-0.425137
0.42514
-0.00217804
0.000413609
-0.599685
0.601449
0.00298421
-0.00651887
-0.73283
0.736364
0.01061
-0.0145057
-0.851878
0.855774
0.0192666
-0.0232346
-0.97387
0.977838
0.027932
-0.0320024
-1.10821
1.11228
0.0365938
-0.0405287
-1.25453
1.25846
0.0442196
-0.0466745
-1.41099
1.41344
0.0483998
-0.0484746
-1.57414
1.57421
0.0470475
-0.043575
-1.46599
1.46252
0.0395792
-0.0343566
-1.15182
1.1466
0.0292712
-0.0233107
-0.915164
0.909203
0.0179436
-0.0122178
-0.730262
0.724536
0.00740929
-0.00294326
-0.572346
0.56788
-0.000221356
0.00212493
-0.419955
0.418051
-0.00299666
0.00296643
-0.270544
0.270574
-0.00259914
0.00182639
-0.143462
0.144234
-0.00116668
0.000602863
-0.0542959
0.0548597
-0.000216666
-0.00617161
0.00638828
-0.075949
0.0752431
0.000705857
-0.00198159
0.00153922
-0.428224
0.428666
-0.000709967
-0.00128948
-0.605057
0.607057
0.00427525
-0.00762521
-0.739901
0.743251
0.0114864
-0.0154689
-0.85951
0.863492
0.0196029
-0.0237355
-0.982023
0.986156
0.0284224
-0.0323223
-1.1168
1.1207
0.0370451
-0.0409675
-1.26224
1.26616
0.0447304
-0.0476908
-1.41631
1.41927
0.0498443
-0.0501222
-1.5743
1.57458
0.0488536
-0.0460175
-1.45917
1.45633
0.0425494
-0.0377671
-1.14127
1.13648
0.0330895
-0.0279207
-0.90325
0.898081
0.0227893
-0.0178048
-0.7186
0.713616
0.0134507
-0.00918893
-0.562934
0.558673
0.00615739
-0.00369778
-0.413794
0.411334
0.00232382
-0.00145386
-0.268164
0.267295
0.000950276
-0.000529712
-0.142984
0.142563
0.000166908
6.32771e-05
-0.0542323
0.0540021
-8.88265e-05
-0.00619672
0.00628555
-0.0766747
0.0761378
0.000536916
-0.000959315
0.000593159
-0.431592
0.431958
0.000894267
-0.00278167
-0.610553
0.61244
0.00587297
-0.00905364
-0.746373
0.749553
0.0127142
-0.0162727
-0.867133
0.870692
0.0205209
-0.0243521
-0.990306
0.994137
0.0290098
-0.0333629
-1.12507
1.12942
0.0377542
-0.0420112
-1.27015
1.27441
0.0461787
-0.0491978
-1.42213
1.42515
0.051663
-0.0526485
-1.57504
1.57603
0.0517637
-0.0495105
-1.45334
1.45109
0.0462608
-0.0420013
-1.13174
1.12748
0.0378449
-0.0330196
-0.892566
0.887741
0.028449
-0.0237902
-0.708154
0.703495
0.0197125
-0.0155176
-0.553844
0.549649
0.012281
-0.00946915
-0.407209
0.404397
0.00730373
-0.00551516
-0.264155
0.262366
0.00400125
-0.00248075
-0.1404
0.138879
0.001296
-0.000402877
-0.0526406
0.0517475
3.3599e-05
-0.00587813
0.00584453
-0.0776852
0.0773419
0.000343324
0.000112549
-0.000786068
-0.43512
0.435793
0.00220736
-0.00437683
-0.615676
0.617845
0.00736067
-0.0103596
-0.752536
0.755535
0.0140703
-0.0174629
-0.874222
0.877614
0.0215527
-0.0255116
-0.998454
1.00241
0.0300894
-0.0344207
-1.13365
1.13798
0.0390373
-0.0433138
-1.2786
1.28287
0.0476386
-0.0513565
-1.42845
1.43217
0.0542062
-0.0554343
-1.57693
1.57816
0.0551936
-0.0532452
-1.44871
1.44676
0.050559
-0.0468689
-1.12316
1.11947
0.0428515
-0.0383571
-0.882661
0.878167
0.0340775
-0.0295104
-0.698453