0.490941 	1.16127 	0.00612154 	3.00279 	0
0.561075 	1.16127 	0.00612154 	3.00279 	0
0.63121 	1.16127 	0.00612154 	3.00279 	0
0.701344 	1.16127 	0.00612154 	3.00279 	0
0.771478 	1.16127 	0.00612154 	3.00279 	0
0.841613 	1.16127 	0.00612154 	3.00279 	0
0.911747 	1.16127 	0.00612154 	3.00279 	0
0.981881 	1.16127 	0.00612154 	3.00279 	0
1.05202 	1.16127 	0.00612154 	3.00279 	0
1.12215 	1.16127 	0.00612154 	3.00279 	0
1.19228 	1.16127 	0.00612154 	3.00279 	0
1.26242 	1.13513 	0.0115139 	3.008 	0
1.33255 	1.13513 	0.0115139 	3.008 	0
1.40269 	1.13513 	0.0115139 	3.008 	0
1.47282 	1.13513 	0.0115139 	3.008 	0
1.54296 	1.13513 	0.0115139 	3.008 	0
1.61309 	1.13513 	0.0115139 	3.008 	0
1.68323 	1.13513 	0.0115139 	3.008 	0
1.75336 	1.13513 	0.0115139 	3.008 	0
1.82349 	1.08524 	0.0148796 	3.02381 	4.1653e-19
1.89363 	1.08524 	0.0148796 	3.02381 	4.1653e-19
1.96376 	1.08524 	0.0148796 	3.02381 	4.1653e-19
2.0339 	1.08524 	0.0148796 	3.02381 	4.1653e-19
2.10403 	1.08524 	0.0148796 	3.02381 	4.1653e-19
2.17417 	1.08524 	0.0148796 	3.02381 	4.1653e-19
2.2443 	1.08524 	0.0148796 	3.02381 	4.1653e-19
2.31443 	1.08524 	0.0148796 	3.02381 	4.1653e-19
2.38457 	1.08524 	0.0148796 	3.02381 	4.1653e-19
2.4547 	1.08524 	0.0148796 	3.02381 	4.1653e-19
2.52484 	1.08524 	0.0148796 	3.02381 	4.1653e-19
2.59497 	1.05069 	0.00739333 	3.03691 	-6.60892e-19
2.66511 	1.05069 	0.00739333 	3.03691 	-6.60892e-19
2.73524 	1.05069 	0.00739333 	3.03691 	-6.60892e-19
2.80538 	1.05069 	0.00739333 	3.03691 	-6.60892e-19
2.87551 	1.05069 	0.00739333 	3.03691 	-6.60892e-19
2.94564 	1.05069 	0.00739333 	3.03691 	-6.60892e-19
3.01578 	1.05069 	0.00739333 	3.03691 	-6.60892e-19
3.08591 	1.05069 	0.00739333 	3.03691 	-6.60892e-19
3.15605 	1.05069 	0.00739333 	3.03691 	-6.60892e-19
3.22618 	1.05069 	0.00739333 	3.03691 	-6.60892e-19
3.29632 	1.01843 	0.0201156 	3.04334 	6.66327e-19
3.36645 	1.01843 	0.0201156 	3.04334 	6.66327e-19
3.43659 	1.01843 	0.0201156 	3.04334 	6.66327e-19
3.50672 	1.01843 	0.0201156 	3.04334 	6.66327e-19
3.57685 	1.01843 	0.0201156 	3.04334 	6.66327e-19
3.64699 	1.01843 	0.0201156 	3.04334 	6.66327e-19
3.71712 	1.01843 	0.0201156 	3.04334 	6.66327e-19
3.78726 	1.01843 	0.0201156 	3.04334 	6.66327e-19
3.85739 	1.01843 	0.0201156 	3.04334 	6.66327e-19
3.92753 	1.01843 	0.0201156 	3.04334 	6.66327e-19
3.99766 	1.01843 	0.0201156 	3.04334 	6.66327e-19
4.06779 	1.00023 	0.00364606 	3.05029 	-1.87604e-20
4.13793 	1.00023 	0.00364606 	3.05029 	-1.87604e-20
4.20806 	1.00023 	0.00364606 	3.05029 	-1.87604e-20
4.2782 	1.00023 	0.00364606 	3.05029 	-1.87604e-20
4.34833 	1.00023 	0.00364606 	3.05029 	-1.87604e-20
4.41847 	1.00023 	0.00364606 	3.05029 	-1.87604e-20
4.4886 	0.975277 	0.0165365 	3.05773 	0
4.55874 	0.975277 	0.0165365 	3.05773 	0
4.62887 	0.975277 	0.0165365 	3.05773 	0
4.699 	0.975277 	0.0165365 	3.05773 	0
4.76914 	0.975277 	0.0165365 	3.05773 	0
4.83927 	0.975277 	0.0165365 	3.05773 	0
4.90941 	0.975277 	0.0165365 	3.05773 	0
4.97954 	0.975277 	0.0165365 	3.05773 	0
5.04968 	0.975277 	0.0165365 	3.05773 	0
5.11981 	0.975277 	0.0165365 	3.05773 	0
5.18994 	0.952799 	0.00576527 	3.06487 	-8.87613e-21
5.26008 	0.952799 	0.00576527 	3.06487 	-8.87613e-21
5.33021 	0.952799 	0.00576527 	3.06487 	-8.87613e-21
5.40035 	0.952799 	0.00576527 	3.06487 	-8.87613e-21
5.47048 	0.952799 	0.00576527 	3.06487 	-8.87613e-21
5.54062 	0.952799 	0.00576527 	3.06487 	-8.87613e-21
5.61075 	0.952799 	0.00576527 	3.06487 	-8.87613e-21
5.68089 	0.924141 	0.0113496 	3.07448 	0
5.75102 	0.924141 	0.0113496 	3.07448 	0
5.82115 	0.924141 	0.0113496 	3.07448 	0
5.89129 	0.924141 	0.0113496 	3.07448 	0
5.96142 	0.924141 	0.0113496 	3.07448 	0
6.03156 	0.924141 	0.0113496 	3.07448 	0
6.10169 	0.924141 	0.0113496 	3.07448 	0
6.17183 	0.924141 	0.0113496 	3.07448 	0
6.24196 	0.924141 	0.0113496 	3.07448 	0
6.3121 	0.895331 	0.00701324 	3.08212 	0
6.38223 	0.895331 	0.00701324 	3.08212 	0
6.45236 	0.895331 	0.00701324 	3.08212 	0
6.5225 	0.895331 	0.00701324 	3.08212 	0
6.59263 	0.895331 	0.00701324 	3.08212 	0
6.66277 	0.895331 	0.00701324 	3.08212 	0
6.7329 	0.895331 	0.00701324 	3.08212 	0
6.80304 	0.895331 	0.00701324 	3.08212 	0
6.87317 	0.868844 	0.00630689 	3.09184 	2.98482e-19
6.9433 	0.868844 	0.00630689 	3.09184 	2.98482e-19
7.01344 	0.868844 	0.00630689 	3.09184 	2.98482e-19
7.08357 	0.868844 	0.00630689 	3.09184 	2.98482e-19
7.15371 	0.868844 	0.00630689 	3.09184 	2.98482e-19
7.22384 	0.868844 	0.00630689 	3.09184 	2.98482e-19
7.29398 	0.868844 	0.00630689 	3.09184 	2.98482e-19
7.36411 	0.868844 	0.00630689 	3.09184 	2.98482e-19
7.43425 	0.868844 	0.00630689 	3.09184 	2.98482e-19
7.50438 	0.838778 	0.00846327 	3.09932 	-2.22099e-18
7.57451 	0.838778 	0.00846327 	3.09932 	-2.22099e-18
7.64465 	0.838778 	0.00846327 	3.09932 	-2.22099e-18
7.71478 	0.838778 	0.00846327 	3.09932 	-2.22099e-18
7.78492 	0.838778 	0.00846327 	3.09932 	-2.22099e-18
7.85505 	0.838778 	0.00846327 	3.09932 	-2.22099e-18
7.92519 	0.838778 	0.00846327 	3.09932 	-2.22099e-18
7.99532 	0.838778 	0.00846327 	3.09932 	-2.22099e-18
8.06545 	0.817055 	0.0015792 	3.10537 	2.23748e-18
8.13559 	0.817055 	0.0015792 	3.10537 	2.23748e-18
8.20572 	0.817055 	0.0015792 	3.10537 	2.23748e-18
8.27586 	0.817055 	0.0015792 	3.10537 	2.23748e-18
8.34599 	0.817055 	0.0015792 	3.10537 	2.23748e-18
8.41613 	0.817055 	0.0015792 	3.10537 	2.23748e-18
8.48626 	0.817055 	0.0015792 	3.10537 	2.23748e-18
8.5564 	0.817055 	0.0015792 	3.10537 	2.23748e-18
8.62653 	0.817055 	0.0015792 	3.10537 	2.23748e-18
8.69666 	0.784504 	0.0114358 	3.11927 	1.82601e-18
8.7668 	0.784504 	0.0114358 	3.11927 	1.82601e-18
8.83693 	0.784504 	0.0114358 	3.11927 	1.82601e-18
8.90707 	0.784504 	0.0114358 	3.11927 	1.82601e-18
8.9772 	0.784504 	0.0114358 	3.11927 	1.82601e-18
9.04734 	0.784504 	0.0114358 	3.11927 	1.82601e-18
9.11747 	0.784504 	0.0114358 	3.11927 	1.82601e-18
9.18761 	0.784504 	0.0114358 	3.11927 	1.82601e-18
9.25774 	0.754699 	0.00547512 	3.11853 	-1.66906e-18
9.32787 	0.754699 	0.00547512 	3.11853 	-1.66906e-18
9.39801 	0.754699 	0.00547512 	3.11853 	-1.66906e-18
9.46814 	0.754699 	0.00547512 	3.11853 	-1.66906e-18
9.53828 	0.754699 	0.00547512 	3.11853 	-1.66906e-18
9.60841 	0.754699 	0.00547512 	3.11853 	-1.66906e-18
9.67855 	0.754699 	0.00547512 	3.11853 	-1.66906e-18
9.74868 	0.754699 	0.00547512 	3.11853 	-1.66906e-18
9.81881 	0.738932 	0.017811 	3.12944 	-5.71595e-19
9.88895 	0.738932 	0.017811 	3.12944 	-5.71595e-19
9.95908 	0.738932 	0.017811 	3.12944 	-5.71595e-19
10.0292 	0.738932 	0.017811 	3.12944 	-5.71595e-19
10.0994 	0.738932 	0.017811 	3.12944 	-5.71595e-19
10.1695 	0.738932 	0.017811 	3.12944 	-5.71595e-19
10.2396 	0.738932 	0.017811 	3.12944 	-5.71595e-19
10.3098 	0.738932 	0.017811 	3.12944 	-5.71595e-19
10.3799 	0.738932 	0.017811 	3.12944 	-5.71595e-19
10.45 	0.738932 	0.017811 	3.12944 	-5.71595e-19
10.5202 	0.738932 	0.017811 	3.12944 	-5.71595e-19
10.5903 	0.738932 	0.017811 	3.12944 	-5.71595e-19
10.6604 	0.759202 	0.0156879 	3.12554 	8.413e-19
10.7306 	0.707962 	0.0354708 	3.13954 	0
10.8007 	0.707962 	0.0354708 	3.13954 	0
10.8708 	0.707962 	0.0354708 	3.13954 	0
10.941 	0.707962 	0.0354708 	3.13954 	0
11.0111 	0.707962 	0.0354708 	3.13954 	0
11.0812 	0.707962 	0.0354708 	3.13954 	0
11.1514 	0.707962 	0.0354708 	3.13954 	0
11.2215 	0.707962 	0.0354708 	3.13954 	0
11.2916 	0.707962 	0.0354708 	3.13954 	0
11.3618 	0.707962 	0.0354708 	3.13954 	0
11.4319 	0.707962 	0.0354708 	3.13954 	0
11.502 	0.707962 	0.0354708 	3.13954 	0
11.5722 	0.707962 	0.0354708 	3.13954 	0
11.6423 	0.707962 	0.0354708 	3.13954 	0
11.7124 	0.716095 	0.0223815 	3.12941 	0
11.7826 	0.655973 	0.0760251 	3.16024 	9.57158e-19
11.8527 	0.655973 	0.0760251 	3.16024 	9.57158e-19
11.9228 	0.655973 	0.0760251 	3.16024 	9.57158e-19
11.993 	0.655973 	0.0760251 	3.16024 	9.57158e-19
12.0631 	0.655973 	0.0760251 	3.16024 	9.57158e-19
12.1332 	0.655973 	0.0760251 	3.16024 	9.57158e-19
12.2034 	0.559571 	0.0686305 	3.18622 	-4.7392e-19
12.2735 	0.559571 	0.0686305 	3.18622 	-4.7392e-19
12.3437 	0.559571 	0.0686305 	3.18622 	-4.7392e-19
12.4138 	0.559571 	0.0686305 	3.18622 	-4.7392e-19
12.4839 	0.559571 	0.0686305 	3.18622 	-4.7392e-19
12.5541 	0.559571 	0.0686305 	3.18622 	-4.7392e-19
12.6242 	0.559571 	0.0686305 	3.18622 	-4.7392e-19
12.6943 	0.559571 	0.0686305 	3.18622 	-4.7392e-19
12.7645 	0.559571 	0.0686305 	3.18622 	-4.7392e-19
12.8346 	0.445786 	0.0354832 	3.1785 	4.42289e-19
12.9047 	0.432529 	0.136545 	3.22164 	-2.20022e-19
12.9749 	0.432529 	0.136545 	3.22164 	-2.20022e-19
13.045 	0.432529 	0.136545 	3.22164 	-2.20022e-19
13.1151 	0.432529 	0.136545 	3.22164 	-2.20022e-19
13.1853 	0.432529 	0.136545 	3.22164 	-2.20022e-19
13.2554 	0.432529 	0.136545 	3.22164 	-2.20022e-19
13.3255 	0.432529 	0.136545 	3.22164 	-2.20022e-19
13.3957 	0.659552 	0.141755 	3.19288 	1.48171e-18
13.4658 	0.659552 	0.141755 	3.19288 	1.48171e-18
13.5359 	0.659552 	0.141755 	3.19288 	1.48171e-18
13.6061 	0.659552 	0.141755 	3.19288 	1.48171e-18
13.6762 	0.659552 	0.141755 	3.19288 	1.48171e-18
13.7463 	0.659552 	0.141755 	3.19288 	1.48171e-18
13.8165 	0.741054 	0.112731 	2.86645 	-1.2301e-18
13.8866 	0.948777 	0.135598 	2.96062 	5.69649e-19
13.9567 	0.948777 	0.135598 	2.96062 	5.69649e-19
14.0269 	0.364003 	0.245281 	3.03389 	-1.8732e-18
14.097 	0.364003 	0.245281 	3.03389 	-1.8732e-18
14.1671 	0.364003 	0.245281 	3.03389 	-1.8732e-18
14.2373 	0.364003 	0.245281 	3.03389 	-1.8732e-18
14.3074 	0.364003 	0.245281 	3.03389 	-1.8732e-18
14.3776 	0.364003 	0.245281 	3.03389 	-1.8732e-18
14.4477 	0.364003 	0.245281 	3.03389 	-1.8732e-18
14.5178 	0.364003 	0.245281 	3.03389 	-1.8732e-18
14.588 	0.364003 	0.245281 	3.03389 	-1.8732e-18
14.6581 	0.364003 	0.245281 	3.03389 	-1.8732e-18
14.7282 	0.364003 	0.245281 	3.03389 	-1.8732e-18
14.7984 	0.364003 	0.245281 	3.03389 	-1.8732e-18
14.8685 	0.364003 	0.245281 	3.03389 	-1.8732e-18
14.9386 	0.18611 	0.339699 	3.1931 	0
15.0088 	0.18611 	0.339699 	3.1931 	0
15.0789 	0.18611 	0.339699 	3.1931 	0
15.149 	0.18611 	0.339699 	3.1931 	0
15.2192 	0.18611 	0.339699 	3.1931 	0
15.2893 	-0.322385 	0.340267 	3.42013 	-1.99533e-19
15.3594 	-0.322385 	0.340267 	3.42013 	-1.99533e-19
15.4296 	-0.322385 	0.340267 	3.42013 	-1.99533e-19
15.4997 	-0.322385 	0.340267 	3.42013 	-1.99533e-19
15.5698 	-0.322385 	0.340267 	3.42013 	-1.99533e-19
15.64 	-0.322385 	0.340267 	3.42013 	-1.99533e-19
15.7101 	-0.817372 	0.395215 	3.49098 	0
15.7802 	-0.817372 	0.395215 	3.49098 	0
15.8504 	-0.712306 	0.647543 	3.54866 	1.25564e-18
15.9205 	-0.712306 	0.647543 	3.54866 	1.25564e-18
15.9906 	-0.712306 	0.647543 	3.54866 	1.25564e-18
16.0608 	-0.712306 	0.647543 	3.54866 	1.25564e-18
16.1309 	-0.712306 	0.647543 	3.54866 	1.25564e-18
16.201 	-0.712306 	0.647543 	3.54866 	1.25564e-18
16.2712 	-0.712306 	0.647543 	3.54866 	1.25564e-18
16.3413 	-0.712306 	0.647543 	3.54866 	1.25564e-18
16.4114 	-0.712306 	0.647543 	3.54866 	1.25564e-18
16.4816 	-0.712306 	0.647543 	3.54866 	1.25564e-18
16.5517 	-0.712306 	0.647543 	3.54866 	1.25564e-18
16.6219 	-0.712306 	0.647543 	3.54866 	1.25564e-18
16.692 	-0.712306 	0.647543 	3.54866 	1.25564e-18
16.7621 	-0.712306 	0.647543 	3.54866 	1.25564e-18
16.8323 	-0.261297 	0.872195 	3.11605 	6.48602e-20
16.9024 	-0.261297 	0.872195 	3.11605 	6.48602e-20
16.9725 	-0.261297 	0.872195 	3.11605 	6.48602e-20
17.0427 	-0.261297 	0.872195 	3.11605 	6.48602e-20
17.1128 	-0.261297 	0.872195 	3.11605 	6.48602e-20
17.1829 	-0.261297 	0.872195 	3.11605 	6.48602e-20
17.2531 	-0.261297 	0.872195 	3.11605 	6.48602e-20
17.3232 	-0.261297 	0.872195 	3.11605 	6.48602e-20
17.3933 	-0.261297 	0.872195 	3.11605 	6.48602e-20
17.4635 	-0.261297 	0.872195 	3.11605 	6.48602e-20
17.5336 	-0.169903 	0.913699 	3.03266 	-3.42441e-20
17.6037 	-0.169903 	0.913699 	3.03266 	-3.42441e-20
17.6739 	-0.169903 	0.913699 	3.03266 	-3.42441e-20
17.744 	-0.262006 	1.04275 	3.16268 	1.30654e-19
17.8141 	-0.262006 	1.04275 	3.16268 	1.30654e-19
17.8843 	-0.262006 	1.04275 	3.16268 	1.30654e-19
17.9544 	-0.262006 	1.04275 	3.16268 	1.30654e-19
18.0245 	-0.262006 	1.04275 	3.16268 	1.30654e-19
18.0947 	-0.262006 	1.04275 	3.16268 	1.30654e-19
18.1648 	-0.262006 	1.04275 	3.16268 	1.30654e-19
18.2349 	-0.262006 	1.04275 	3.16268 	1.30654e-19
18.3051 	-0.262006 	1.04275 	3.16268 	1.30654e-19
18.3752 	0.0264689 	1.00522 	2.76558 	-9.93501e-20
18.4453 	0.0264689 	1.00522 	2.76558 	-9.93501e-20
18.5155 	0.0264689 	1.00522 	2.76558 	-9.93501e-20
18.5856 	0.0264689 	1.00522 	2.76558 	-9.93501e-20
18.6557 	0.0264689 	1.00522 	2.76558 	-9.93501e-20
18.7259 	0.0264689 	1.00522 	2.76558 	-9.93501e-20
18.796 	0.0264689 	1.00522 	2.76558 	-9.93501e-20
18.8662 	0.0912903 	1.04268 	2.82282 	-1.72485e-19
18.9363 	0.0912903 	1.04268 	2.82282 	-1.72485e-19
19.0064 	0.0912903 	1.04268 	2.82282 	-1.72485e-19
19.0766 	0.0912903 	1.04268 	2.82282 	-1.72485e-19
19.1467 	0.0912903 	1.04268 	2.82282 	-1.72485e-19
19.2168 	0.0912903 	1.04268 	2.82282 	-1.72485e-19
19.287 	0.0912903 	1.04268 	2.82282 	-1.72485e-19
19.3571 	0.0912903 	1.04268 	2.82282 	-1.72485e-19
19.4272 	0.0912903 	1.04268 	2.82282 	-1.72485e-19
19.4974 	0.0912903 	1.04268 	2.82282 	-1.72485e-19
19.5675 	0.0912903 	1.04268 	2.82282 	-1.72485e-19
19.6376 	0.0912903 	1.04268 	2.82282 	-1.72485e-19
19.7078 	0.0912903 	1.04268 	2.82282 	-1.72485e-19
19.7779 	0.238049 	0.990881 	2.449 	-1.14738e-19
19.848 	0.238049 	0.990881 	2.449 	-1.14738e-19
19.9182 	0.238049 	0.990881 	2.449 	-1.14738e-19
19.9883 	0.238049 	0.990881 	2.449 	-1.14738e-19
20.0584 	0.238049 	0.990881 	2.449 	-1.14738e-19
20.1286 	0.238049 	0.990881 	2.449 	-1.14738e-19
20.1987 	0.238049 	0.990881 	2.449 	-1.14738e-19
20.2688 	0.232302 	0.995775 	2.44257 	3.06016e-19
20.339 	0.232302 	0.995775 	2.44257 	3.06016e-19
20.4091 	0.232302 	0.995775 	2.44257 	3.06016e-19
20.4792 	0.232302 	0.995775 	2.44257 	3.06016e-19
20.5494 	0.232302 	0.995775 	2.44257 	3.06016e-19
20.6195 	0.232302 	0.995775 	2.44257 	3.06016e-19
20.6896 	0.232302 	0.995775 	2.44257 	3.06016e-19
20.7598 	0.232302 	0.995775 	2.44257 	3.06016e-19
20.8299 	0.232302 	0.995775 	2.44257 	3.06016e-19
20.9 	0.232302 	0.995775 	2.44257 	3.06016e-19
20.9702 	0.232302 	0.995775 	2.44257 	3.06016e-19
21.0403 	0.232302 	0.995775 	2.44257 	3.06016e-19
21.1105 	0.232302 	0.995775 	2.44257 	3.06016e-19
21.1806 	0.232302 	0.995775 	2.44257 	3.06016e-19
21.2507 	0.232302 	0.995775 	2.44257 	3.06016e-19
21.3209 	0.232302 	0.995775 	2.44257 	3.06016e-19
21.391 	0.232302 	0.995775 	2.44257 	3.06016e-19
21.4611 	0.245729 	0.700519 	1.90742 	-4.14164e-19
21.5313 	0.245729 	0.700519 	1.90742 	-4.14164e-19
21.6014 	0.245729 	0.700519 	1.90742 	-4.14164e-19
21.6715 	0.139094 	0.613114 	1.40907 	-4.62894e-20
21.7417 	0.139094 	0.613114 	1.40907 	-4.62894e-20
21.8118 	0.139094 	0.613114 	1.40907 	-4.62894e-20
21.8819 	0.139094 	0.613114 	1.40907 	-4.62894e-20
21.9521 	0.139094 	0.613114 	1.40907 	-4.62894e-20
22.0222 	0.00797834 	0.932628 	2.34553 	1.0917e-19
22.0923 	0.00797834 	0.932628 	2.34553 	1.0917e-19
22.1625 	0.00797834 	0.932628 	2.34553 	1.0917e-19
22.2326 	0.00797834 	0.932628 	2.34553 	1.0917e-19
22.3027 	0.00797834 	0.932628 	2.34553 	1.0917e-19
22.3729 	0.00797834 	0.932628 	2.34553 	1.0917e-19
22.443 	0.00797834 	0.932628 	2.34553 	1.0917e-19
22.5131 	0.00797834 	0.932628 	2.34553 	1.0917e-19
22.5833 	0.00797834 	0.932628 	2.34553 	1.0917e-19
22.6534 	0.00797834 	0.932628 	2.34553 	1.0917e-19
22.7235 	0.00797834 	0.932628 	2.34553 	1.0917e-19
22.7937 	0.00797834 	0.932628 	2.34553 	1.0917e-19
22.8638 	0.00797834 	0.932628 	2.34553 	1.0917e-19
22.9339 	0.00797834 	0.932628 	2.34553 	1.0917e-19
23.0041 	0.00797834 	0.932628 	2.34553 	1.0917e-19
23.0742 	0.00797834 	0.932628 	2.34553 	1.0917e-19
23.1443 	0.00797834 	0.932628 	2.34553 	1.0917e-19
23.2145 	0.00797834 	0.932628 	2.34553 	1.0917e-19
23.2846 	0.00797834 	0.932628 	2.34553 	1.0917e-19
23.3548 	0.00797834 	0.932628 	2.34553 	1.0917e-19
23.4249 	0.00797834 	0.932628 	2.34553 	1.0917e-19
23.495 	0.19564 	0.900239 	2.32359 	-8.62327e-20
23.5652 	0.19564 	0.900239 	2.32359 	-8.62327e-20
23.6353 	0.19564 	0.900239 	2.32359 	-8.62327e-20
23.7054 	0.19564 	0.900239 	2.32359 	-8.62327e-20
23.7756 	0.19564 	0.900239 	2.32359 	-8.62327e-20
23.8457 	0.19564 	0.900239 	2.32359 	-8.62327e-20
23.9158 	0.19564 	0.900239 	2.32359 	-8.62327e-20
23.986 	0.324761 	0.839062 	2.18781 	3.93133e-21
24.0561 	0.324761 	0.839062 	2.18781 	3.93133e-21
24.1262 	0.324761 	0.839062 	2.18781 	3.93133e-21
24.1964 	0.324761 	0.839062 	2.18781 	3.93133e-21
24.2665 	0.324761 	0.839062 	2.18781 	3.93133e-21
24.3366 	0.324761 	0.839062 	2.18781 	3.93133e-21
24.4068 	0.324761 	0.839062 	2.18781 	3.93133e-21
24.4769 	0.324761 	0.839062 	2.18781 	3.93133e-21
24.547 	0.324761 	0.839062 	2.18781 	3.93133e-21
24.6172 	0.324761 	0.839062 	2.18781 	3.93133e-21
24.6873 	0.324761 	0.839062 	2.18781 	3.93133e-21
24.7574 	0.324761 	0.839062 	2.18781 	3.93133e-21
24.8276 	0.324761 	0.839062 	2.18781 	3.93133e-21
24.8977 	0.324761 	0.839062 	2.18781 	3.93133e-21
24.9678 	0.324761 	0.839062 	2.18781 	3.93133e-21
25.038 	0.324761 	0.839062 	2.18781 	3.93133e-21
25.1081 	0.324761 	0.839062 	2.18781 	3.93133e-21
25.1782 	0.2724 	0.496636 	1.35288 	0
25.2484 	0.2724 	0.496636 	1.35288 	0
25.3185 	0.2724 	0.496636 	1.35288 	0
25.3886 	0.2724 	0.496636 	1.35288 	0
25.4588 	0.2724 	0.496636 	1.35288 	0
25.5289 	0.2724 	0.496636 	1.35288 	0
25.5991 	0.2724 	0.496636 	1.35288 	0
25.6692 	0.2724 	0.496636 	1.35288 	0
25.7393 	0.2724 	0.496636 	1.35288 	0
25.8095 	0.2724 	0.496636 	1.35288 	0
25.8796 	0.2724 	0.496636 	1.35288 	0
25.9497 	0.2724 	0.496636 	1.35288 	0
26.0199 	0.2724 	0.496636 	1.35288 	0
26.09 	0.2724 	0.496636 	1.35288 	0
26.1601 	0.2724 	0.496636 	1.35288 	0
26.2303 	0.178531 	0.49574 	1.37128 	-2.93644e-19
26.3004 	0.178531 	0.49574 	1.37128 	-2.93644e-19
26.3705 	0.178531 	0.49574 	1.37128 	-2.93644e-19
26.4407 	0.178531 	0.49574 	1.37128 	-2.93644e-19
26.5108 	0.178531 	0.49574 	1.37128 	-2.93644e-19
26.5809 	0.178531 	0.49574 	1.37128 	-2.93644e-19
26.6511 	0.178531 	0.49574 	1.37128 	-2.93644e-19
26.7212 	0.178531 	0.49574 	1.37128 	-2.93644e-19
26.7913 	0.178531 	0.49574 	1.37128 	-2.93644e-19
26.8615 	0.178531 	0.49574 	1.37128 	-2.93644e-19
26.9316 	0.178531 	0.49574 	1.37128 	-2.93644e-19
27.0017 	0.178531 	0.49574 	1.37128 	-2.93644e-19
27.0719 	0.178531 	0.49574 	1.37128 	-2.93644e-19
27.142 	0.178531 	0.49574 	1.37128 	-2.93644e-19
27.2121 	0.178531 	0.49574 	1.37128 	-2.93644e-19
27.2823 	0.178531 	0.49574 	1.37128 	-2.93644e-19
27.3524 	0.119731 	0.489536 	1.37451 	3.21941e-19
27.4225 	0.119731 	0.489536 	1.37451 	3.21941e-19
27.4927 	0.119731 	0.489536 	1.37451 	3.21941e-19
27.5628 	0.119731 	0.489536 	1.37451 	3.21941e-19
27.6329 	0.119731 	0.489536 	1.37451 	3.21941e-19
27.7031 	0.119731 	0.489536 	1.37451 	3.21941e-19
27.7732 	0.119731 	0.489536 	1.37451 	3.21941e-19
27.8434 	0.119731 	0.489536 	1.37451 	3.21941e-19
27.9135 	0.119731 	0.489536 	1.37451 	3.21941e-19
27.9836 	0.119731 	0.489536 	1.37451 	3.21941e-19
28.0538 	0.119731 	0.489536 	1.37451 	3.21941e-19
28.1239 	0.119731 	0.489536 	1.37451 	3.21941e-19
28.194 	0.119731 	0.489536 	1.37451 	3.21941e-19
28.2642 	0.119731 	0.489536 	1.37451 	3.21941e-19
28.3343 	0.119731 	0.489536 	1.37451 	3.21941e-19
28.4044 	0.119731 	0.489536 	1.37451 	3.21941e-19
28.4746 	0.119731 	0.489536 	1.37451 	3.21941e-19
28.5447 	0.119731 	0.489536 	1.37451 	3.21941e-19
28.6148 	0.119731 	0.489536 	1.37451 	3.21941e-19
28.685 	0.119731 	0.489536 	1.37451 	3.21941e-19
28.7551 	0.119731 	0.489536 	1.37451 	3.21941e-19
28.8252 	0.119731 	0.489536 	1.37451 	3.21941e-19
28.8954 	0.119731 	0.489536 	1.37451 	3.21941e-19
28.9655 	0.0720459 	0.433663 	1.29184 	8.9537e-21
29.0356 	0.0720459 	0.433663 	1.29184 	8.9537e-21
29.1058 	0.0720459 	0.433663 	1.29184 	8.9537e-21
29.1759 	0.0720459 	0.433663 	1.29184 	8.9537e-21
29.246 	0.0720459 	0.433663 	1.29184 	8.9537e-21
29.3162 	0.0720459 	0.433663 	1.29184 	8.9537e-21
29.3863 	0.0720459 	0.433663 	1.29184 	8.9537e-21
29.4564 	0.0720459 	0.433663 	1.29184 	8.9537e-21
29.5266 	0.0720459 	0.433663 	1.29184 	8.9537e-21
29.5967 	0.0720459 	0.433663 	1.29184 	8.9537e-21
29.6668 	0.0720459 	0.433663 	1.29184 	8.9537e-21
29.737 	0.0720459 	0.433663 	1.29184 	8.9537e-21
29.8071 	0.0720459 	0.433663 	1.29184 	8.9537e-21
29.8773 	0.0720459 	0.433663 	1.29184 	8.9537e-21
29.9474 	0.0720459 	0.433663 	1.29184 	8.9537e-21
30.0175 	0.0720459 	0.433663 	1.29184 	8.9537e-21
30.0877 	0.0720459 	0.433663 	1.29184 	8.9537e-21
30.1578 	0.0720459 	0.433663 	1.29184 	8.9537e-21
30.2279 	0.0720459 	0.433663 	1.29184 	8.9537e-21
30.2981 	0.0720459 	0.433663 	1.29184 	8.9537e-21
30.3682 	0.0720459 	0.433663 	1.29184 	8.9537e-21
30.4383 	0.0720459 	0.433663 	1.29184 	8.9537e-21
30.5085 	0.0720459 	0.433663 	1.29184 	8.9537e-21
30.5786 	0.0720459 	0.433663 	1.29184 	8.9537e-21
30.6487 	0.0720459 	0.433663 	1.29184 	8.9537e-21
30.7189 	0.0720459 	0.433663 	1.29184 	8.9537e-21
30.789 	0.0676944 	0.366293 	1.29735 	-1.0343e-19
30.8591 	0.0676944 	0.366293 	1.29735 	-1.0343e-19
30.9293 	0.0676944 	0.366293 	1.29735 	-1.0343e-19
30.9994 	0.0676944 	0.366293 	1.29735 	-1.0343e-19
31.0695 	0.0676944 	0.366293 	1.29735 	-1.0343e-19
31.1397 	0.0676944 	0.366293 	1.29735 	-1.0343e-19
31.2098 	0.0676944 	0.366293 	1.29735 	-1.0343e-19
31.2799 	0.0676944 	0.366293 	1.29735 	-1.0343e-19
31.3501 	0.0676944 	0.366293 	1.29735 	-1.0343e-19
31.4202 	0.0676944 	0.366293 	1.29735 	-1.0343e-19
31.4903 	0.0676944 	0.366293 	1.29735 	-1.0343e-19
31.5605 	0.0676944 	0.366293 	1.29735 	-1.0343e-19
31.6306 	0.0676944 	0.366293 	1.29735 	-1.0343e-19
31.7007 	0.0676944 	0.366293 	1.29735 	-1.0343e-19
31.7709 	0.0676944 	0.366293 	1.29735 	-1.0343e-19
31.841 	0.0676944 	0.366293 	1.29735 	-1.0343e-19
31.9111 	0.0676944 	0.366293 	1.29735 	-1.0343e-19
31.9813 	0.0676944 	0.366293 	1.29735 	-1.0343e-19
32.0514 	0.0676944 	0.366293 	1.29735 	-1.0343e-19
32.1216 	0.0676944 	0.366293 	1.29735 	-1.0343e-19
32.1917 	0.0676944 	0.366293 	1.29735 	-1.0343e-19
32.2618 	0.0676944 	0.366293 	1.29735 	-1.0343e-19
32.332 	0.0676944 	0.366293 	1.29735 	-1.0343e-19
32.4021 	0.0676944 	0.366293 	1.29735 	-1.0343e-19
32.4722 	0.0676944 	0.366293 	1.29735 	-1.0343e-19
32.5424 	0.0676944 	0.366293 	1.29735 	-1.0343e-19
32.6125 	0.0676944 	0.366293 	1.29735 	-1.0343e-19
32.6826 	0.0676944 	0.366293 	1.29735 	-1.0343e-19
32.7528 	0.0676944 	0.366293 	1.29735 	-1.0343e-19
32.8229 	0.0676944 	0.366293 	1.29735 	-1.0343e-19
32.893 	0.0676944 	0.366293 	1.29735 	-1.0343e-19
32.9632 	0.0676944 	0.366293 	1.29735 	-1.0343e-19
33.0333 	0.0676944 	0.366293 	1.29735 	-1.0343e-19
33.1034 	0.0676944 	0.366293 	1.29735 	-1.0343e-19
33.1736 	0.0676944 	0.366293 	1.29735 	-1.0343e-19
33.2437 	0.0676944 	0.366293 	1.29735 	-1.0343e-19
33.3138 	0.0676944 	0.366293 	1.29735 	-1.0343e-19
33.384 	0.0676944 	0.366293 	1.29735 	-1.0343e-19
33.4541 	0.0676944 	0.366293 	1.29735 	-1.0343e-19
33.5242 	0.0676944 	0.366293 	1.29735 	-1.0343e-19
33.5944 	0.0676944 	0.366293 	1.29735 	-1.0343e-19
33.6645 	0.0676944 	0.366293 	1.29735 	-1.0343e-19
33.7346 	0.0292885 	0.36427 	1.36877 	5.57399e-20
33.8048 	0.0292885 	0.36427 	1.36877 	5.57399e-20
33.8749 	0.0292885 	0.36427 	1.36877 	5.57399e-20
33.945 	0.0292885 	0.36427 	1.36877 	5.57399e-20
34.0152 	0.0292885 	0.36427 	1.36877 	5.57399e-20
34.0853 	0.0292885 	0.36427 	1.36877 	5.57399e-20
34.1554 	0.0266715 	0.272069 	1.32314 	-1.24596e-19
34.2256 	0.0266715 	0.272069 	1.32314 	-1.24596e-19
34.2957 	0.0266715 	0.272069 	1.32314 	-1.24596e-19
34.3659 	0.0266715 	0.272069 	1.32314 	-1.24596e-19
34.436 	0.0266715 	0.272069 	1.32314 	-1.24596e-19
34.5061 	0.0266715 	0.272069 	1.32314 	-1.24596e-19
34.5763 	0.0266715 	0.272069 	1.32314 	-1.24596e-19
34.6464 	0.0266715 	0.272069 	1.32314 	-1.24596e-19
34.7165 	0.228451 	0.260544 	1.6165 	1.29574e-19
34.7867 	0.228451 	0.260544 	1.6165 	1.29574e-19
34.8568 	0.228451 	0.260544 	1.6165 	1.29574e-19
34.9269 	0.228451 	0.260544 	1.6165 	1.29574e-19
34.9971 	0.228451 	0.260544 	1.6165 	1.29574e-19
35.0672 	0.228451 	0.260544 	1.6165 	1.29574e-19
35.1373 	0.228451 	0.260544 	1.6165 	1.29574e-19
35.2075 	0.228451 	0.260544 	1.6165 	1.29574e-19
35.2776 	0.228451 	0.260544 	1.6165 	1.29574e-19
35.3477 	0.228451 	0.260544 	1.6165 	1.29574e-19
35.4179 	0.228451 	0.260544 	1.6165 	1.29574e-19
35.488 	0.228451 	0.260544 	1.6165 	1.29574e-19
35.5581 	0.228451 	0.260544 	1.6165 	1.29574e-19
35.6283 	0.228451 	0.260544 	1.6165 	1.29574e-19
35.6984 	0.228451 	0.260544 	1.6165 	1.29574e-19
35.7685 	0.228451 	0.260544 	1.6165 	1.29574e-19
35.8387 	0.228451 	0.260544 	1.6165 	1.29574e-19
35.9088 	0.228451 	0.260544 	1.6165 	1.29574e-19
35.9789 	0.228451 	0.260544 	1.6165 	1.29574e-19
36.0491 	0.203286 	0.23978 	1.57696 	0
36.1192 	0.203286 	0.23978 	1.57696 	0
36.1893 	0.203286 	0.23978 	1.57696 	0
36.2595 	0.203286 	0.23978 	1.57696 	0
36.3296 	0.203286 	0.23978 	1.57696 	0
36.3997 	0.203286 	0.23978 	1.57696 	0
36.4699 	0.203286 	0.23978 	1.57696 	0
36.54 	0.203286 	0.23978 	1.57696 	0
36.6102 	0.203286 	0.23978 	1.57696 	0
36.6803 	0.203286 	0.23978 	1.57696 	0
36.7504 	0.203286 	0.23978 	1.57696 	0
36.8206 	0.203286 	0.23978 	1.57696 	0
36.8907 	0.0770357 	0.186337 	1.45106 	8.6487e-20
36.9608 	0.0770357 	0.186337 	1.45106 	8.6487e-20
37.031 	0.0770357 	0.186337 	1.45106 	8.6487e-20
37.1011 	0.0770357 	0.186337 	1.45106 	8.6487e-20
37.1712 	0.0770357 	0.186337 	1.45106 	8.6487e-20
37.2414 	0.0770357 	0.186337 	1.45106 	8.6487e-20
37.3115 	0.0770357 	0.186337 	1.45106 	8.6487e-20
37.3816 	0.0770357 	0.186337 	1.45106 	8.6487e-20
37.4518 	0.0770357 	0.186337 	1.45106 	8.6487e-20
37.5219 	0.0770357 	0.186337 	1.45106 	8.6487e-20
37.592 	0.0770357 	0.186337 	1.45106 	8.6487e-20
37.6622 	0.0770357 	0.186337 	1.45106 	8.6487e-20
37.7323 	0.0770357 	0.186337 	1.45106 	8.6487e-20
37.8024 	0.0770357 	0.186337 	1.45106 	8.6487e-20
37.8726 	0.0770357 	0.186337 	1.45106 	8.6487e-20
37.9427 	0.0770357 	0.186337 	1.45106 	8.6487e-20
38.0128 	0.0770357 	0.186337 	1.45106 	8.6487e-20
38.083 	0.0770357 	0.186337 	1.45106 	8.6487e-20
38.1531 	0.0770357 	0.186337 	1.45106 	8.6487e-20
38.2232 	0.101683 	0.130424 	1.59393 	-9.91774e-20
38.2934 	0.101683 	0.130424 	1.59393 	-9.91774e-20
38.3635 	0.101683 	0.130424 	1.59393 	-9.91774e-20
38.4336 	0.101683 	0.130424 	1.59393 	-9.91774e-20
38.5038 	0.101683 	0.130424 	1.59393 	-9.91774e-20
38.5739 	0.101683 	0.130424 	1.59393 	-9.91774e-20
38.644 	0.101683 	0.130424 	1.59393 	-9.91774e-20
38.7142 	0.101683 	0.130424 	1.59393 	-9.91774e-20
38.7843 	0.101683 	0.130424 	1.59393 	-9.91774e-20
38.8545 	0.101683 	0.130424 	1.59393 	-9.91774e-20
38.9246 	0.101683 	0.130424 	1.59393 	-9.91774e-20
38.9947 	0.101683 	0.130424 	1.59393 	-9.91774e-20
39.0649 	0.101683 	0.130424 	1.59393 	-9.91774e-20
39.135 	0.101683 	0.130424 	1.59393 	-9.91774e-20
39.2051 	0.0646538 	0.115261 	1.56649 	0
39.2753 	0.0646538 	0.115261 	1.56649 	0
39.3454 	0.0646538 	0.115261 	1.56649 	0
39.4155 	0.0646538 	0.115261 	1.56649 	0
39.4857 	0.0646538 	0.115261 	1.56649 	0
39.5558 	0.0646538 	0.115261 	1.56649 	0
39.6259 	0.0646538 	0.115261 	1.56649 	0
39.6961 	0.0646538 	0.115261 	1.56649 	0
39.7662 	0.0646538 	0.115261 	1.56649 	0
39.8363 	0.0646538 	0.115261 	1.56649 	0
39.9065 	0.0646538 	0.115261 	1.56649 	0
39.9766 	0.0646538 	0.115261 	1.56649 	0
40.0467 	0.0646538 	0.115261 	1.56649 	0
40.1169 	0.0646538 	0.115261 	1.56649 	0
40.187 	0.0646538 	0.115261 	1.56649 	0
40.2571 	0.0646538 	0.115261 	1.56649 	0
40.3273 	0.0646538 	0.115261 	1.56649 	0
40.3974 	0.0646538 	0.115261 	1.56649 	0
40.4675 	0.0646538 	0.115261 	1.56649 	0
40.5377 	0.0646538 	0.115261 	1.56649 	0
40.6078 	0.0646538 	0.115261 	1.56649 	0
40.6779 	0.049536 	0.111705 	1.50922 	-2.90042e-20
40.7481 	0.049536 	0.111705 	1.50922 	-2.90042e-20
40.8182 	0.049536 	0.111705 	1.50922 	-2.90042e-20
40.8883 	0.049536 	0.111705 	1.50922 	-2.90042e-20
40.9585 	0.049536 	0.111705 	1.50922 	-2.90042e-20
41.0286 	0.049536 	0.111705 	1.50922 	-2.90042e-20
41.0988 	0.049536 	0.111705 	1.50922 	-2.90042e-20
41.1689 	0.049536 	0.111705 	1.50922 	-2.90042e-20
41.239 	0.050108 	0.0890236 	1.52707 	5.44135e-20
41.3092 	0.050108 	0.0890236 	1.52707 	5.44135e-20
41.3793 	0.050108 	0.0890236 	1.52707 	5.44135e-20
41.4494 	0.050108 	0.0890236 	1.52707 	5.44135e-20
41.5196 	0.050108 	0.0890236 	1.52707 	5.44135e-20
41.5897 	0.050108 	0.0890236 	1.52707 	5.44135e-20
41.6598 	0.050108 	0.0890236 	1.52707 	5.44135e-20
41.73 	0.050108 	0.0890236 	1.52707 	5.44135e-20
41.8001 	0.050108 	0.0890236 	1.52707 	5.44135e-20
41.8702 	0.050108 	0.0890236 	1.52707 	5.44135e-20
41.9404 	0.050108 	0.0890236 	1.52707 	5.44135e-20
42.0105 	0.050108 	0.0890236 	1.52707 	5.44135e-20
42.0806 	0.050108 	0.0890236 	1.52707 	5.44135e-20
42.1508 	0.050108 	0.0890236 	1.52707 	5.44135e-20
42.2209 	0.050108 	0.0890236 	1.52707 	5.44135e-20
42.291 	0.050108 	0.0890236 	1.52707 	5.44135e-20
42.3612 	0.050108 	0.0890236 	1.52707 	5.44135e-20
42.4313 	0.050108 	0.0890236 	1.52707 	5.44135e-20
42.5014 	0.050108 	0.0890236 	1.52707 	5.44135e-20
42.5716 	0.050108 	0.0890236 	1.52707 	5.44135e-20
42.6417 	0.050108 	0.0890236 	1.52707 	5.44135e-20
42.7118 	0.0381185 	0.0867775 	1.50898 	0
42.782 	0.0381185 	0.0867775 	1.50898 	0
42.8521 	0.0381185 	0.0867775 	1.50898 	0
42.9222 	0.0381185 	0.0867775 	1.50898 	0
42.9924 	0.0559239 	0.045654 	1.57441 	0
43.0625 	0.0559239 	0.045654 	1.57441 	0
43.1327 	0.0559239 	0.045654 	1.57441 	0
43.2028 	0.0559239 	0.045654 	1.57441 	0
43.2729 	0.0559239 	0.045654 	1.57441 	0
43.3431 	0.0559239 	0.045654 	1.57441 	0
43.4132 	0.0559239 	0.045654 	1.57441 	0
43.4833 	0.0559239 	0.045654 	1.57441 	0
43.5535 	0.0559239 	0.045654 	1.57441 	0
43.6236 	0.0559239 	0.045654 	1.57441 	0
43.6937 	0.0559239 	0.045654 	1.57441 	0
43.7639 	0.0559239 	0.045654 	1.57441 	0
43.834 	0.0559239 	0.045654 	1.57441 	0
43.9041 	0.0559239 	0.045654 	1.57441 	0
43.9743 	0.0559239 	0.045654 	1.57441 	0