/*--------------------------------*- C++ -*----------------------------------*\
| =========                 |                                                 |
| \\      /  F ield         | OpenFOAM: The Open Source CFD Toolbox           |
|  \\    /   O peration     | Version:  2306                                  |
|   \\  /    A nd           | Website:  www.openfoam.com                      |
|    \\/     M anipulation  |                                                 |
\*---------------------------------------------------------------------------*/
FoamFile
{
    version     2.0;
    format      ascii;
    arch        "LSB;label=32;scalar=64";
    class       volScalarField;
    location    "27";
    object      p;
}
// * * * * * * * * * * * * * * * * * * * * * * * * * * * * * * * * * * * * * //

dimensions      [0 2 -2 0 0 0 0];

internalField   nonuniform List<scalar> 
8800
(
0.579103
0.531051
0.49267
0.464022
0.443385
0.42861
0.417975
0.410428
0.405526
0.403367
0.404523
0.408622
0.415202
0.42447
0.437176
0.454732
0.479153
0.512748
0.555178
0.6123
0.411642
0.418846
0.42728
0.43069
0.428766
0.423229
0.416496
0.4103
0.405486
0.402544
0.40215
0.404541
0.408952
0.414869
0.421717
0.428291
0.432392
0.431861
0.425777
0.416786
0.388367
0.394544
0.39874
0.402096
0.404587
0.405367
0.404229
0.402037
0.399929
0.398904
0.39974
0.402013
0.404742
0.406877
0.407346
0.405766
0.402878
0.39921
0.394663
0.390874
0.383263
0.385964
0.388685
0.390993
0.392632
0.39394
0.394818
0.394971
0.394622
0.394457
0.395063
0.396084
0.396752
0.396589
0.395713
0.394453
0.392653
0.390113
0.387664
0.386133
0.378113
0.379536
0.381343
0.383404
0.385155
0.386448
0.38744
0.388252
0.388838
0.389297
0.389767
0.39005
0.389935
0.389463
0.388663
0.387372
0.385601
0.383662
0.382308
0.381487
0.373166
0.37408
0.375332
0.376931
0.378597
0.380121
0.381368
0.382386
0.383277
0.384035
0.384512
0.384608
0.384364
0.383769
0.382755
0.381413
0.379956
0.378606
0.377746
0.377207
0.36839
0.369054
0.370036
0.37137
0.372814
0.374304
0.375747
0.377025
0.378123
0.379054
0.379626
0.37973
0.379403
0.378667
0.377647
0.376511
0.375347
0.374312
0.373682
0.373291
0.363769
0.364277
0.365094
0.366281
0.367612
0.369029
0.370505
0.371965
0.373293
0.374413
0.375124
0.375271
0.374911
0.374208
0.373326
0.37236
0.371381
0.370545
0.370059
0.36976
0.35927
0.359667
0.360365
0.361449
0.362725
0.364096
0.365552
0.367071
0.368578
0.369937
0.370817
0.371059
0.370825
0.370292
0.369579
0.368761
0.367926
0.367245
0.366867
0.366634
0.354843
0.355154
0.35577
0.356799
0.358048
0.359406
0.360872
0.362444
0.364087
0.365676
0.366792
0.367253
0.367235
0.366901
0.366357
0.365683
0.364966
0.3644
0.364104
0.363923
0.350467
0.35071
0.351264
0.35226
0.353504
0.354905
0.356465
0.358151
0.359936
0.361752
0.363195
0.363989
0.364231
0.364069
0.36366
0.363119
0.362518
0.362056
0.361829
0.361688
0.346098
0.346282
0.346797
0.347797
0.349077
0.350531
0.352181
0.354059
0.356142
0.358314
0.360138
0.361228
0.361706
0.361766
0.361551
0.361139
0.360639
0.360259
0.360091
0.359985
0.341738
0.341862
0.342331
0.343308
0.344595
0.346082
0.347791
0.349776
0.352079
0.354661
0.356966
0.358539
0.359454
0.359883
0.359939
0.359742
0.359401
0.359133
0.35903
0.358956
0.337402
0.33748
0.337904
0.338855
0.340167
0.341746
0.343633
0.345911
0.348604
0.351698
0.354609
0.356721
0.358033
0.358765
0.359119
0.359147
0.358999
0.358868
0.358826
0.358775
0.332915
0.33297
0.333339
0.334219
0.335505
0.33713
0.339158
0.341704
0.344865
0.348629
0.35228
0.355033
0.356937
0.358158
0.358879
0.359272
0.359426
0.359481
0.359498
0.359454
0.327852
0.327899
0.328252
0.329096
0.330416
0.332166
0.33445
0.337404
0.341145
0.34572
0.350299
0.353889
0.356431
0.35819
0.359404
0.360167
0.360609
0.360836
0.360899
0.360852
0.321928
0.321973
0.322338
0.323227
0.324678
0.326672
0.329334
0.332856
0.337412
0.343051
0.348748
0.353285
0.356594
0.358954
0.360621
0.361757
0.36249
0.362868
0.362967
0.362913
0.314826
0.314871
0.315307
0.316306
0.317977
0.320321
0.323501
0.327761
0.33332
0.340272
0.34737
0.353083
0.357298
0.360354
0.362556
0.364105
0.365127
0.365643
0.365769
0.365706
0.306215
0.306263
0.306789
0.308018
0.310048
0.312917
0.31684
0.322131
0.329036
0.337656
0.346451
0.353536
0.358785
0.362613
0.365395
0.367374
0.368669
0.369298
0.369458
0.369387
0.295736
0.295788
0.296451
0.29799
0.300533
0.304129
0.309065
0.315693
0.324318
0.335024
0.34589
0.354609
0.361067
0.365816
0.369274
0.371754
0.373339
0.374095
0.37429
0.374208
0.282895
0.282949
0.283783
0.285765
0.289044
0.29366
0.299962
0.308368
0.319194
0.332484
0.34584
0.356518
0.364427
0.370212
0.374487
0.37747
0.379383
0.380287
0.380527
0.38043
0.267053
0.267108
0.26818
0.270773
0.275071
0.281095
0.289249
0.299994
0.313615
0.330074
0.346405
0.35937
0.368962
0.376002
0.381157
0.384776
0.387055
0.388151
0.388441
0.388326
0.247211
0.247288
0.248727
0.25218
0.257907
0.265908
0.276592
0.290426
0.307598
0.327908
0.347728
0.363337
0.374876
0.383357
0.389546
0.393894
0.396619
0.397935
0.398271
0.398129
0.221631
0.221759
0.223821
0.228688
0.236576
0.247445
0.261694
0.279632
0.301258
0.326166
0.349996
0.368582
0.382301
0.392407
0.399793
0.404993
0.408268
0.409831
0.410206
0.410029
0.187336
0.18762
0.190974
0.198434
0.209936
0.225183
0.244445
0.267755
0.29485
0.325108
0.35342
0.375262
0.391353
0.403245
0.411993
0.418204
0.422127
0.423956
0.424354
0.424129
0.138575
0.139793
0.146571
0.159382
0.177136
0.19906
0.225188
0.255262
0.288809
0.325056
0.358195
0.383465
0.402041
0.415834
0.42609
0.433487
0.438171
0.440289
0.440684
0.440397
0.0663665
0.0742452
0.0898295
0.112427
0.139573
0.170404
0.20491
0.242779
0.283518
0.326361
0.364816
0.393927
0.415369
0.431446
0.443628
0.452628
0.458456
0.461176
0.461744
0.461543
-0.0108205
0.00674911
0.0319225
0.064873
0.101705
0.14162
0.184621
0.230529
0.278934
0.329198
0.374091
0.408176
0.433489
0.452698
0.467551
0.478904
0.486322
0.489849
0.490869
0.490862
-0.0747982
-0.0542021
-0.0211159
0.0203694
0.0657938
0.114205
0.165394
0.219128
0.274989
0.332344
0.383248
0.421829
0.450553
0.472485
0.489466
0.502375
0.511205
0.51554
0.516338
0.516435
-0.126885
-0.104264
-0.0661009
-0.0185597
0.0335779
0.0890669
0.147436
0.208277
0.271055
0.335032
0.391422
0.433937
0.465473
0.489452
0.508009
0.522102
0.532002
0.536664
0.537629
0.537827
-0.16997
-0.146273
-0.104569
-0.052257
0.00522407
0.0664953
0.130946
0.198032
0.267024
0.337013
0.398329
0.444227
0.478039
0.503618
0.523326
0.538293
0.548718
0.553854
0.555159
0.555386
-0.2068
-0.182472
-0.138062
-0.0820277
-0.020076
0.0460886
0.115777
0.188337
0.262889
0.338305
0.404035
0.452876
0.488568
0.515359
0.535845
0.551367
0.561965
0.567463
0.569001
0.569235
-0.239308
-0.21457
-0.168069
-0.108916
-0.0432081
0.0271924
0.101508
0.178964
0.258556
0.338953
0.408738
0.460231
0.497528
0.525247
0.546212
0.561968
0.572701
0.578335
0.57997
0.580149
-0.268913
-0.243811
-0.195597
-0.133765
-0.0648311
0.00927862
0.0877171
0.169617
0.253863
0.338945
0.412589
0.466588
0.505365
0.533875
0.555205
0.571057
0.581826
0.587501
0.589237
0.589395
-0.296488
-0.271058
-0.221331
-0.157242
-0.0854578
-0.00805488
0.0740835
0.160047
0.248644
0.338202
0.41563
0.472137
0.512383
0.541696
0.563421
0.579417
0.590192
0.595838
0.597643
0.597803
-0.322738
-0.296933
-0.245803
-0.179762
-0.105433
-0.025097
0.0603786
0.150072
0.242748
0.33663
0.417845
0.476947
0.5188
0.549045
0.571242
0.58743
0.598243
0.603791
0.605575
0.605758
-0.347963
-0.321744
-0.269527
-0.201601
-0.124987
-0.0420305
0.0464587
0.139573
0.236077
0.334162
0.419232
0.481141
0.524815
0.556146
0.578948
0.595422
0.606314
0.611804
0.61347
0.613591
-0.372507
-0.345739
-0.292569
-0.222924
-0.144292
-0.0589845
0.0322373
0.128486
0.228576
0.330754
0.419807
0.484755
0.53047
0.563098
0.586666
0.60354
0.61455
0.619978
0.621491
0.621528
-0.396434
-0.369269
-0.315034
-0.24386
-0.163426
-0.0760066
0.0176756
0.116788
0.220224
0.326376
0.419477
0.487699
0.535766
0.569932
0.594434
0.6118
0.622935
0.628266
0.629645
0.62957
-0.419844
-0.392158
-0.337016
-0.264457
-0.182404
-0.0931018
0.00277833
0.104479
0.211007
0.320941
0.418116
0.489897
0.540656
0.576644
0.602254
0.620186
0.631425
0.636593
0.637796
0.637627
-0.442806
-0.414548
-0.358513
-0.284712
-0.201226
-0.110248
-0.0124163
0.091593
0.200923
0.314408
0.415653
0.491225
0.545042
0.583203
0.610131
0.628677
0.639968
0.644866
0.645852
0.645609
-0.46532
-0.436439
-0.37953
-0.304599
-0.219836
-0.127395
-0.0278496
0.078185
0.190015
0.306779
0.411999
0.491513
0.548774
0.589557
0.6181
0.637285
0.648465
0.652965
0.653697
0.653389
-0.487219
-0.45776
-0.400021
-0.32408
-0.238185
-0.144465
-0.0434487
0.0643473
0.178367
0.298088
0.407063
0.490599
0.551639
0.595598
0.626241
0.646148
0.656919
0.660741
0.66115
0.660793
-0.508461
-0.478456
-0.41995
-0.343094
-0.256211
-0.161391
-0.059111
0.0501721
0.166071
0.288367
0.400808
0.488315
0.553381
0.601108
0.634632
0.655642
0.665603
0.668135
0.668033
0.667669
-0.529107
-0.498482
-0.439278
-0.361598
-0.273844
-0.178084
-0.0747425
0.0357698
0.153226
0.277703
0.393212
0.484524
0.553692
0.605686
0.643159
0.666368
0.675506
0.67565
0.674263
0.673994
-0.548986
-0.517827
-0.457944
-0.379523
-0.291021
-0.194459
-0.0902464
0.0212544
0.13996
0.266219
0.384301
0.479117
0.552269
0.608712
0.651223
0.678623
0.688594
0.685932
0.681233
0.679881
-0.568179
-0.536483
-0.475964
-0.396896
-0.307775
-0.210563
-0.10568
0.00656519
0.126205
0.253842
0.373947
0.471841
0.548801
0.609387
0.657525
0.691485
0.706148
0.704846
0.693818
0.680663
-0.586617
-0.554443
-0.493471
-0.413906
-0.324397
-0.226731
-0.12146
-0.00878959
0.111401
0.239901
0.361451
0.461811
0.542595
0.606472
0.659261
0.700601
0.720947
0.715038
0.699382
0.685224
-0.604137
-0.571734
-0.510296
-0.430326
-0.340621
-0.242636
-0.137362
-0.0244741
0.0958784
0.224705
0.347011
0.448713
0.533221
0.599153
0.651324
0.693498
0.715952
0.698681
0.629225
0.595763
-0.620297
-0.589531
-0.526048
-0.445573
-0.355735
-0.257777
-0.153101
-0.0402427
0.0798876
0.208425
0.330682
0.432379
0.519801
0.587859
0.630014
0.662519
0.668202
0.619619
0.546738
0.502177
-0.669932
-0.605916
-0.540457
-0.460657
-0.370908
-0.273364
-0.168658
-0.056304
0.0631403
0.190695
0.312013
0.412577
0.499269
0.574238
0.582876
0.594288
0.562426
0.499207
0.421096
0.377449
-0.636672
-0.620036
-0.561543
-0.482525
-0.393265
-0.296122
-0.192389
-0.0810366
0.0369104
0.162203
0.280434
0.377839
0.455463
0.530458
0.530847
0.424218
0.320846
0.249119
0.175211
0.213583
-0.66759
-0.637845
-0.578244
-0.499565
-0.410472
-0.313722
-0.20996
-0.0994358
0.0171851
0.140279
0.255168
0.348414
0.418102
0.457998
0.413757
0.267364
0.138009
0.0462698
-0.0539852
0.00376558
-0.690985
-0.658767
-0.59758
-0.518623
-0.42959
-0.33301
-0.229496
-0.11998
-0.00499981
0.115356
0.226121
0.313645
0.373332
0.381171
0.275755
0.0969989
-0.0607539
-0.183211
-0.316594
-0.272507
-0.713734
-0.680174
-0.617789
-0.538097
-0.448939
-0.352532
-0.249625
-0.141242
-0.028085
0.0891972
0.19509
0.27614
0.321189
0.294591
0.132435
-0.0739616
-0.272811
-0.453681
-0.650868
-0.644674
-0.735793
-0.70196
-0.638735
-0.558396
-0.469067
-0.37289
-0.270703
-0.16356
-0.0524578
0.0614261
0.161908
0.235796
0.263032
0.20075
-0.00485196
-0.231102
-0.460952
-0.661634
-0.935813
-1.2244
-0.758061
-0.724324
-0.660668
-0.579888
-0.490384
-0.394389
-0.29285
-0.18696
-0.0779893
0.0323309
0.127216
0.193027
0.202283
0.0882344
-0.125386
-0.356075
-0.58359
-0.767208
-0.853799
-0.999359
-0.781363
-0.747695
-0.68387
-0.60289
-0.51334
-0.417614
-0.316812
-0.212334
-0.1058
0.000509415
0.0893356
0.145543
0.129448
-0.0260222
-0.233133
-0.448349
-0.636495
-0.741598
-0.766102
-0.786091
-0.805993
-0.772399
-0.708476
-0.627457
-0.53803
-0.442725
-0.342881
-0.240103
-0.136417
-0.0347278
0.0475593
0.0918908
0.052014
-0.132308
-0.330848
-0.520251
-0.665995
-0.712081
-0.726723
-0.728703
-0.832145
-0.79851
-0.734516
-0.653544
-0.564359
-0.469676
-0.371017
-0.270249
-0.169841
-0.0733866
0.00182877
0.0321571
-0.0273598
-0.232245
-0.421532
-0.590173
-0.689425
-0.70423
-0.706191
-0.706219
-0.859786
-0.82609
-0.76198
-0.681097
-0.592286
-0.49839
-0.401149
-0.302707
-0.205991
-0.115336
-0.0480031
-0.0312995
-0.122337
-0.324013
-0.505823
-0.645792
-0.689842
-0.695102
-0.695484
-0.694823
-0.888596
-0.854725
-0.79075
-0.709974
-0.621658
-0.528734
-0.433152
-0.337343
-0.244738
-0.160358
-0.101481
-0.0992764
-0.223028
-0.410298
-0.576471
-0.67744
-0.684931
-0.687275
-0.688215
-0.68783
-0.91798
-0.884094
-0.820453
-0.739903
-0.652219
-0.560453
-0.466755
-0.373891
-0.285754
-0.208165
-0.157423
-0.175603
-0.317167
-0.488653
-0.637401
-0.679015
-0.689876
-0.686372
-0.682967
-0.681956
-0.947575
-0.913861
-0.85047
-0.770438
-0.683544
-0.593122
-0.501535
-0.411904
-0.328517
-0.258111
-0.215361
-0.251245
-0.413336
-0.560136
-0.675799
-0.722172
-0.701557
-0.687467
-0.681827
-0.67949
-0.976341
-0.943218
-0.880221
-0.800898
-0.715016
-0.626142
-0.536872
-0.450686
-0.372314
-0.30907
-0.27622
-0.326096
-0.512155
-0.638012
-0.680312
-0.690503
-0.69916
-0.696553
-0.6927
-0.691224
-1.00311
-0.970658
-0.908888
-0.830446
-0.745777
-0.658675
-0.571915
-0.489239
-0.416142
-0.35998
-0.336834
-0.398923
-0.607037
-0.777509
-0.720833
-0.738773
-0.775773
-0.790028
-0.786688
-0.781197
-1.02645
-0.995132
-0.935114
-0.857952
-0.774803
-0.689653
-0.605551
-0.526335
-0.458409
-0.409851
-0.392226
-0.477545
-0.694177
-0.994633
-1.27519
-1.10456
-0.995356
-0.981258
-0.969537
-0.958957
-1.04463
-1.01515
-0.95726
-0.882068
-0.800829
-0.717809
-0.636344
-0.560561
-0.496979
-0.456352
-0.442508
-0.550459
-0.75784
-0.97225
-1.18487
-1.11245
-1.10792
-1.09585
-1.09169
-1.09092
-1.056
-1.02904
-0.974027
-0.901246
-0.822303
-0.741656
-0.66269
-0.59009
-0.529795
-0.495237
-0.491545
-0.601043
-0.728703
-0.524875
-0.207915
-0.660574
-1.06981
-1.15286
-1.14907
-1.14665
-1.05849
-1.03508
-0.983828
-0.914067
-0.837735
-0.759633
-0.682974
-0.612336
-0.554858
-0.523203
-0.533498
-0.660365
-0.844882
-0.855197
-0.954365
-1.29787
-1.37064
-1.2807
-1.18672
-1.20584
-1.05107
-1.03168
-0.985145
-0.919316
-0.845934
-0.770293
-0.695445
-0.625471
-0.568468
-0.537576
-0.559889
-0.766574
-1.31371
-2.20526
-2.88018
-3.24838
-3.06437
-2.59244
-2.17478
-2.02802
-1.03202
-1.01668
-0.976889
-0.916225
-0.846192
-0.772765
-0.698782
-0.628147
-0.566791
-0.529317
-0.541739
-0.775705
-1.40798
-2.27833
-2.9068
-3.18377
-3.0979
-2.8235
-2.49681
-2.32739
-1.00279
-0.991999
-0.959428
-0.905095
-0.838624
-0.767059
-0.692787
-0.618914
-0.550024
-0.492008
-0.474813
-0.538342
-0.804145
-1.04811
-1.22845
-1.13462
-0.878423
-0.608899
-0.400066
-0.294664
-0.96681
-0.960224
-0.935567
-0.887857
-0.824911
-0.754423
-0.678933
-0.599308
-0.518685
-0.434502
-0.347985
-0.211343
-0.0247632
0.355843
0.830524
1.30523
1.69012
1.93147
2.04719
2.08276
-0.928815
-0.92514
-0.908981
-0.867948
-0.808002
-0.737957
-0.660002
-0.575399
-0.480112
-0.374527
-0.240559
-0.0949831
0.227666
0.811976
1.4895
2.09354
2.53129
2.78299
2.89283
2.9235
-0.8936
-0.891414
-0.88216
-0.8491
-0.792329
-0.721314
-0.641327
-0.552211
-0.453935
-0.339495
-0.213831
-0.0775115
0.105221
0.575092
1.14013
1.6247
1.97308
2.17198
2.26063
2.28645
-0.860081
-0.858933
-0.855867
-0.83255
-0.778982
-0.706531
-0.625291
-0.536792
-0.441411
-0.332043
-0.22207
-0.11094
0.00404673
0.292142
0.706806
1.04851
1.29879
1.44899
1.52292
1.54632
-0.838892
-0.8391
-0.839029
-0.819192
-0.76396
-0.68952
-0.608594
-0.524048
-0.434165
-0.336045
-0.242654
-0.160255
-0.0887955
0.0772966
0.352269
0.592223
0.772292
0.878831
0.926184
0.938497
-0.808665
-0.811815
-0.813426
-0.793273
-0.735871
-0.661923
-0.585099
-0.507879
-0.427624
-0.343139
-0.267208
-0.209366
-0.158803
-0.059067
0.12384
0.282591
0.397537
0.464001
0.493737
0.50096
-0.72944
-0.733425
-0.734705
-0.717533
-0.672076
-0.612234
-0.549213
-0.485192
-0.418204
-0.347627
-0.286152
-0.245847
-0.214349
-0.145846
-0.0207821
0.0806618
0.15114
0.19019
0.206272
0.208065
-0.608535
-0.610451
-0.610816
-0.601744
-0.577796
-0.5436
-0.502564
-0.456707
-0.405186
-0.348574
-0.298957
-0.27025
-0.252292
-0.205968
-0.121461
-0.0524521
-0.00775544
0.0160332
0.0256622
0.0257786
-0.497796
-0.498222
-0.498755
-0.497389
-0.491021
-0.477918
-0.456972
-0.427867
-0.390564
-0.345894
-0.304641
-0.277335
-0.260484
-0.22563
-0.174511
-0.131497
-0.102506
-0.0866548
-0.0803901
-0.0807923
-0.427588
-0.427684
-0.42882
-0.431267
-0.432819
-0.430276
-0.421054
-0.403525
-0.376989
-0.341518
-0.305031
-0.274857
-0.250182
-0.220128
-0.18706
-0.163607
-0.147909
-0.13887
-0.135245
-0.136155
-0.393599
-0.393778
-0.395028
-0.39795
-0.400952
-0.401637
-0.39761
-0.386514
-0.366374
-0.336925
-0.303339
-0.270496
-0.239588
-0.216985
-0.199285
-0.183118
-0.170543
-0.162749
-0.159497
-0.16077
-0.382075
-0.382171
-0.383002
-0.385231
-0.387629
-0.38847
-0.385852
-0.37712
-0.360608
-0.334999
-0.305024
-0.274807
-0.244856
-0.227428
-0.217277
-0.203164
-0.18902
-0.178157
-0.173736
-0.17551
-0.385343
-0.385144
-0.385245
-0.3863
-0.387475
-0.387337
-0.38414
-0.375736
-0.35999
-0.335979
-0.309877
-0.288192
-0.272989
-0.261066
-0.247208
-0.227719
-0.21042
-0.199044
-0.194417
-0.195953
-0.401737
-0.401222
-0.400645
-0.400517
-0.400185
-0.39819
-0.393445
-0.38384
-0.366368
-0.340764
-0.315968
-0.302682
-0.306799
-0.307343
-0.281933
-0.254059
-0.233107
-0.221732
-0.217714
-0.219315
-0.431682
-0.430806
-0.42969
-0.428614
-0.42684
-0.423206
-0.416589
-0.405026
-0.38455
-0.354058
-0.323993
-0.307158
-0.318177
-0.319382
-0.295201
-0.268713
-0.250504
-0.240356
-0.238375
-0.239074
-0.47501
-0.474059
-0.472754
-0.471152
-0.46869
-0.464551
-0.45771
-0.445833
-0.42424
-0.388329
-0.344247
-0.308227
-0.307771
-0.309954
-0.288164
-0.261998
-0.243
-0.234619
-0.232245
-0.232631
-0.532147
-0.531148
-0.529913
-0.528505
-0.526803
-0.524708
-0.521814
-0.515822
-0.50176
-0.467727
-0.404384
-0.337947
-0.316509
-0.312295
-0.284708
-0.249267
-0.219887
-0.204185
-0.204185
-0.205576
-0.600974
-0.600236
-0.599743
-0.599779
-0.601205
-0.605399
-0.613803
-0.626785
-0.639949
-0.627205
-0.540998
-0.431514
-0.383189
-0.360508
-0.310498
-0.249653
-0.203912
-0.184913
-0.186802
-0.186766
-0.675757
-0.675745
-0.676856
-0.679986
-0.687631
-0.703644
-0.733684
-0.784936
-0.855896
-0.891733
-0.777925
-0.605995
-0.513897
-0.457465
-0.363328
-0.2653
-0.189099
-0.165601
-0.172568
-0.175567
-0.744763
-0.745918
-0.74939
-0.757113
-0.773768
-0.806636
-0.868125
-0.976849
-1.13787
-1.24727
-1.10658
-0.851645
-0.702157
-0.603122
-0.469894
-0.338329
-0.260635
-0.242793
-0.247388
-0.252589
-0.790958
-0.793445
-0.799437
-0.812138
-0.838454
-0.889413
-0.985085
-1.1565
-1.41203
-1.60116
-1.4401
-1.11678
-0.920591
-0.782703
-0.632656
-0.510875
-0.449004
-0.441718
-0.442853
-0.446712
-0.796627
-0.800229
-0.808143
-0.823507
-0.857199
-0.921281
-1.04129
-1.25637
-1.57065
-1.81376
-1.65831
-1.31974
-1.10514
-0.969754
-0.835249
-0.748943
-0.712258
-0.701488
-0.698111
-0.699737
-0.750181
-0.753919
-0.762051
-0.779214
-0.814216
-0.881114
-1.00631
-1.23013
-1.55307
-1.78857
-1.66712
-1.37926
-1.21453
-1.11723
-1.06589
-1.00739
-0.971853
-0.95407
-0.944967
-0.943722
-0.653353
-0.656536
-0.663518
-0.678509
-0.709473
-0.768881
-0.880367
-1.0803
-1.36147
-1.54991
-1.46283
-1.27556
-1.19984
-1.19469
-1.24536
-1.22176
-1.16392
-1.13164
-1.11476
-1.10957
-0.51995
-0.522318
-0.52717
-0.538006
-0.561093
-0.60604
-0.691111
-0.845941
-1.06779
-1.21162
-1.15894
-1.07904
-1.04647
-1.13678
-1.27553
-1.25859
-1.19037
-1.14897
-1.12735
-1.11957
-0.373012
-0.373983
-0.376313
-0.382424
-0.396541
-0.424968
-0.479843
-0.582981
-0.744322
-0.869809
-0.859908
-0.814623
-0.786064
-0.873387
-1.02536
-1.03114
-0.985996
-0.956505
-0.940921
-0.934068
-0.232637
-0.232626
-0.233139
-0.23552
-0.242138
-0.256247
-0.284318
-0.339236
-0.436039
-0.531233
-0.534927
-0.482898
-0.447774
-0.515107
-0.628348
-0.652707
-0.641926
-0.633575
-0.629374
-0.626898
-0.113153
-0.112679
-0.11255
-0.113153
-0.115154
-0.119697
-0.129133
-0.14792
-0.182616
-0.232988
-0.227655
-0.185378
-0.174797
-0.228892
-0.288392
-0.3068
-0.309344
-0.310715
-0.312428
-0.312658
-0.0187717
-0.0185649
-0.0175425
-0.0164163
-0.015805
-0.0158594
-0.0162698
-0.0170007
-0.0181556
-0.0185192
-0.0307054
-0.0390834
-0.0346255
-0.0335931
-0.0440748
-0.0468214
-0.0474557
-0.0503075
-0.0520303
-0.0532308
-0.438706
-0.229125
-0.00386807
0.181337
0.330481
0.449798
0.550105
0.633954
0.668201
0.65245
-0.073635
0.0636864
0.206001
0.329021
0.433117
0.519948
0.589988
0.63922
0.665137
0.677615
0.170311
0.262552
0.358403
0.444038
0.517756
0.57943
0.628265
0.664191
0.690147
0.707654
0.344482
0.40851
0.47608
0.53804
0.591789
0.637254
0.674488
0.704356
0.728151
0.74618
0.478554
0.524614
0.574872
0.621372
0.662714
0.698667
0.729335
0.754969
0.775588
0.793381
0.587879
0.622943
0.663791
0.701211
0.735449
0.766119
0.792861
0.815411
0.832993
0.850517
0.683889
0.713983
0.749569
0.783028
0.814028
0.842133
0.866707
0.887099
0.902085
0.919514
0.774652
0.804816
0.839715
0.87265
0.902942
0.930136
0.953535
0.972333
0.985241
1.00271
0.871333
0.905278
0.942274
0.976502
1.00698
1.0335
1.05571
1.07302
1.08464
1.10246
0.987123
1.02578
1.06435
1.09892
1.12844
1.15333
1.1738
1.18964
1.20109
1.21945
1.13246
1.17214
1.2077
1.23824
1.26395
1.28613
1.30524
1.32085
1.33357
1.35172
1.30717
1.33949
1.36542
1.3878
1.40792
1.42673
1.44442
1.46102
1.4768
1.49501
1.49493
1.51259
1.52825
1.54491
1.56111
1.5757
1.58876
1.60277
1.61988
1.63957
1.67684
1.68771
1.69988
1.7107
1.71998
1.72957
1.7405
1.75212
1.76209
1.77727
1.88776
1.88981
1.87468
1.85947
1.85311
1.85881
1.87742
1.90785
1.94001
1.97076
2.19369
2.05665
1.98037
1.93834
1.92092
1.92496
1.95234
2.00849
2.11195
2.32724
0.475393
0.472016
0.466086
0.456275
0.443326
0.430894
0.420567
0.412594
0.406893
0.40354
0.403064
0.405683
0.4107
0.417871
0.427249
0.438892
0.451989
0.463957
0.471404
0.476117
0.393414
0.399298
0.406204
0.41144
0.41428
0.413942
0.411022
0.407074
0.40346
0.401088
0.400812
0.402887
0.406464
0.410728
0.414606
0.416555
0.415402
0.41128
0.40536
0.398306
0.385782
0.388129
0.391478
0.394383
0.396596
0.398387
0.399328
0.39904
0.397953
0.396967
0.397003
0.398284
0.399974
0.401148
0.401108
0.399869
0.398008
0.395623
0.392439
0.389464
0.380668
0.381754
0.383623
0.386009
0.387971
0.389358
0.390437
0.391258
0.391665
0.391807
0.392147
0.392767
0.393158
0.392998
0.392369
0.391409
0.389932
0.387813
0.385658
0.384231
0.375618
0.376271
0.377386
0.379118
0.380932
0.38255
0.383802
0.384787
0.385631
0.386336
0.386895
0.387211
0.387175
0.386818
0.386123
0.384977
0.383438
0.381782
0.380402
0.379604
0.370756
0.371207
0.372002
0.373324
0.374844
0.376394
0.377862
0.379117
0.380178
0.381108
0.381815
0.382118
0.382017
0.381535
0.380653
0.379484
0.3782
0.376943
0.375957
0.375423
0.366064
0.366398
0.367022
0.368129
0.369465
0.370881
0.372352
0.373793
0.375092
0.376209
0.377061
0.377453
0.377333
0.376766
0.375894
0.374883
0.373835
0.37281
0.372045
0.371651
0.361509
0.361763
0.362272
0.363239
0.364474
0.365824
0.367252
0.368743
0.370229
0.371585
0.372632
0.373116
0.373018
0.37252
0.371794
0.370945
0.370043
0.369192
0.368585
0.368285
0.357052
0.357245
0.35767
0.358544
0.359727
0.361044
0.362449
0.363946
0.36551
0.367053
0.368327
0.368994
0.36908
0.368782
0.368238
0.367545
0.366772
0.366054
0.365568
0.365337
0.352653
0.352798
0.353159
0.353969
0.35512
0.356429
0.357864
0.359422
0.361095
0.362827
0.364362
0.365303
0.365641
0.365558
0.365184
0.364634
0.363999
0.363397
0.363011
0.362835
0.348284
0.348388
0.348702
0.349481
0.350642
0.351992
0.353514
0.355222
0.357079
0.359035
0.36089
0.362205
0.36284
0.362954
0.362732
0.362312
0.361786
0.361279
0.360972
0.360841
0.343912
0.343977
0.344249
0.345003
0.346172
0.347553
0.349105
0.350895
0.352973
0.355294
0.357578
0.359269
0.360219
0.360663
0.360736
0.360527
0.360149
0.359749
0.359524
0.359437
0.339572
0.339603
0.339835
0.340546
0.341706
0.343122
0.344771
0.346719
0.349003
0.35164
0.354429
0.356711
0.358182
0.359006
0.359372
0.359402
0.359225
0.358983
0.358854
0.358807
0.335204
0.335207
0.335405
0.336066
0.337202
0.338657
0.340417
0.342598
0.345275
0.348475
0.351921
0.354799
0.356763
0.358006
0.358686
0.359043
0.359147
0.359111
0.359088
0.359067
0.330479
0.33048
0.330651
0.331253
0.332336
0.333808
0.335685
0.338095
0.34115
0.344932
0.349172
0.3529
0.355572
0.357402
0.358594
0.359351
0.359809
0.360033
0.360127
0.360124
0.325022
0.325007
0.325191
0.325794
0.326921
0.328519
0.330656
0.333487
0.337159
0.341773
0.347023
0.351702
0.355131
0.35757
0.359286
0.360466
0.361225
0.361673
0.361857
0.361862
0.318545
0.318521
0.318734
0.319391
0.320634
0.322453
0.324944
0.328297
0.332721
0.338364
0.344868
0.350742
0.355131
0.358315
0.360593
0.362218
0.363337
0.36401
0.364274
0.364285
0.310732
0.3107
0.31096
0.311757
0.313212
0.315373
0.318387
0.322489
0.327935
0.334908
0.342966
0.350282
0.355773
0.3598
0.362706
0.364817
0.366291
0.367165
0.367494
0.367512
0.301225
0.301179
0.301506
0.302493
0.304296
0.306976
0.310728
0.315849
0.322638
0.331312
0.341296
0.350331
0.357131
0.362106
0.365739
0.368386
0.370249
0.371321
0.37172
0.371747
0.289614
0.289551
0.289969
0.291233
0.293521
0.296922
0.30169
0.308164
0.3167
0.327512
0.339863
0.350982
0.359307
0.36543
0.369921
0.373204
0.375446
0.376728
0.377212
0.377251
0.275326
0.275239
0.275787
0.277424
0.280402
0.284815
0.290974
0.299255
0.310056
0.323561
0.338785
0.352364
0.362511
0.369974
0.375435
0.379414
0.382126
0.383652
0.384241
0.38429
0.25759
0.257484
0.258237
0.260389
0.264295
0.27012
0.278182
0.288892
0.302626
0.319476
0.338144
0.354611
0.366876
0.375905
0.382519
0.387294
0.390542
0.392381
0.393088
0.393141
0.235036
0.234924
0.236033
0.239002
0.244242
0.252122
0.262862
0.276873
0.2944
0.315376
0.338116
0.357903
0.372572
0.38338
0.391303
0.397021
0.400902
0.403111
0.403944
0.403995
0.205406
0.205336
0.207111
0.211473
0.218937
0.229954
0.244595
0.263102
0.285495
0.311467
0.33891
0.362416
0.379745
0.392524
0.401923
0.408732
0.41338
0.416013
0.416973
0.417011
0.16461
0.164732
0.167979
0.175247
0.18679
0.20291
0.223276
0.247812
0.276256
0.308081
0.340783
0.36832
0.388493
0.403388
0.414408
0.422471
0.428026
0.431126
0.432188
0.4322
0.104929
0.106258
0.114139
0.127832
0.146962
0.171156
0.1995
0.231672
0.267261
0.30563
0.343964
0.375694
0.398791
0.415865
0.428601
0.43804
0.444626
0.448229
0.449366
0.44934
0.0332418
0.0356646
0.0507557
0.074506
0.104102
0.13775
0.174843
0.215208
0.258533
0.304238
0.349272
0.386399
0.413557
0.433838
0.449166
0.460674
0.468857
0.473385
0.474668
0.474735
-0.0402511
-0.0330965
-0.0107416
0.0229095
0.0622848
0.105145
0.150943
0.199533
0.250648
0.303784
0.35566
0.398324
0.429622
0.453206
0.471327
0.485261
0.495193
0.500001
0.501812
0.502225
-0.0990025
-0.0901175
-0.0631167
-0.0226874
0.0242509
0.0748953
0.128487
0.184715
0.243198
0.303376
0.361662
0.409347
0.444251
0.470543
0.490744
0.506213
0.517231
0.523193
0.52585
0.526409
-0.146883
-0.13743
-0.10697
-0.0616657
-0.00899225
0.0478567
0.107957
0.170844
0.235974
0.30262
0.366757
0.418892
0.456831
0.485254
0.507019
0.523739
0.535786
0.542597
0.545599
0.546228
-0.186963
-0.177322
-0.144599
-0.0954967
-0.0381858
0.0237696
0.0893385
0.15798
0.228982
0.301452
0.370869
0.426916
0.467395
0.497519
0.520448
0.538007
0.550733
0.558183
0.5614
0.562059
-0.221819
-0.212108
-0.177701
-0.125558
-0.0644038
0.00188964
0.0721974
0.145891
0.222139
0.299872
0.374092
0.433649
0.476315
0.507792
0.531539
0.549577
0.562623
0.570417
0.573762
0.574454
-0.253008
-0.243276
-0.207583
-0.152852
-0.0884917
-0.0184855
0.0560026
0.134219
0.215235
0.297822
0.376524
0.439359
0.484007
0.516628
0.54098
0.559268
0.572434
0.580371
0.58369
0.584437
-0.281719
-0.27194
-0.235176
-0.178249
-0.111129
-0.0378531
0.0403379
0.122639
0.208041
0.295194
0.378189
0.444203
0.49079
0.524487
0.549386
0.567921
0.581134
0.589167
0.592496
0.593135
-0.308725
-0.298884
-0.261158
-0.202358
-0.132782
-0.0566074
0.024893
0.110904
0.20037
0.291851
0.379045
0.448254
0.496816
0.531674
0.55719
0.576021
0.589348
0.597354
0.600699
0.601216
-0.334513
-0.324593
-0.285975
-0.225582
-0.153762
-0.0749988
0.00946796
0.0988521
0.192084
0.287687
0.379027
0.451538
0.502259
0.538448
0.56471
0.583912
0.597392
0.605384
0.608682
0.609182
-0.359493
-0.349407
-0.309973
-0.248098
-0.174281
-0.0932138
-0.00607136
0.0863816
0.183104
0.282634
0.378111
0.454128
0.507247
0.544952
0.572123
0.59183
0.605542
0.613553
0.616732
0.617215
-0.383838
-0.373519
-0.333378
-0.270057
-0.194475
-0.111355
-0.0217995
0.0734442
0.173387
0.276663
0.376279
0.455973
0.511739
0.551221
0.579499
0.599845
0.613855
0.62188
0.624926
0.625347
-0.4076
-0.397074
-0.356217
-0.291578
-0.214412
-0.129444
-0.0377337
0.0600261
0.162927
0.269734
0.37342
0.45696
0.515694
0.557254
0.586854
0.607962
0.622302
0.630306
0.633187
0.63351
-0.430907
-0.420089
-0.378507
-0.312686
-0.2341
-0.14749
-0.0538611
0.0461499
0.151731
0.261813
0.369444
0.456995
0.519025
0.563009
0.594184
0.616175
0.630851
0.638791
0.641445
0.641638
-0.453678
-0.442584
-0.400286
-0.333373
-0.253517
-0.165453
-0.0701291
0.0318651
0.139831
0.252899
0.364318
0.455953
0.521578
0.568401
0.601486
0.624497
0.639453
0.64718
0.649538
0.649606
-0.475944
-0.464549
-0.421528
-0.353614
-0.272621
-0.18328
-0.0864788
0.0172461
0.127302
0.243045
0.358006
0.453697
0.523169
0.57329
0.608759
0.633005
0.648118
0.655395
0.657332
0.657266
-0.497528
-0.485904
-0.442179
-0.373359
-0.291351
-0.200889
-0.102832
0.00238126
0.114238
0.232324
0.350484
0.450114
0.523587
0.577459
0.615966
0.641904
0.657044
0.66341
0.66466
0.664444
-0.518537
-0.506593
-0.462204
-0.392569
-0.309666
-0.218234
-0.119087
-0.0126355
0.100737
0.220825
0.341783
0.445111
0.522608
0.580581
0.62292
0.65147
0.666847
0.671578
0.671454
0.670979
-0.538823
-0.526578
-0.481576
-0.411185
-0.327479
-0.235222
-0.135158
-0.0276804
0.0869174
0.208635
0.331973
0.438624
0.520028
0.582228
0.629137
0.661754
0.678652
0.681475
0.678383
0.676698
-0.558422
-0.545907
-0.500236
-0.429155
-0.344749
-0.251785
-0.150959
-0.0426688
0.0728984
0.19591
0.32116
0.430615
0.515701
0.581921
0.633709
0.671974
0.693134
0.69655
0.689694
0.678817
-0.577256
-0.564544
-0.518277
-0.446631
-0.361687
-0.268209
-0.166833
-0.0580165
0.0582088
0.182106
0.308759
0.420418
0.509003
0.578992
0.63524
0.680244
0.70879