/*--------------------------------*- C++ -*----------------------------------*\
| =========                 |                                                 |
| \\      /  F ield         | OpenFOAM: The Open Source CFD Toolbox           |
|  \\    /   O peration     | Version:  2306                                  |
|   \\  /    A nd           | Website:  www.openfoam.com                      |
|    \\/     M anipulation  |                                                 |
\*---------------------------------------------------------------------------*/
FoamFile
{
    version     2.0;
    format      ascii;
    arch        "LSB;label=32;scalar=64";
    class       volVectorField;
    location    "27";
    object      U;
}
// * * * * * * * * * * * * * * * * * * * * * * * * * * * * * * * * * * * * * //

dimensions      [0 1 -1 0 0 0 0];

internalField   nonuniform List<vector> 
8800
(
(0.984964 -0.0884518 0)
(1.00213 -0.0568221 0)
(0.999681 -0.0305545 0)
(1.00002 -0.0158564 0)
(1.00005 -0.00870597 0)
(1.00003 -0.0050589 0)
(1.00001 -0.00297692 0)
(1.00001 -0.0016936 0)
(1 -0.000814685 0)
(1.00005 -0.000124732 0)
(1.00001 0.000567973 0)
(1.00001 0.00133033 0)
(1.00001 0.00236497 0)
(1.00002 0.00396843 0)
(1.00004 0.00668466 0)
(1.00006 0.0117192 0)
(0.99992 0.0220419 0)
(0.999204 0.0411655 0)
(1.00746 0.0768953 0)
(0.77365 0.0450703 0)
(0.361 -0.0151718 0)
(1.04556 -0.0742042 0)
(1.08712 -0.0678958 0)
(1.04778 -0.0523084 0)
(1.02458 -0.0384048 0)
(1.01233 -0.0261234 0)
(1.00641 -0.0167842 0)
(1.00357 -0.0102916 0)
(1.00217 -0.00567761 0)
(1.00152 -0.00211258 0)
(1.0014 0.0010797 0)
(1.00176 0.00438272 0)
(1.00272 0.00830512 0)
(1.00471 0.0136729 0)
(1.0088 0.0214147 0)
(1.01738 0.0322448 0)
(1.03455 0.0456024 0)
(1.06558 0.0597332 0)
(1.09411 0.0729367 0)
(0.842302 0.0556989 0)
(0.217058 -0.00164626 0)
(1.07586 -0.0503593 0)
(1.09985 -0.0487282 0)
(1.06463 -0.040179 0)
(1.0399 -0.0330075 0)
(1.02365 -0.0257016 0)
(1.01389 -0.018348 0)
(1.00843 -0.0116921 0)
(1.00561 -0.00596399 0)
(1.00447 -0.000696266 0)
(1.00479 0.0044112 0)
(1.00665 0.00972518 0)
(1.01056 0.0157675 0)
(1.01786 0.0226935 0)
(1.03054 0.029984 0)
(1.05075 0.0370244 0)
(1.08053 0.0443996 0)
(1.10637 0.0516489 0)
(0.943066 0.0412756 0)
(0.216622 0.00166019 0)
(0.175886 -0.000644935 0)
(1.01866 -0.0354078 0)
(1.10558 -0.0414251 0)
(1.07808 -0.0362716 0)
(1.05274 -0.030258 0)
(1.0354 -0.0245503 0)
(1.02339 -0.0188647 0)
(1.01551 -0.0129123 0)
(1.0109 -0.00685642 0)
(1.0089 -0.000682264 0)
(1.00946 0.00542795 0)
(1.01259 0.0113672 0)
(1.01862 0.0172047 0)
(1.02837 0.0228182 0)
(1.04275 0.0282766 0)
(1.06356 0.0339695 0)
(1.09405 0.0399759 0)
(1.09448 0.0416663 0)
(0.8294 0.022692 0)
(0.175155 0.000660585 0)
(0.154352 -0.000486211 0)
(0.957319 -0.0255237 0)
(1.10405 -0.0350531 0)
(1.08784 -0.0326188 0)
(1.0612 -0.0280813 0)
(1.04325 -0.0231183 0)
(1.03086 -0.0179456 0)
(1.02221 -0.0125664 0)
(1.01662 -0.00679812 0)
(1.01398 -0.000449383 0)
(1.01469 0.0059423 0)
(1.01861 0.0117748 0)
(1.02551 0.0170701 0)
(1.03575 0.0220598 0)
(1.05048 0.0269074 0)
(1.07225 0.0314376 0)
(1.10109 0.0353837 0)
(1.06979 0.0336375 0)
(0.742369 0.0142229 0)
(0.153256 0.000503764 0)
(0.139864 -0.000357195 0)
(0.900457 -0.0191354 0)
(1.09641 -0.0300494 0)
(1.09591 -0.0291781 0)
(1.06875 -0.025447 0)
(1.04994 -0.0214037 0)
(1.03698 -0.0168189 0)
(1.028 -0.0117413 0)
(1.02207 -0.0062054 0)
(1.01914 -4.47482e-05 0)
(1.01986 0.00616256 0)
(1.024 0.0117202 0)
(1.03112 0.0166864 0)
(1.04168 0.021187 0)
(1.0571 0.0251845 0)
(1.07983 0.0287323 0)
(1.10359 0.0314928 0)
(1.03843 0.0276286 0)
(0.676543 0.0100479 0)
(0.138324 0.000377912 0)
(0.129297 -0.00027086 0)
(0.85099 -0.0146771 0)
(1.08401 -0.0257976 0)
(1.10143 -0.0261455 0)
(1.07542 -0.0229217 0)
(1.0561 -0.0193905 0)
(1.04268 -0.0153672 0)
(1.03331 -0.0107028 0)
(1.02709 -0.00543794 0)
(1.02396 0.000461705 0)
(1.02461 0.00637796 0)
(1.02883 0.0115987 0)
(1.03615 0.0161373 0)
(1.04707 0.0200414 0)
(1.0629 0.0234031 0)
(1.08604 0.0264312 0)
(1.10301 0.0283135 0)
(1.00455 0.0228646 0)
(0.625833 0.00758388 0)
(0.127218 0.000296037 0)
(0.121312 -0.000207668 0)
(0.809204 -0.0113941 0)
(1.06884 -0.0220014 0)
(1.10481 -0.0232677 0)
(1.08141 -0.020449 0)
(1.06162 -0.0171716 0)
(1.04789 -0.0135538 0)
(1.0382 -0.00936182 0)
(1.03172 -0.00448841 0)
(1.02841 0.00108595 0)
(1.02893 0.00664736 0)
(1.03314 0.0114235 0)
(1.0406 0.0154001 0)
(1.05171 0.0187345 0)
(1.06786 0.0216684 0)
(1.09142 0.024427 0)
(1.0998 0.0255014 0)
(0.970821 0.0190063 0)
(0.585832 0.00592996 0)
(0.118579 0.000238474 0)
(0.115234 -0.00015741 0)
(0.774511 -0.00885617 0)
(1.05232 -0.0185365 0)
(1.10701 -0.0205521 0)
(1.08698 -0.0181893 0)
(1.06676 -0.0151514 0)
(1.05277 -0.0117598 0)
(1.04292 -0.00781474 0)
(1.03621 -0.00328983 0)
(1.03264 0.00185322 0)
(1.03303 0.00693249 0)
(1.03721 0.0112062 0)
(1.04466 0.0147318 0)
(1.05582 0.0176899 0)
(1.07227 0.0202808 0)
(1.09563 0.0226646 0)
(1.09404 0.0229372 0)
(0.938728 0.0158341 0)
(0.553746 0.00472929 0)
(0.111707 0.000195058 0)
(0.110636 -0.000117548 0)
(0.746174 -0.00679969 0)
(1.03564 -0.0152923 0)
(1.10807 -0.0177651 0)
(1.09199 -0.0158143 0)
(1.07154 -0.0130234 0)
(1.05735 -0.00984992 0)
(1.04731 -0.00616323 0)
(1.0404 -0.00196719 0)
(1.03659 0.00277087 0)
(1.03678 0.00738925 0)
(1.04083 0.0111469 0)
(1.04821 0.0141768 0)
(1.05939 0.0167287 0)
(1.07602 0.0189536 0)
(1.09848 0.0209009 0)
(1.0862 0.0204704 0)
(0.909155 0.0131919 0)
(0.527715 0.00381765 0)
(0.10614 0.000164049 0)
(0.107264 -8.2375e-05 0)
(0.723579 -0.00505555 0)
(1.01988 -0.0122331 0)
(1.10832 -0.0148941 0)
(1.0967 -0.0132271 0)
(1.07602 -0.0106157 0)
(1.06149 -0.00773025 0)
(1.05125 -0.00433194 0)
(1.04421 -0.00044858 0)
(1.04021 0.00387784 0)
(1.0401 0.00798499 0)
(1.04385 0.0112442 0)
(1.05108 0.0137796 0)
(1.0623 0.0157807 0)
(1.07921 0.0175713 0)
(1.10007 0.0191304 0)
(1.07698 0.0181162 0)
(0.882561 0.0109619 0)
(0.506524 0.00309823 0)
(0.10158 0.000139817 0)
(0.104944 -5.23021e-05 0)
(0.706256 -0.00349165 0)
(1.00573 -0.00926307 0)
(1.10788 -0.0119447 0)
(1.10098 -0.0106202 0)
(1.08005 -0.00823191 0)
(1.06523 -0.00554937 0)
(1.05475 -0.00237846 0)
(1.0474 0.00123338 0)
(1.04307 0.00520063 0)
(1.04263 0.00885877 0)
(1.04615 0.0116229 0)
(1.05324 0.0135962 0)
(1.06447 0.015101 0)
(1.08167 0.0164518 0)
(1.10061 0.0174994 0)
(1.06681 0.0158677 0)
(0.859091 0.00902853 0)
(0.489301 0.00251594 0)
(0.097792 0.00012469 0)
(0.103595 -1.94887e-05 0)
(0.694009 -0.00200606 0)
(0.993793 -0.00628382 0)
(1.10679 -0.00880553 0)
(1.10464 -0.00788532 0)
(1.08401 -0.0057653 0)
(1.06907 -0.00316102 0)
(1.05851 -8.77755e-05 0)
(1.05098 0.00327763 0)
(1.04628 0.00683415 0)
(1.04543 0.00996589 0)
(1.04853 0.0121519 0)
(1.05528 0.0136636 0)
(1.06625 0.0147345 0)
(1.08331 0.0155573 0)
(1.09993 0.0159399 0)
(1.05594 0.0136459 0)
(0.838876 0.00730134 0)
(0.475545 0.00201733 0)
(0.0946349 0.000110376 0)
(0.103241 1.13909e-05 0)
(0.686507 -0.000637777 0)
(0.984534 -0.00343738 0)
(1.10537 -0.00550017 0)
(1.10763 -0.00472422 0)
(1.08751 -0.00279559 0)
(1.07233 -0.000363835 0)
(1.06144 0.00246188 0)
(1.05355 0.00555861 0)
(1.04844 0.00882222 0)
(1.04702 0.01152 0)
(1.04963 0.0131142 0)
(1.0561 0.0139159 0)
(1.06706 0.0143491 0)
(1.08399 0.0144851 0)
(1.09794 0.0143842 0)
(1.04481 0.0116712 0)
(0.821716 0.00590179 0)
(0.464678 0.00163288 0)
(0.0920405 9.45288e-05 0)
(0.103812 5.56618e-05 0)
(0.683248 0.000443423 0)
(0.978185 -0.000965284 0)
(1.10429 -0.00245094 0)
(1.11043 -0.00172162 0)
(1.09088 6.50661e-05 0)
(1.07562 0.00243063 0)
(1.06459 0.00520972 0)
(1.05641 0.00824772 0)
(1.05077 0.0112698 0)
(1.04867 0.0135086 0)
(1.05065 0.0146414 0)
(1.05653 0.0149242 0)
(1.06705 0.0147175 0)
(1.08356 0.0143977 0)
(1.09496 0.0136316 0)
(1.03371 0.0104015 0)
(0.807078 0.00509119 0)
(0.455784 0.00146279 0)
(0.0898556 8.4869e-05 0)
(0.105125 7.42232e-05 0)
(0.683477 0.00126312 0)
(0.974647 0.00100932 0)
(1.10372 0.000110338 0)
(1.11312 0.000831313 0)
(1.09416 0.00259225 0)
(1.07886 0.00509794 0)
(1.0677 0.00808535 0)
(1.05915 0.011292 0)
(1.05281 0.014265 0)
(1.04988 0.0162361 0)
(1.05104 0.0169379 0)
(1.05624 0.0167341 0)
(1.06619 0.0160227 0)
(1.08234 0.0151951 0)
(1.09067 0.0137385 0)
(1.0224 0.00999619 0)
(0.793998 0.00498653 0)
(0.44751 0.00153341 0)
(0.0877352 8.91738e-05 0)
(0.107041 0.00010104 0)
(0.686185 0.00192718 0)
(0.973924 0.00274126 0)
(1.10381 0.00263889 0)
(1.11586 0.00353607 0)
(1.09764 0.00551234 0)
(1.08239 0.00839875 0)
(1.071 0.0116961 0)
(1.06182 0.0150384 0)
(1.05456 0.0179741 0)
(1.05062 0.0196284 0)
(1.05086 0.0197848 0)
(1.05524 0.0190241 0)
(1.06457 0.0178364 0)
(1.08005 0.0164736 0)
(1.0853 0.0144257 0)
(1.01098 0.0103588 0)
(0.781389 0.00543489 0)
(0.438715 0.00175845 0)
(0.0853792 0.000104057 0)
(0.109603 0.000130627 0)
(0.691444 0.00265073 0)
(0.975895 0.00426574 0)
(1.10552 0.00523808 0)
(1.11926 0.00680448 0)
(1.10178 0.00932166 0)
(1.08645 0.0126732 0)
(1.07459 0.0162666 0)
(1.06469 0.0197301 0)
(1.05637 0.0225734 0)
(1.05112 0.0237955 0)
(1.05019 0.0233496 0)
(1.05368 0.0219496 0)
(1.06227 0.0201798 0)
(1.07688 0.0182679 0)
(1.07913 0.0157861 0)
(0.999425 0.011508 0)
(0.768068 0.00627254 0)
(0.428656 0.00207166 0)
(0.082601 0.00012568 0)
(0.112919 0.000166212 0)
(0.699045 0.00353222 0)
(0.980398 0.00595935 0)
(1.10943 0.00782546 0)
(1.12413 0.0102596 0)
(1.10681 0.0136083 0)
(1.091 0.01759 0)
(1.07836 0.0216697 0)
(1.06746 0.0254518 0)
(1.05777 0.0282597 0)
(1.05094 0.0290389 0)
(1.04872 0.0278912 0)
(1.05127 0.0257805 0)
(1.05917 0.0234445 0)
(1.07288 0.021072 0)
(1.07236 0.0182117 0)
(0.98696 0.0133897 0)
(0.752899 0.00732265 0)
(0.416923 0.00244572 0)
(0.0792769 0.000153253 0)
(0.117237 0.000218384 0)
(0.70949 0.00476062 0)
(0.987093 0.00813943 0)
(1.11515 0.010575 0)
(1.13056 0.0136262 0)
(1.11303 0.0177801 0)
(1.09645 0.0226327 0)
(1.08286 0.0275559 0)
(1.07062 0.0320888 0)
(1.05916 0.0352711 0)
(1.05045 0.0359634 0)
(1.04664 0.0344112 0)
(1.048 0.0316215 0)
(1.05536 0.02847 0)
(1.06824 0.0255137 0)
(1.06424 0.0219422 0)
(0.971963 0.0157654 0)
(0.735248 0.00846157 0)
(0.40334 0.00286074 0)
(0.0753381 0.000182019 0)
(0.122905 0.000291922 0)
(0.72375 0.00644543 0)
(0.996061 0.011139 0)
(1.122 0.0140568 0)
(1.13803 0.0173479 0)
(1.1205 0.0222296 0)
(1.10313 0.02808 0)
(1.08838 0.0342145 0)
(1.07444 0.0398799 0)
(1.0608 0.0439192 0)
(1.04985 0.0449515 0)
(1.04417 0.0432565 0)
(1.04395 0.0401026 0)
(1.05011 0.0362698 0)
(1.0618 0.0319848 0)
(1.05298 0.0264751 0)
(0.953285 0.0183134 0)
(0.71514 0.00977687 0)
(0.387705 0.00335598 0)
(0.0707117 0.000213637 0)
(0.130464 0.000406095 0)
(0.743168 0.00884727 0)
(1.00839 0.0154264 0)
(1.1298 0.0192201 0)
(1.14623 0.0227204 0)
(1.12917 0.0283032 0)
(1.11136 0.0353023 0)
(1.09525 0.0428285 0)
(1.07922 0.0497079 0)
(1.06291 0.0545867 0)
(1.0493 0.0557764 0)
(1.04135 0.0537472 0)
(1.0392 0.0499418 0)
(1.04344 0.0451406 0)
(1.05195 0.0391982 0)
(1.03682 0.0311134 0)
(0.931023 0.0209569 0)
(0.692608 0.0113777 0)
(0.369641 0.00394898 0)
(0.0653069 0.00024679 0)
(0.140752 0.000580193 0)
(0.769384 0.0122067 0)
(1.02598 0.0212661 0)
(1.13968 0.0266908 0)
(1.15543 0.0310203 0)
(1.1394 0.0378018 0)
(1.12128 0.0461797 0)
(1.1034 0.0549547 0)
(1.08473 0.0626618 0)
(1.06514 0.067721 0)
(1.04836 0.0683008 0)
(1.03774 0.0652364 0)
(1.03314 0.0600882 0)
(1.0345 0.0536737 0)
(1.03821 0.0456648 0)
(1.01651 0.0355635 0)
(0.906241 0.0241428 0)
(0.667168 0.0134435 0)
(0.348467 0.00468408 0)
(0.0590101 0.000285112 0)
(0.155009 0.000864133 0)
(0.804431 0.0171921 0)
(1.05101 0.0294257 0)
(1.15388 0.0373002 0)
(1.16718 0.0438446 0)
(1.15183 0.0524329 0)
(1.13274 0.0622395 0)
(1.11231 0.07182 0)
(1.09026 0.0795919 0)
(1.06675 0.0837583 0)
(1.0463 0.0826375 0)
(1.03257 0.0775898 0)
(1.02499 0.0703629 0)
(1.0227 0.0618363 0)
(1.02117 0.0519997 0)
(0.993751 0.0406598 0)
(0.879338 0.0283211 0)
(0.637875 0.0160582 0)
(0.323484 0.00553077 0)
(0.0517199 0.000321853 0)
(0.175422 0.00136165 0)
(0.851443 0.0250207 0)
(1.08607 0.0413864 0)
(1.17475 0.0526049 0)
(1.1834 0.0625013 0)
(1.16666 0.0733468 0)
(1.14522 0.0843933 0)
(1.1212 0.0941347 0)
(1.09493 0.100979 0)
(1.06684 0.103065 0)
(1.04227 0.099155 0)
(1.02511 0.0912828 0)
(1.01417 0.0815149 0)
(1.00807 0.0707987 0)
(1.00189 0.0595113 0)
(0.969397 0.0473614 0)
(0.849454 0.0338092 0)
(0.603443 0.0193062 0)
(0.294163 0.00650845 0)
(0.0434355 0.000355084 0)
(0.205356 0.00248244 0)
(0.915942 0.0385103 0)
(1.13388 0.0608423 0)
(1.20328 0.0753549 0)
(1.20468 0.0892625 0)
(1.18368 0.102064 0)
(1.15797 0.113545 0)
(1.12913 0.122355 0)
(1.09779 0.127073 0)
(1.06464 0.125937 0)
(1.03566 0.118362 0)
(1.01492 0.107133 0)
(1.00059 0.0946289 0)
(0.991012 0.0818613 0)
(0.980893 0.0693183 0)
(0.9431 0.0562985 0)
(0.814967 0.0407703 0)
(0.562754 0.0231876 0)
(0.260684 0.00762548 0)
(0.0344057 0.000377327 0)
(0.246524 0.00884204 1.86289e-20)
(1.00152 0.0657936 1.81557e-20)
(1.19132 0.0940131 -7.22649e-21)
(1.23811 0.110792 0)
(1.22871 0.127482 -2.66831e-34)
(1.20113 0.140427 4.107e-21)
(1.16956 0.150731 -8.64642e-21)
(1.13498 0.157329 0)
(1.09797 0.158947 2.04818e-34)
(1.05927 0.153919 -1.32837e-20)
(1.02541 0.142304 0)
(1.00064 0.127616 -1.68702e-20)
(0.982688 0.112459 -5.04294e-20)
(0.969593 0.097935 -2.40245e-20)
(0.955712 0.084524 -7.35706e-21)
(0.911739 0.070784 -4.38955e-21)
(0.771432 0.0521046 0)
(0.511932 0.0296807 3.09106e-21)
(0.223152 0.0105203 3.64401e-21)
(0.0261629 0.00093697 6.41815e-20)
(0.273956 0.0245284 -3.07945e-21)
(1.07175 0.109036 9.95041e-22)
(1.23899 0.141863 1.17849e-21)
(1.27051 0.16016 0)
(1.25077 0.175719 -1.11982e-20)
(1.21639 0.187274 -1.42829e-20)
(1.17855 0.19571 -8.17644e-21)
(1.13779 0.199973 -3.32745e-20)
(1.0946 0.198658 0)
(1.04957 0.190119 5.6813e-20)
(1.00962 0.174865 5.85725e-20)
(0.979563 0.157176 1.79536e-20)
(0.957062 0.139744 6.745e-20)
(0.939626 0.123463 9.63754e-20)
(0.920433 0.108504 0)
(0.870017 0.0929685 1.38698e-19)
(0.71956 0.0702278 1.99543e-19)
(0.460799 0.0418271 2.20714e-19)
(0.192397 0.0164985 -2.5228e-19)
(0.0201101 0.00174083 -4.65283e-21)
(0.273296 0.0401931 0)
(1.11529 0.165406 -4.35147e-21)
(1.27277 0.201484 0)
(1.29568 0.219326 -3.66257e-21)
(1.26818 0.231586 0)
(1.22779 0.239958 -2.36923e-20)
(1.18403 0.24518 1.57849e-20)
(1.13737 0.246138 -6.30129e-20)
(1.08823 0.241336 -3.14196e-21)
(1.03722 0.229068 2.88709e-20)
(0.991649 0.210431 1.32236e-19)
(0.95686 0.190243 -6.17838e-22)
(0.930494 0.171181 -4.9837e-20)
(0.909591 0.153859 -9.32542e-20)
(0.887174 0.138053 1.11484e-19)
(0.834704 0.120894 -1.98696e-19)
(0.689871 0.0936666 -2.6445e-20)
(0.445954 0.0591205 0)
(0.195705 0.0257267 7.70676e-23)
(0.0228389 0.00319918 0)
(0.265985 0.0537828 -1.58184e-19)
(1.1376 0.224743 6.19819e-20)
(1.29424 0.266078 2.68549e-20)
(1.31226 0.28312 -9.08337e-22)
(1.27941 0.291667 6.46126e-23)
(1.23436 0.296203 4.75466e-20)
(1.18569 0.297586 3.20165e-20)
(1.13393 0.294705 0)
(1.07951 0.286064 -1.34703e-19)
(1.02305 0.269946 0)
(0.972487 0.248 -6.89078e-20)
(0.933677 0.225533 -8.94995e-20)
(0.904168 0.205075 -5.51615e-20)
(0.880725 0.186897 -6.87135e-20)
(0.856514 0.170244 0)
(0.805705 0.151793 0)
(0.673092 0.121536 -1.76277e-19)
(0.448932 0.0813006 3.46778e-20)
(0.209702 0.0381938 -2.03368e-20)
(0.0283743 0.00550407 -2.34048e-20)
(0.258211 0.0659125 1.37103e-19)
(1.14638 0.283833 0)
(1.30626 0.331593 -9.25605e-20)
(1.32122 0.34814 -1.15528e-20)
(1.2846 0.353119 6.26455e-21)
(1.23604 0.353799 0)
(1.18351 0.351276 2.69993e-20)
(1.12752 0.344477 6.76251e-20)
(1.06861 0.331894 6.63655e-20)
(1.00745 0.311869 1.40217e-19)
(0.952594 0.286628 0)
(0.910473 0.261937 -1.94429e-19)
(0.878525 0.240088 -1.20098e-19)
(0.853197 0.221155 -7.15491e-20)
(0.828029 0.204042 4.52081e-19)
(0.779906 0.184622 5.47028e-20)
(0.660588 0.151884 2.57605e-19)
(0.455524 0.105376 -1.2235e-18)
(0.223833 0.0525156 7.26397e-19)
(0.0337301 0.00829328 -8.62196e-19)
(0.251189 0.0769118 1.58462e-19)
(1.14672 0.340799 -2.76827e-20)
(1.31132 0.396541 1.94855e-20)
(1.32415 0.41257 4.21033e-20)
(1.28472 0.41424 1.26672e-20)
(1.23346 0.411245 3.39636e-21)
(1.17785 0.404984 -3.00262e-20)
(1.1184 0.394382 6.70999e-20)
(1.0557 0.377947 -1.43842e-19)
(0.990554 0.354042 0)
(0.932111 0.325482 -8.62467e-20)
(0.887319 0.298495 -3.12415e-21)
(0.853494 0.2752 -1.32834e-19)
(0.826873 0.255474 0)
(0.801335 0.237932 -9.83708e-20)
(0.756166 0.217578 -2.36699e-19)
(0.648119 0.183043 6.41001e-19)
(0.458186 0.13013 -6.31529e-19)
(0.232951 0.067034 8.96053e-19)
(0.0375976 0.0111441 -9.171e-19)
(0.245519 0.0871537 -8.10668e-22)
(1.14191 0.395036 3.78337e-20)
(1.31123 0.45967 1.03474e-19)
(1.32237 0.475352 -3.10698e-20)
(1.28086 0.47404 9.20299e-21)
(1.22747 0.467635 0)
(1.16934 0.457877 -2.01002e-20)
(1.10701 0.443674 -6.81453e-20)
(1.04109 0.423541 -7.25333e-20)
(0.972486 0.395838 0)
(0.911019 0.363913 -8.74891e-20)
(0.864093 0.334501 -1.13936e-19)
(0.828873 0.309594 1.44674e-19)
(0.801466 0.288854 -8.99001e-20)
(0.776021 0.270699 -4.31308e-19)
(0.73357 0.24954 2.61258e-19)
(0.634171 0.212922 8.00478e-20)
(0.455248 0.153446 0)
(0.235115 0.0800077 -8.63222e-19)
(0.0392632 0.0135444 -3.13225e-20)
(0.241175 0.0969548 2.85967e-20)
(1.13409 0.446391 -4.57193e-20)
(1.30725 0.520225 -5.77945e-20)
(1.31706 0.535788 -9.0958e-20)
(1.27392 0.531861 6.15869e-20)
(1.21884 0.522406 1.30145e-21)
(1.15863 0.509426 4.38098e-20)
(1.09385 0.491865 -1.07921e-19)
(1.02512 0.468231 5.09998e-20)
(0.953452 0.436833 -3.4462e-19)
(0.889306 0.401493 -1.02271e-19)
(0.84064 0.369456 0)
(0.80441 0.342703 1.57398e-19)
(0.776608 0.320667 1.91034e-19)
(0.751538 0.301491 2.31568e-19)
(0.711439 0.279267 -2.83945e-19)
(0.618217 0.240069 -8.45272e-20)
(0.447085 0.173562 9.92676e-20)
(0.232188 0.0903736 0)
(0.0391271 0.015284 -6.80081e-20)
(0.237977 0.106442 -3.48269e-19)
(1.12473 0.494972 2.1786e-19)
(1.30053 0.577922 6.51928e-20)
(1.30915 0.593564 -7.53118e-20)
(1.26469 0.587362 4.48157e-20)
(1.20822 0.575174 -7.89243e-21)
(1.14629 0.559287 -5.04165e-20)
(1.07938 0.538649 -3.97212e-20)
(1.00815 0.511738 -1.27046e-19)
(0.933694 0.476782 4.20102e-22)
(0.867093 0.437997 -3.13908e-19)
(0.816855 0.403134 2.80875e-19)
(0.779892 0.374193 -1.74185e-19)
(0.751912 0.350558 2.12391e-19)
(0.72727 0.330073 0)
(0.688966 0.306204 -1.53698e-19)
(0.600205 0.263908 -2.00283e-21)
(0.434433 0.190415 -4.32302e-19)
(0.224963 0.0981016 -6.33663e-20)
(0.0376892 0.0163723 0)
(0.235762 0.115728 0)
(1.11466 0.540991 2.39178e-19)
(1.29186 0.632661 1.61657e-19)
(1.29937 0.648536 8.98964e-20)
(1.25377 0.640344 3.59044e-20)
(1.19617 0.625735 0)
(1.13278 0.607243 -1.14996e-20)
(1.06402 0.583822 -2.37081e-21)
(0.990525 0.553899 2.7143e-19)
(0.91346 0.515565 -4.55186e-20)
(0.844527 0.473332 -2.27888e-19)
(0.792818 0.435467 1.43707e-19)
(0.755158 0.404076 -3.9821e-21)
(0.727058 0.378482 2.24644e-19)
(0.70284 0.356365 1.42323e-19)
(0.665918 0.330485 -3.33015e-19)
(0.579999 0.28427 3.98011e-19)
(0.418023 0.203768 1.17569e-19)
(0.214151 0.103256 4.81705e-19)
(0.0351222 0.0167249 -1.27384e-18)
(0.23444 0.124943 -9.46764e-20)
(1.10445 0.584641 1.43467e-19)
(1.28204 0.684477 -1.10228e-19)
(1.28825 0.700697 -1.12404e-19)
(1.24169 0.690714 0)
(1.18316 0.673958 2.50688e-20)
(1.11852 0.653166 4.86474e-20)
(1.04811 0.627261 8.04169e-20)
(0.972541 0.594609 0)
(0.892975 0.553122 -6.70732e-19)
(0.821711 0.507491 6.17365e-19)
(0.768446 0.466478 0)
(0.730005 0.43238 2.04159e-19)
(0.7018 0.404521 -3.9689e-21)
(0.67795 0.38043 -4.51772e-19)
(0.641919 0.352087 1.77148e-19)
(0.557728 0.301292 0)
(0.398616 0.213528 6.35812e-19)
(0.20069 0.105937 0)
(0.0318387 0.0165239 -6.04023e-19)
(0.233801 0.13412 1.0757e-19)
(1.09447 0.626082 1.68998e-19)
(1.27134 0.733432 -1.14369e-19)
(1.27623 0.750035 0)
(1.22887 0.738455 6.60349e-20)
(1.16955 0.719811 0)
(1.10383 0.696986 -2.73043e-20)
(1.03196 0.668892 -2.80657e-20)
(0.954448 0.633814 4.32031e-20)
(0.872425 0.589436 -3.31309e-19)
(0.798686 0.540515 6.21754e-20)
(0.7437 0.496264 0)
(0.704415 0.459208 -4.34812e-19)
(0.676014 0.428796 4.08061e-21)
(0.65241 0.402418 0)
(0.61679 0.371158 4.67992e-21)
(0.53321 0.315096 5.81512e-19)
(0.376384 0.219762 -5.523e-19)
(0.185143 0.106185 1.62104e-19)
(0.0280592 0.0157413 0)
(0.233531 0.143126 0)
(1.08499 0.665354 1.92918e-19)
(1.26011 0.779683 1.40395e-19)
(1.26368 0.796598 -4.46073e-21)
(1.21564 0.783588 4.89289e-20)
(1.15565 0.763291 6.30124e-20)
(1.089 0.738687 1.44718e-20)
(1.01581 0.708685 -4.03399e-20)
(0.936463 0.671483 2.01874e-19)
(0.851969 0.624529 -5.24073e-19)
(0.775623 0.572498 -6.54099e-21)
(0.718711 0.524967 -1.84995e-19)
(0.678323 0.484735 7.07849e-19)
(0.6496 0.451504 -4.82675e-21)
(0.62611 0.422519 -3.52328e-19)
(0.590437 0.387815 -6.3633e-19)
(0.506556 0.325771 0)
(0.351681 0.222644 0)
(0.167861 0.103987 1.76347e-19)
(0.0239855 0.0144148 -1.01649e-19)
(0.233793 0.152124 1.38433e-19)
(1.07592 0.702378 -4.2786e-19)
(1.24861 0.823313 -1.50567e-19)
(1.25089 0.840458 0)
(1.20225 0.826171 -3.07108e-21)
(1.14171 0.804424 9.43409e-20)
(1.07426 0.778277 9.90449e-21)
(0.999865 0.746634 1.32314e-19)
(0.918783 0.707624 2.51676e-19)
(0.831837 0.658437 -4.19317e-19)
(0.752724 0.60356 -5.25077e-19)
(0.693529 0.552769 4.93628e-19)
(0.651729 0.509177 0)
(0.622491 0.472819 -1.59268e-19)
(0.598967 0.440861 -3.83697e-19)
(0.562798 0.402099 -4.58524e-19)
(0.477789 0.333169 -5.49284e-19)
(0.324722 0.222064 1.62658e-19)
(0.149053 0.0992974 -9.5134e-20)
(0.0196013 0.0125599 6.84785e-22)
(0.234089 0.160943 0)
(1.06748 0.737563 0)
(1.23705 0.864392 5.0599e-21)
(1.23804 0.881708 0)
(1.18889 0.866286 -1.97822e-19)
(1.1279 0.843267 -9.56386e-20)
(1.05977 0.815783 0)
(0.984305 0.782755 1.07173e-20)
(0.901599 0.742244 4.02694e-19)
(0.81222 0.691197 -9.62259e-19)
(0.730116 0.633798 0)
(0.66826 0.579866 -3.16512e-19)
(0.62466 0.532754 -5.89956e-21)
(0.59462 0.492925 -4.83796e-21)
(0.570891 0.45752 4.09288e-19)
(0.533816 0.413945 -8.31636e-22)
(0.446982 0.337211 -1.18658e-18)
(0.295547 0.217841 3.51754e-19)
(0.12911 0.0922499 1.03652e-19)
(0.0151378 0.0103164 0)
(0.234406 0.169544 -5.206e-19)
(1.0594 0.771036 -2.69887e-19)
(1.22553 0.903017 -3.92282e-19)
(1.22529 0.920448 5.11502e-19)
(1.17573 0.904 -3.84465e-19)
(1.11437 0.879879 0)
(1.04567 0.851251 -1.63107e-20)
(0.969269 0.817073 -2.71325e-20)
(0.885049 0.77536 7.5587e-21)
(0.793258 0.722834 7.23574e-20)
(0.707974 0.663305 6.69105e-19)
(0.643073 0.606457 -1.09728e-19)
(0.59715 0.555749 -4.352e-19)
(0.565875 0.512036 -1.86922e-19)
(0.541714 0.472501 2.2506e-19)
(0.503423 0.423138 -5.78998e-22)
(0.414432 0.33762 3.22195e-19)
(0.264693 0.209951 -7.59191e-19)
(0.108761 0.0832012 8.95854e-19)
(0.0107896 0.00781656 1.28275e-19)
(0.234553 0.177836 1.93482e-19)
(1.05168 0.802852 -1.49092e-19)
(1.21418 0.93931 1.18749e-20)
(1.21277 0.956798 2.96837e-19)
(1.16287 0.939417 9.51791e-20)
(1.10123 0.914327 2.01394e-19)
(1.03208 0.884728 -1.6304e-20)
(0.954856 0.849607 -1.01535e-19)
(0.869239 0.806969 -4.13584e-19)
(0.775085 0.753351 -5.56017e-19)
(0.686495 0.692153 0)
(0.618132 0.632718 -4.85682e-19)
(0.569287 0.578466 6.28256e-19)
(0.536121 0.530442 0)
(0.51113 0.485791 -4.81262e-19)
(0.471432 0.42926 2.92597e-19)
(0.380349 0.333888 -3.46846e-19)
(0.233257 0.198436 -4.11356e-19)
(0.0889555 0.072661 -7.24373e-19)
(0.00680392 0.00525197 -5.56423e-19)
(0.234962 0.185914 -2.13946e-19)
(1.04417 0.83299 1.59202e-19)
(1.20305 0.973349 3.77462e-19)
(1.20054 0.990845 4.13112e-19)
(1.15039 0.972625 -1.96435e-19)
(1.08856 0.946693 1.49906e-19)
(1.01907 0.916264 -4.69638e-20)
(0.941138 0.880399 -8.58005e-20)
(0.854244 0.837094 -2.36326e-19)
(0.757832 0.782761 5.64996e-19)
(0.665836 0.720381 1.44566e-18)
(0.593643 0.658797 0)
(0.541209 0.601206 0)
(0.505215 0.548564 -2.15321e-19)
(0.478609 0.49747 0)
(0.437333 0.431577 6.32794e-19)
(0.345031 0.324898 7.51139e-19)
(0.202703 0.182925 0)
(0.0710884 0.0611466 0)
(0.00343235 0.00286896 6.00802e-19)
(0.235009 0.193507 2.38616e-19)
(1.03689 0.861453 1.97844e-19)
(1.1922 1.00525 2.71765e-19)
(1.18868 1.02271 -3.75518e-19)
(1.13836 1.00373 -2.24279e-19)
(1.07641 0.977052 -2.10346e-19)
(1.00667 0.945919 7.61922e-20)
(0.928165 0.90948 5.53372e-22)
(0.840134 0.86574 -9.71543e-21)
(0.741583 0.811051 -1.1506e-20)
(0.646167 0.748005 7.38539e-19)
(0.569827 0.684781 0)
(0.513157 0.624262 6.33011e-19)
(0.473116 0.566968 4.56224e-19)
(0.443385 0.507964 1.13304e-18)
(0.399884 0.429315 3.4077e-19)
(0.308354 0.308411 -4.08734e-19)
(0.175825 0.161432 -2.38952e-19)
(0.0594163 0.0485251 0)
(0.00194343 0.00115027 6.48009e-19)
(0.235304 0.201049 -5.26979e-19)
(1.02984 0.888341 0)
(1.18165 1.03508 3.07998e-19)
(1.1772 1.05249 -3.10104e-19)
(1.12682 1.03281 2.61763e-19)
(1.06481 1.00549 3.22769e-19)
(0.994936 0.973752 -2.06673e-19)
(0.915966 0.936886 -1.21969e-20)
(0.82694 0.892918 0)
(0.726403 0.838185 -5.92994e-19)
(0.627637 0.775006 -1.57307e-18)
(0.546918 0.710717 6.8927e-20)
(0.485473 0.647841 8.6496e-19)
(0.439982 0.586321 0)
(0.404645 0.518257 7.6408e-19)
(0.356758 0.422603 0)
(0.267398 0.281215 0)
(0.154532 0.124799 -2.61881e-19)
(0.0714237 0.0237156 0)
(0.0250173 0.00990494 1.74076e-19)
(0.235216 0.207944 -5.8087e-19)
(1.02296 0.91396 0)
(1.17137 1.06304 5.01414e-19)
(1.16609 1.08039 0)
(1.11572 1.06012 -1.44888e-19)
(1.0537 1.03228 0)
(0.98379 1.00007 -1.93184e-20)
(0.904444 0.962954 7.66272e-21)
(0.814545 0.918989 2.78577e-20)
(0.712148 0.864551 -6.30607e-19)
(0.610119 0.801811 4.48593e-20)
(0.524785 0.737169 5.59116e-19)
(0.45798 0.67251 8.38916e-19)
(0.405426 0.607657 1.16183e-19)
(0.36095 0.530283 5.97966e-19)
(0.304048 0.413877 0)
(0.210769 0.244177 8.7631e-19)
(0.110247 0.063177 -5.1043e-19)
(0.0459866 0.04895 5.84042e-19)
(-0.0583275 0.414432 -6.90882e-19)
(0.235105 0.214592 4.75481e-19)
(1.01604 0.938189 7.60418e-19)
(1.16131 1.08944 0)
(1.15521 1.10685 9.89927e-21)
(1.10491 1.08624 3.9987e-19)
(1.04285 1.05809 -6.56932e-19)
(0.972945 1.02565 -1.05645e-19)
(0.893223 0.988607 0)
(0.80246 0.94503 1.55706e-19)
(0.6982 0.891437 -2.96198e-20)
(0.59277 0.829877 0)
(0.50237 0.765913 0)
(0.42941 0.700051 7.43496e-19)
(0.368218 0.632873 -3.6099e-19)
(0.309827 0.547541 -6.01361e-19)
(0.237292 0.409417 0)
(0.120184 0.224764 4.41404e-19)
(0.0153444 0.429487 -5.04947e-19)
(0.0392427 1.8443 -2.72323e-19)
(0.0717444 2.78381 -3.62889e-19)
(0.234788 0.220446 -3.48186e-19)
(1.00919 0.961137 -9.62351e-19)
(1.15146 1.11428 2.90735e-19)
(1.14457 1.13172 2.71227e-19)
(1.09443 1.11094 0)
(1.03229 1.08264 -4.78815e-19)
(0.962582 1.05019 -1.93786e-19)
(0.882469 1.01342 -2.86473e-22)
(0.790929 0.970525 2.3676e-20)
(0.684908 0.918222 5.70743e-19)
(0.57616 0.858484 7.55238e-19)
(0.480643 0.79647 6.02186e-19)
(0.400898 0.730024 7.38091e-19)
(0.330621 0.660344 -8.33105e-19)
(0.257508 0.572942 -8.97962e-19)
(0.158969 0.43587 0)
(0.0613822 0.817016 0)
(0.115185 2.51771 2.34629e-19)
(0.118891 3.18043 0)
(0.121047 3.37979 5.15441e-19)
(0.237431 0.225915 0)
(1.00302 0.983016 0)
(1.14157 1.13744 0)
(1.13394 1.15479 7.69661e-20)
(1.08397 1.13399 3.58447e-19)
(1.02182 1.10579 -3.75643e-19)
(0.952603 1.07358 -1.44212e-19)
(0.872123 1.03728 1.73259e-21)
(0.779901 0.995325 1.51796e-19)
(0.672281 0.944753 -1.99283e-20)
(0.560401 0.887469 1.44301e-18)
(0.459975 0.828647 -6.97523e-20)
(0.372903 0.7631 8.64355e-20)
(0.29465 0.686913 1.18915e-19)
(0.201982 0.605279 1.99255e-21)
(0.123953 0.940724 3.49664e-21)
(0.160721 2.66114 -1.20691e-18)
(0.174297 3.27971 -4.54486e-19)
(0.159888 3.42471 2.17456e-19)
(0.143742 3.44911 -2.30975e-19)
(0.156418 0.177633 1.93573e-19)
(0.99179 1.00684 0)
(1.13143 1.15907 -5.671e-19)
(1.12389 1.1765 -6.97373e-19)
(1.07417 1.15606 7.67713e-19)
(1.01222 1.1281 4.03389e-19)
(0.942858 1.09589 1.743e-19)
(0.862254 1.06028 -1.04241e-19)
(0.769535 1.01952 -1.01137e-19)
(0.660639 0.971066 0)
(0.545963 0.916825 6.76569e-19)
(0.440996 0.86202 -4.70716e-19)
(0.346168 0.801805 0)
(0.261356 0.716269 1.04338e-19)
(0.177219 0.828235 2.52426e-19)
(0.176201 2.39416 -3.11657e-19)
(0.24356 3.31583 3.42942e-19)
(0.220275 3.44264 1.77538e-19)
(0.182702 3.46602 1.97941e-19)
(0.158202 3.477 2.90042e-19)
(0.276659 0.26315 -3.46723e-19)
(0.974969 1.01522 0)
(1.113 1.18328 5.91363e-19)
(1.10984 1.20855 7.40004e-19)
(1.05851 1.1886 -7.95834e-19)
(0.996202 1.16117 -4.43625e-19)
(0.926067 1.13031 -2.98941e-19)
(0.84502 1.09587 -7.21356e-21)
(0.75125 1.05725 5.14414e-20)
(0.640086 1.01268 4.00682e-19)
(0.521084 0.964725 3.45474e-20)
(0.409135 0.917852 3.96119e-19)
(0.299659 0.870449 7.61355e-20)
(0.231906 0.980596 -1.01237e-19)
(0.251022 2.24666 -2.32612e-19)
(0.317449 3.32006 1.95875e-19)
(0.303908 3.47819 -2.07602e-19)
(0.26483 3.50161 -1.19722e-19)
(0.225297 3.52957 -6.37121e-20)
(0.170065 3.52174 -7.24651e-21)
(0.265268 0.260165 0)
(0.972265 1.03718 1.59874e-19)
(1.10498 1.20595 -1.19193e-19)
(1.10005 1.23118 -8.44013e-20)
(1.04868 1.21117 -5.31316e-19)
(0.986509 1.18396 4.38245e-19)
(0.916149 1.15329 2.09053e-19)
(0.835104 1.11965 -9.26141e-21)
(0.741142 1.08248 -2.68612e-20)
(0.629247 1.04069 -2.83267e-20)
(0.508443 0.997478 -1.11196e-18)
(0.393592 0.956734 5.62794e-20)
(0.287499 0.935642 -6.92095e-20)
(0.272343 1.43347 -8.95404e-20)
(0.354688 3.05142 3.53733e-20)
(0.384478 3.4734 2.18196e-21)
(0.339673 3.53984 1.82293e-19)
(0.300163 3.56377 4.87975e-20)
(0.248148 3.58795 6.21425e-20)
(0.185389 3.58274 -3.77776e-21)
(0.249006 0.257603 3.93755e-19)
(0.967929 1.06152 1.08891e-18)
(1.0964 1.23058 -3.42576e-19)
(1.08977 1.25522 -3.21586e-19)
(1.03839 1.23505 0)
(0.976411 1.20784 6.65638e-19)
(0.906103 1.1774 3.32274e-19)
(0.825339 1.1445 -1.14927e-20)
(0.731515 1.10885 -4.16674e-21)
(0.619414 1.07001 -2.74458e-19)
(0.497594 1.03183 -4.69575e-19)
(0.381751 0.998301 -4.33702e-19)
(0.292424 1.05478 -4.91046e-19)
(0.343863 2.07879 5.20614e-19)
(0.445903 3.36874 3.65231e-19)
(0.433235 3.54027 0)
(0.381075 3.58674 0)
(0.342044 3.63027 6.58509e-20)
(0.281854 3.69409 0)
(0.197756 3.66411 1.37643e-19)
(0.237923 0.258667 -5.82967e-19)
(0.96144 1.0866 -9.16481e-19)
(1.08641 1.25632 0)
(1.07826 1.28007 1.1525e-20)
(1.02695 1.25949 -5.33961e-19)
(0.965264 1.23215 1.00766e-18)
(0.895335 1.20195 2.31194e-19)
(0.81507 1.16969 -1.99508e-20)
(0.721641 1.13546 5.01923e-20)
(0.609751 1.09952 8.49533e-21)
(0.487719 1.06647 0)
(0.373329 1.04254 0)