0.490941 	1.39286 	0.00579713 	3.0006 	-4.28398e-20
0.561075 	1.39286 	0.00579713 	3.0006 	-4.28398e-20
0.63121 	1.39286 	0.00579713 	3.0006 	-4.28398e-20
0.701344 	1.39286 	0.00579713 	3.0006 	-4.28398e-20
0.771478 	1.39286 	0.00579713 	3.0006 	-4.28398e-20
0.841613 	1.39286 	0.00579713 	3.0006 	-4.28398e-20
0.911747 	1.39286 	0.00579713 	3.0006 	-4.28398e-20
0.981881 	1.39286 	0.00579713 	3.0006 	-4.28398e-20
1.05202 	1.39286 	0.00579713 	3.0006 	-4.28398e-20
1.12215 	1.39286 	0.00579713 	3.0006 	-4.28398e-20
1.19228 	1.39286 	0.00579713 	3.0006 	-4.28398e-20
1.26242 	1.39286 	0.00579713 	3.0006 	-4.28398e-20
1.33255 	1.35355 	0.0139603 	3.01462 	-4.31882e-20
1.40269 	1.35355 	0.0139603 	3.01462 	-4.31882e-20
1.47282 	1.35355 	0.0139603 	3.01462 	-4.31882e-20
1.54296 	1.35355 	0.0139603 	3.01462 	-4.31882e-20
1.61309 	1.35355 	0.0139603 	3.01462 	-4.31882e-20
1.68323 	1.35355 	0.0139603 	3.01462 	-4.31882e-20
1.75336 	1.35355 	0.0139603 	3.01462 	-4.31882e-20
1.82349 	1.35355 	0.0139603 	3.01462 	-4.31882e-20
1.89363 	1.35355 	0.0139603 	3.01462 	-4.31882e-20
1.96376 	1.35355 	0.0139603 	3.01462 	-4.31882e-20
2.0339 	1.35355 	0.0139603 	3.01462 	-4.31882e-20
2.10403 	1.35355 	0.0139603 	3.01462 	-4.31882e-20
2.17417 	1.29278 	0.014284 	3.03161 	9.08752e-20
2.2443 	1.29278 	0.014284 	3.03161 	9.08752e-20
2.31443 	1.29278 	0.014284 	3.03161 	9.08752e-20
2.38457 	1.29278 	0.014284 	3.03161 	9.08752e-20
2.4547 	1.29278 	0.014284 	3.03161 	9.08752e-20
2.52484 	1.29278 	0.014284 	3.03161 	9.08752e-20
2.59497 	1.29278 	0.014284 	3.03161 	9.08752e-20
2.66511 	1.29278 	0.014284 	3.03161 	9.08752e-20
2.73524 	1.29278 	0.014284 	3.03161 	9.08752e-20
2.80538 	1.29278 	0.014284 	3.03161 	9.08752e-20
2.87551 	1.29278 	0.014284 	3.03161 	9.08752e-20
2.94564 	1.29278 	0.014284 	3.03161 	9.08752e-20
3.01578 	1.21882 	0.0163353 	3.05914 	-1.03595e-20
3.08591 	1.21882 	0.0163353 	3.05914 	-1.03595e-20
3.15605 	1.21882 	0.0163353 	3.05914 	-1.03595e-20
3.22618 	1.21882 	0.0163353 	3.05914 	-1.03595e-20
3.29632 	1.21882 	0.0163353 	3.05914 	-1.03595e-20
3.36645 	1.21882 	0.0163353 	3.05914 	-1.03595e-20
3.43659 	1.21882 	0.0163353 	3.05914 	-1.03595e-20
3.50672 	1.21882 	0.0163353 	3.05914 	-1.03595e-20
3.57685 	1.21882 	0.0163353 	3.05914 	-1.03595e-20
3.64699 	1.21882 	0.0163353 	3.05914 	-1.03595e-20
3.71712 	1.21882 	0.0163353 	3.05914 	-1.03595e-20
3.78726 	1.21162 	0.00723469 	3.05524 	2.032e-20
3.85739 	1.13273 	-0.000869174 	3.08449 	-1.46219e-19
3.92753 	1.13273 	-0.000869174 	3.08449 	-1.46219e-19
3.99766 	1.13273 	-0.000869174 	3.08449 	-1.46219e-19
4.06779 	1.13273 	-0.000869174 	3.08449 	-1.46219e-19
4.13793 	1.13273 	-0.000869174 	3.08449 	-1.46219e-19
4.20806 	1.13273 	-0.000869174 	3.08449 	-1.46219e-19
4.2782 	1.13273 	-0.000869174 	3.08449 	-1.46219e-19
4.34833 	1.13273 	-0.000869174 	3.08449 	-1.46219e-19
4.41847 	1.13273 	-0.000869174 	3.08449 	-1.46219e-19
4.4886 	1.13273 	-0.000869174 	3.08449 	-1.46219e-19
4.55874 	1.13273 	-0.000869174 	3.08449 	-1.46219e-19
4.62887 	1.13273 	-0.000869174 	3.08449 	-1.46219e-19
4.699 	1.13273 	-0.000869174 	3.08449 	-1.46219e-19
4.76914 	1.054 	0.00565181 	3.10631 	2.82104e-19
4.83927 	1.054 	0.00565181 	3.10631 	2.82104e-19
4.90941 	1.054 	0.00565181 	3.10631 	2.82104e-19
4.97954 	1.054 	0.00565181 	3.10631 	2.82104e-19
5.04968 	1.054 	0.00565181 	3.10631 	2.82104e-19
5.11981 	1.054 	0.00565181 	3.10631 	2.82104e-19
5.18994 	1.054 	0.00565181 	3.10631 	2.82104e-19
5.26008 	1.054 	0.00565181 	3.10631 	2.82104e-19
5.33021 	1.054 	0.00565181 	3.10631 	2.82104e-19
5.40035 	1.054 	0.00565181 	3.10631 	2.82104e-19
5.47048 	1.054 	0.00565181 	3.10631 	2.82104e-19
5.54062 	1.054 	0.00565181 	3.10631 	2.82104e-19
5.61075 	0.979374 	-0.00217364 	3.13395 	-1.35656e-19
5.68089 	0.979374 	-0.00217364 	3.13395 	-1.35656e-19
5.75102 	0.979374 	-0.00217364 	3.13395 	-1.35656e-19
5.82115 	0.979374 	-0.00217364 	3.13395 	-1.35656e-19
5.89129 	0.979374 	-0.00217364 	3.13395 	-1.35656e-19
5.96142 	0.979374 	-0.00217364 	3.13395 	-1.35656e-19
6.03156 	0.979374 	-0.00217364 	3.13395 	-1.35656e-19
6.10169 	0.979374 	-0.00217364 	3.13395 	-1.35656e-19
6.17183 	0.979374 	-0.00217364 	3.13395 	-1.35656e-19
6.24196 	0.979374 	-0.00217364 	3.13395 	-1.35656e-19
6.3121 	0.979374 	-0.00217364 	3.13395 	-1.35656e-19
6.38223 	0.979374 	-0.00217364 	3.13395 	-1.35656e-19
6.45236 	0.908107 	0.00558584 	3.15293 	0
6.5225 	0.908107 	0.00558584 	3.15293 	0
6.59263 	0.908107 	0.00558584 	3.15293 	0
6.66277 	0.908107 	0.00558584 	3.15293 	0
6.7329 	0.908107 	0.00558584 	3.15293 	0
6.80304 	0.908107 	0.00558584 	3.15293 	0
6.87317 	0.908107 	0.00558584 	3.15293 	0
6.9433 	0.908107 	0.00558584 	3.15293 	0
7.01344 	0.908107 	0.00558584 	3.15293 	0
7.08357 	0.908107 	0.00558584 	3.15293 	0
7.15371 	0.908107 	0.00558584 	3.15293 	0
7.22384 	0.908107 	0.00558584 	3.15293 	0
7.29398 	0.84017 	-0.00106237 	3.17826 	0
7.36411 	0.84017 	-0.00106237 	3.17826 	0
7.43425 	0.84017 	-0.00106237 	3.17826 	0
7.50438 	0.84017 	-0.00106237 	3.17826 	0
7.57451 	0.84017 	-0.00106237 	3.17826 	0
7.64465 	0.84017 	-0.00106237 	3.17826 	0
7.71478 	0.84017 	-0.00106237 	3.17826 	0
7.78492 	0.84017 	-0.00106237 	3.17826 	0
7.85505 	0.84017 	-0.00106237 	3.17826 	0
7.92519 	0.84017 	-0.00106237 	3.17826 	0
7.99532 	0.84017 	-0.00106237 	3.17826 	0
8.06545 	0.84017 	-0.00106237 	3.17826 	0
8.13559 	0.84017 	-0.00106237 	3.17826 	0
8.20572 	0.773037 	0.00851771 	3.19554 	3.78126e-22
8.27586 	0.773037 	0.00851771 	3.19554 	3.78126e-22
8.34599 	0.773037 	0.00851771 	3.19554 	3.78126e-22
8.41613 	0.773037 	0.00851771 	3.19554 	3.78126e-22
8.48626 	0.773037 	0.00851771 	3.19554 	3.78126e-22
8.5564 	0.773037 	0.00851771 	3.19554 	3.78126e-22
8.62653 	0.773037 	0.00851771 	3.19554 	3.78126e-22
8.69666 	0.773037 	0.00851771 	3.19554 	3.78126e-22
8.7668 	0.773037 	0.00851771 	3.19554 	3.78126e-22
8.83693 	0.773037 	0.00851771 	3.19554 	3.78126e-22
8.90707 	0.773037 	0.00851771 	3.19554 	3.78126e-22
8.9772 	0.773037 	0.00851771 	3.19554 	3.78126e-22
9.04734 	0.706673 	0.00451793 	3.22021 	1.7969e-19
9.11747 	0.706673 	0.00451793 	3.22021 	1.7969e-19
9.18761 	0.706673 	0.00451793 	3.22021 	1.7969e-19
9.25774 	0.706673 	0.00451793 	3.22021 	1.7969e-19
9.32787 	0.706673 	0.00451793 	3.22021 	1.7969e-19
9.39801 	0.706673 	0.00451793 	3.22021 	1.7969e-19
9.46814 	0.706673 	0.00451793 	3.22021 	1.7969e-19
9.53828 	0.706673 	0.00451793 	3.22021 	1.7969e-19
9.60841 	0.706673 	0.00451793 	3.22021 	1.7969e-19
9.67855 	0.706673 	0.00451793 	3.22021 	1.7969e-19
9.74868 	0.706673 	0.00451793 	3.22021 	1.7969e-19
9.81881 	0.706673 	0.00451793 	3.22021 	1.7969e-19
9.88895 	0.706673 	0.00451793 	3.22021 	1.7969e-19
9.95908 	0.639459 	0.0196653 	3.23717 	-7.79516e-21
10.0292 	0.639459 	0.0196653 	3.23717 	-7.79516e-21
10.0994 	0.639459 	0.0196653 	3.23717 	-7.79516e-21
10.1695 	0.639459 	0.0196653 	3.23717 	-7.79516e-21
10.2396 	0.639459 	0.0196653 	3.23717 	-7.79516e-21
10.3098 	0.639459 	0.0196653 	3.23717 	-7.79516e-21
10.3799 	0.639459 	0.0196653 	3.23717 	-7.79516e-21
10.45 	0.639459 	0.0196653 	3.23717 	-7.79516e-21
10.5202 	0.639459 	0.0196653 	3.23717 	-7.79516e-21
10.5903 	0.639459 	0.0196653 	3.23717 	-7.79516e-21
10.6604 	0.639459 	0.0196653 	3.23717 	-7.79516e-21
10.7306 	0.639459 	0.0196653 	3.23717 	-7.79516e-21
10.8007 	0.571109 	0.0265071 	3.26222 	-1.69902e-19
10.8708 	0.571109 	0.0265071 	3.26222 	-1.69902e-19
10.941 	0.571109 	0.0265071 	3.26222 	-1.69902e-19
11.0111 	0.571109 	0.0265071 	3.26222 	-1.69902e-19
11.0812 	0.571109 	0.0265071 	3.26222 	-1.69902e-19
11.1514 	0.571109 	0.0265071 	3.26222 	-1.69902e-19
11.2215 	0.571109 	0.0265071 	3.26222 	-1.69902e-19
11.2916 	0.571109 	0.0265071 	3.26222 	-1.69902e-19
11.3618 	0.571109 	0.0265071 	3.26222 	-1.69902e-19
11.4319 	0.571109 	0.0265071 	3.26222 	-1.69902e-19
11.502 	0.571109 	0.0265071 	3.26222 	-1.69902e-19
11.5722 	0.571109 	0.0265071 	3.26222 	-1.69902e-19
11.6423 	0.571109 	0.0265071 	3.26222 	-1.69902e-19
11.7124 	0.495965 	0.059799 	3.28185 	-2.32942e-19
11.7826 	0.495965 	0.059799 	3.28185 	-2.32942e-19
11.8527 	0.495965 	0.059799 	3.28185 	-2.32942e-19
11.9228 	0.495965 	0.059799 	3.28185 	-2.32942e-19
11.993 	0.495965 	0.059799 	3.28185 	-2.32942e-19
12.0631 	0.495965 	0.059799 	3.28185 	-2.32942e-19
12.1332 	0.495965 	0.059799 	3.28185 	-2.32942e-19
12.2034 	0.495965 	0.059799 	3.28185 	-2.32942e-19
12.2735 	0.495965 	0.059799 	3.28185 	-2.32942e-19
12.3437 	0.495965 	0.059799 	3.28185 	-2.32942e-19
12.4138 	0.495965 	0.059799 	3.28185 	-2.32942e-19
12.4839 	0.495965 	0.059799 	3.28185 	-2.32942e-19
12.5541 	0.495965 	0.059799 	3.28185 	-2.32942e-19
12.6242 	0.40875 	0.0871791 	3.31047 	4.23619e-19
12.6943 	0.40875 	0.0871791 	3.31047 	4.23619e-19
12.7645 	0.40875 	0.0871791 	3.31047 	4.23619e-19
12.8346 	0.40875 	0.0871791 	3.31047 	4.23619e-19
12.9047 	0.40875 	0.0871791 	3.31047 	4.23619e-19
12.9749 	0.40875 	0.0871791 	3.31047 	4.23619e-19
13.045 	0.40875 	0.0871791 	3.31047 	4.23619e-19
13.1151 	0.40875 	0.0871791 	3.31047 	4.23619e-19
13.1853 	0.40875 	0.0871791 	3.31047 	4.23619e-19
13.2554 	0.40875 	0.0871791 	3.31047 	4.23619e-19
13.3255 	0.40875 	0.0871791 	3.31047 	4.23619e-19
13.3957 	0.40875 	0.0871791 	3.31047 	4.23619e-19
13.4658 	0.40875 	0.0871791 	3.31047 	4.23619e-19
13.5359 	0.29192 	0.166759 	3.34726 	-1.89577e-19
13.6061 	0.29192 	0.166759 	3.34726 	-1.89577e-19
13.6762 	0.29192 	0.166759 	3.34726 	-1.89577e-19
13.7463 	0.29192 	0.166759 	3.34726 	-1.89577e-19
13.8165 	0.29192 	0.166759 	3.34726 	-1.89577e-19
13.8866 	0.29192 	0.166759 	3.34726 	-1.89577e-19
13.9567 	0.29192 	0.166759 	3.34726 	-1.89577e-19
14.0269 	0.29192 	0.166759 	3.34726 	-1.89577e-19
14.097 	0.29192 	0.166759 	3.34726 	-1.89577e-19
14.1671 	0.29192 	0.166759 	3.34726 	-1.89577e-19
14.2373 	0.29192 	0.166759 	3.34726 	-1.89577e-19
14.3074 	0.29192 	0.166759 	3.34726 	-1.89577e-19
14.3776 	0.179224 	0.192559 	3.37214 	0
14.4477 	-0.0339582 	0.189154 	3.43318 	-2.27326e-20
14.5178 	-0.0339582 	0.189154 	3.43318 	-2.27326e-20
14.588 	-0.0339582 	0.189154 	3.43318 	-2.27326e-20
14.6581 	-0.0339582 	0.189154 	3.43318 	-2.27326e-20
14.7282 	-0.0339582 	0.189154 	3.43318 	-2.27326e-20
14.7984 	-0.0339582 	0.189154 	3.43318 	-2.27326e-20
14.8685 	-0.0108485 	0.215322 	3.4246 	4.11243e-20
14.9386 	-0.0108485 	0.215322 	3.4246 	4.11243e-20
15.0088 	-0.0108485 	0.215322 	3.4246 	4.11243e-20
15.0789 	-0.0108485 	0.215322 	3.4246 	4.11243e-20
15.149 	-0.0108485 	0.215322 	3.4246 	4.11243e-20
15.2192 	-0.259895 	0.281683 	3.49383 	-4.06358e-19
15.2893 	-0.259895 	0.281683 	3.49383 	-4.06358e-19
15.3594 	-0.259895 	0.281683 	3.49383 	-4.06358e-19
15.4296 	-0.132043 	0.356815 	3.44934 	2.00567e-19
15.4997 	-0.132043 	0.356815 	3.44934 	2.00567e-19
15.5698 	-0.132043 	0.356815 	3.44934 	2.00567e-19
15.64 	-0.132043 	0.356815 	3.44934 	2.00567e-19
15.7101 	-0.132043 	0.356815 	3.44934 	2.00567e-19
15.7802 	-0.132043 	0.356815 	3.44934 	2.00567e-19
15.8504 	-0.132043 	0.356815 	3.44934 	2.00567e-19
15.9205 	-0.403545 	0.356692 	3.55018 	9.95488e-20
15.9906 	-0.403545 	0.356692 	3.55018 	9.95488e-20
16.0608 	-0.403545 	0.356692 	3.55018 	9.95488e-20
16.1309 	-0.185564 	0.446898 	3.46101 	-5.16486e-20
16.201 	-0.185564 	0.446898 	3.46101 	-5.16486e-20
16.2712 	-0.185564 	0.446898 	3.46101 	-5.16486e-20
16.3413 	-0.185564 	0.446898 	3.46101 	-5.16486e-20
16.4114 	-0.185564 	0.446898 	3.46101 	-5.16486e-20
16.4816 	-0.185564 	0.446898 	3.46101 	-5.16486e-20
16.5517 	-0.185564 	0.446898 	3.46101 	-5.16486e-20
16.6219 	-0.385283 	0.549717 	3.54177 	0
16.692 	-0.385283 	0.549717 	3.54177 	0
16.7621 	-0.385283 	0.549717 	3.54177 	0
16.8323 	-0.385283 	0.549717 	3.54177 	0
16.9024 	-0.385283 	0.549717 	3.54177 	0
16.9725 	-0.140833 	0.555999 	3.43732 	-2.68471e-20
17.0427 	-0.140833 	0.555999 	3.43732 	-2.68471e-20
17.1128 	-0.140833 	0.555999 	3.43732 	-2.68471e-20
17.1829 	-0.140833 	0.555999 	3.43732 	-2.68471e-20
17.2531 	-0.303462 	0.647418 	3.49778 	-3.11158e-19
17.3232 	-0.303462 	0.647418 	3.49778 	-3.11158e-19
17.3933 	-0.303462 	0.647418 	3.49778 	-3.11158e-19
17.4635 	-0.303462 	0.647418 	3.49778 	-3.11158e-19
17.5336 	-0.303462 	0.647418 	3.49778 	-3.11158e-19
17.6037 	-0.303462 	0.647418 	3.49778 	-3.11158e-19
17.6739 	-0.303462 	0.647418 	3.49778 	-3.11158e-19
17.744 	-0.303462 	0.647418 	3.49778 	-3.11158e-19
17.8141 	-0.303462 	0.647418 	3.49778 	-3.11158e-19
17.8843 	-0.303462 	0.647418 	3.49778 	-3.11158e-19
17.9544 	-0.21649 	0.66509 	3.40649 	0
18.0245 	-0.21649 	0.66509 	3.40649 	0
18.0947 	-0.21649 	0.66509 	3.40649 	0
18.1648 	-0.21649 	0.66509 	3.40649 	0
18.2349 	-0.21649 	0.66509 	3.40649 	0
18.3051 	-0.21649 	0.66509 	3.40649 	0
18.3752 	-0.21649 	0.66509 	3.40649 	0
18.4453 	-0.21649 	0.66509 	3.40649 	0
18.5155 	-0.21649 	0.66509 	3.40649 	0
18.5856 	-0.319004 	0.764442 	3.45573 	0
18.6557 	-0.319004 	0.764442 	3.45573 	0
18.7259 	-0.319004 	0.764442 	3.45573 	0
18.796 	-0.319004 	0.764442 	3.45573 	0
18.8662 	-0.319004 	0.764442 	3.45573 	0
18.9363 	-0.319004 	0.764442 	3.45573 	0
19.0064 	-0.319004 	0.764442 	3.45573 	0
19.0766 	-0.319004 	0.764442 	3.45573 	0
19.1467 	-0.319004 	0.764442 	3.45573 	0
19.2168 	-0.375495 	0.815028 	3.43931 	2.01099e-19
19.287 	-0.125813 	0.732508 	3.19322 	8.8876e-20
19.3571 	-0.125813 	0.732508 	3.19322 	8.8876e-20
19.4272 	-0.125813 	0.732508 	3.19322 	8.8876e-20
19.4974 	-0.125813 	0.732508 	3.19322 	8.8876e-20
19.5675 	-0.125813 	0.732508 	3.19322 	8.8876e-20
19.6376 	-0.125813 	0.732508 	3.19322 	8.8876e-20
19.7078 	-0.125813 	0.732508 	3.19322 	8.8876e-20
19.7779 	-0.125813 	0.732508 	3.19322 	8.8876e-20
19.848 	-0.125813 	0.732508 	3.19322 	8.8876e-20
19.9182 	-0.179003 	0.814919 	3.28288 	1.75307e-19
19.9883 	-0.179003 	0.814919 	3.28288 	1.75307e-19
20.0584 	-0.179003 	0.814919 	3.28288 	1.75307e-19
20.1286 	-0.179003 	0.814919 	3.28288 	1.75307e-19
20.1987 	-0.179003 	0.814919 	3.28288 	1.75307e-19
20.2688 	-0.179003 	0.814919 	3.28288 	1.75307e-19
20.339 	-0.179003 	0.814919 	3.28288 	1.75307e-19
20.4091 	-0.179003 	0.814919 	3.28288 	1.75307e-19
20.4792 	-0.179003 	0.814919 	3.28288 	1.75307e-19
20.5494 	-0.179003 	0.814919 	3.28288 	1.75307e-19
20.6195 	-0.238867 	0.858017 	3.32089 	1.42656e-19
20.6896 	-0.238867 	0.858017 	3.32089 	1.42656e-19
20.7598 	-0.238867 	0.858017 	3.32089 	1.42656e-19
20.8299 	-0.238867 	0.858017 	3.32089 	1.42656e-19
20.9 	-0.140172 	0.737686 	2.66344 	1.20137e-19
20.9702 	-0.140172 	0.737686 	2.66344 	1.20137e-19
21.0403 	-0.140172 	0.737686 	2.66344 	1.20137e-19
21.1105 	-0.140172 	0.737686 	2.66344 	1.20137e-19
21.1806 	-0.140172 	0.737686 	2.66344 	1.20137e-19
21.2507 	-0.140172 	0.737686 	2.66344 	1.20137e-19
21.3209 	-0.187532 	0.810992 	2.87651 	0
21.391 	-0.187532 	0.810992 	2.87651 	0
21.4611 	-0.187532 	0.810992 	2.87651 	0
21.5313 	-0.187532 	0.810992 	2.87651 	0
21.6014 	-0.187532 	0.810992 	2.87651 	0
21.6715 	-0.187532 	0.810992 	2.87651 	0
21.7417 	-0.187532 	0.810992 	2.87651 	0
21.8118 	-0.187532 	0.810992 	2.87651 	0
21.8819 	-0.187532 	0.810992 	2.87651 	0
21.9521 	-0.187532 	0.810992 	2.87651 	0
22.0222 	-0.187532 	0.810992 	2.87651 	0
22.0923 	-0.231131 	0.862867 	3.00771 	1.64823e-19
22.1625 	-0.231131 	0.862867 	3.00771 	1.64823e-19
22.2326 	-0.231131 	0.862867 	3.00771 	1.64823e-19
22.3027 	-0.231131 	0.862867 	3.00771 	1.64823e-19
22.3729 	-0.231131 	0.862867 	3.00771 	1.64823e-19
22.443 	-0.231131 	0.862867 	3.00771 	1.64823e-19
22.5131 	-0.231131 	0.862867 	3.00771 	1.64823e-19
22.5833 	-0.231131 	0.862867 	3.00771 	1.64823e-19
22.6534 	-0.231131 	0.862867 	3.00771 	1.64823e-19
22.7235 	-0.231131 	0.862867 	3.00771 	1.64823e-19
22.7937 	-0.231131 	0.862867 	3.00771 	1.64823e-19
22.8638 	-0.284436 	0.918955 	3.09535 	-4.34714e-19
22.9339 	-0.284436 	0.918955 	3.09535 	-4.34714e-19
23.0041 	-0.284436 	0.918955 	3.09535 	-4.34714e-19
23.0742 	-0.243012 	0.723551 	2.11823 	-6.8792e-20
23.1443 	-0.243012 	0.723551 	2.11823 	-6.8792e-20
23.2145 	-0.243012 	0.723551 	2.11823 	-6.8792e-20
23.2846 	-0.243012 	0.723551 	2.11823 	-6.8792e-20
23.3548 	-0.243012 	0.723551 	2.11823 	-6.8792e-20
23.4249 	-0.243012 	0.723551 	2.11823 	-6.8792e-20
23.495 	-0.243012 	0.723551 	2.11823 	-6.8792e-20
23.5652 	-0.243012 	0.723551 	2.11823 	-6.8792e-20
23.6353 	-0.243012 	0.723551 	2.11823 	-6.8792e-20
23.7054 	-0.294264 	0.776304 	2.27413 	6.00391e-20
23.7756 	-0.294264 	0.776304 	2.27413 	6.00391e-20
23.8457 	-0.294264 	0.776304 	2.27413 	6.00391e-20
23.9158 	-0.294264 	0.776304 	2.27413 	6.00391e-20
23.986 	-0.294264 	0.776304 	2.27413 	6.00391e-20
24.0561 	-0.294264 	0.776304 	2.27413 	6.00391e-20
24.1262 	-0.294264 	0.776304 	2.27413 	6.00391e-20
24.1964 	-0.294264 	0.776304 	2.27413 	6.00391e-20
24.2665 	-0.294264 	0.776304 	2.27413 	6.00391e-20
24.3366 	-0.294264 	0.776304 	2.27413 	6.00391e-20
24.4068 	-0.294264 	0.776304 	2.27413 	6.00391e-20
24.4769 	-0.294264 	0.776304 	2.27413 	6.00391e-20
24.547 	-0.294264 	0.776304 	2.27413 	6.00391e-20
24.6172 	-0.339901 	0.825688 	2.41454 	-4.68902e-19
24.6873 	-0.339901 	0.825688 	2.41454 	-4.68902e-19
24.7574 	-0.339901 	0.825688 	2.41454 	-4.68902e-19
24.8276 	-0.339901 	0.825688 	2.41454 	-4.68902e-19
24.8977 	-0.339901 	0.825688 	2.41454 	-4.68902e-19
24.9678 	-0.339901 	0.825688 	2.41454 	-4.68902e-19
25.038 	-0.339901 	0.825688 	2.41454 	-4.68902e-19
25.1081 	-0.339901 	0.825688 	2.41454 	-4.68902e-19
25.1782 	-0.339901 	0.825688 	2.41454 	-4.68902e-19
25.2484 	-0.339901 	0.825688 	2.41454 	-4.68902e-19
25.3185 	-0.339901 	0.825688 	2.41454 	-4.68902e-19
25.3886 	-0.339901 	0.825688 	2.41454 	-4.68902e-19
25.4588 	-0.378978 	0.872066 	2.50394 	4.74115e-19
25.5289 	-0.378978 	0.872066 	2.50394 	4.74115e-19
25.5991 	-0.378978 	0.872066 	2.50394 	4.74115e-19
25.6692 	-0.378978 	0.872066 	2.50394 	4.74115e-19
25.7393 	-0.378978 	0.872066 	2.50394 	4.74115e-19
25.8095 	-0.378978 	0.872066 	2.50394 	4.74115e-19
25.8796 	-0.378978 	0.872066 	2.50394 	4.74115e-19
25.9497 	-0.378978 	0.872066 	2.50394 	4.74115e-19
26.0199 	-0.378978 	0.872066 	2.50394 	4.74115e-19
26.09 	-0.343249 	0.637582 	1.6283 	7.97694e-20
26.1601 	-0.343249 	0.637582 	1.6283 	7.97694e-20
26.2303 	-0.343249 	0.637582 	1.6283 	7.97694e-20
26.3004 	-0.343249 	0.637582 	1.6283 	7.97694e-20
26.3705 	-0.343249 	0.637582 	1.6283 	7.97694e-20
26.4407 	-0.378907 	0.654576 	1.68071 	-1.05255e-19
26.5108 	-0.378907 	0.654576 	1.68071 	-1.05255e-19
26.5809 	-0.378907 	0.654576 	1.68071 	-1.05255e-19
26.6511 	-0.378907 	0.654576 	1.68071 	-1.05255e-19
26.7212 	-0.378907 	0.654576 	1.68071 	-1.05255e-19
26.7913 	-0.378907 	0.654576 	1.68071 	-1.05255e-19
26.8615 	-0.378907 	0.654576 	1.68071 	-1.05255e-19
26.9316 	-0.378907 	0.654576 	1.68071 	-1.05255e-19
27.0017 	-0.378907 	0.654576 	1.68071 	-1.05255e-19
27.0719 	-0.378907 	0.654576 	1.68071 	-1.05255e-19
27.142 	-0.378907 	0.654576 	1.68071 	-1.05255e-19
27.2121 	-0.378907 	0.654576 	1.68071 	-1.05255e-19
27.2823 	-0.378907 	0.654576 	1.68071 	-1.05255e-19
27.3524 	-0.412069 	0.663976 	1.70828 	0
27.4225 	-0.412069 	0.663976 	1.70828 	0
27.4927 	-0.412069 	0.663976 	1.70828 	0
27.5628 	-0.412069 	0.663976 	1.70828 	0
27.6329 	-0.412069 	0.663976 	1.70828 	0
27.7031 	-0.412069 	0.663976 	1.70828 	0
27.7732 	-0.412069 	0.663976 	1.70828 	0
27.8434 	-0.412069 	0.663976 	1.70828 	0
27.9135 	-0.412069 	0.663976 	1.70828 	0
27.9836 	-0.412069 	0.663976 	1.70828 	0
28.0538 	-0.412069 	0.663976 	1.70828 	0
28.1239 	-0.412069 	0.663976 	1.70828 	0
28.194 	-0.412069 	0.663976 	1.70828 	0
28.2642 	-0.412069 	0.663976 	1.70828 	0
28.3343 	-0.412069 	0.663976 	1.70828 	0
28.4044 	-0.439297 	0.663732 	1.71251 	0
28.4746 	-0.439297 	0.663732 	1.71251 	0
28.5447 	-0.439297 	0.663732 	1.71251 	0
28.6148 	-0.439297 	0.663732 	1.71251 	0
28.685 	-0.439297 	0.663732 	1.71251 	0
28.7551 	-0.439297 	0.663732 	1.71251 	0
28.8252 	-0.439297 	0.663732 	1.71251 	0
28.8954 	-0.439297 	0.663732 	1.71251 	0
28.9655 	-0.439297 	0.663732 	1.71251 	0
29.0356 	-0.439297 	0.663732 	1.71251 	0
29.1058 	-0.439297 	0.663732 	1.71251 	0
29.1759 	-0.439297 	0.663732 	1.71251 	0
29.246 	-0.439297 	0.663732 	1.71251 	0
29.3162 	-0.439297 	0.663732 	1.71251 	0
29.3863 	-0.439297 	0.663732 	1.71251 	0
29.4564 	-0.449324 	0.646044 	1.69422 	-1.85681e-19
29.5266 	-0.449324 	0.646044 	1.69422 	-1.85681e-19
29.5967 	-0.449324 	0.646044 	1.69422 	-1.85681e-19
29.6668 	-0.449324 	0.646044 	1.69422 	-1.85681e-19
29.737 	-0.449324 	0.646044 	1.69422 	-1.85681e-19
29.8071 	-0.449324 	0.646044 	1.69422 	-1.85681e-19
29.8773 	-0.449324 	0.646044 	1.69422 	-1.85681e-19
29.9474 	-0.449324 	0.646044 	1.69422 	-1.85681e-19
30.0175 	-0.449324 	0.646044 	1.69422 	-1.85681e-19
30.0877 	-0.449324 	0.646044 	1.69422 	-1.85681e-19
30.1578 	-0.449324 	0.646044 	1.69422 	-1.85681e-19
30.2279 	-0.449324 	0.646044 	1.69422 	-1.85681e-19
30.2981 	-0.449324 	0.646044 	1.69422 	-1.85681e-19
30.3682 	-0.449324 	0.646044 	1.69422 	-1.85681e-19
30.4383 	-0.449324 	0.646044 	1.69422 	-1.85681e-19
30.5085 	-0.449324 	0.646044 	1.69422 	-1.85681e-19
30.5786 	-0.429455 	0.620749 	1.63651 	2.22605e-20
30.6487 	-0.429455 	0.620749 	1.63651 	2.22605e-20
30.7189 	-0.429455 	0.620749 	1.63651 	2.22605e-20
30.789 	-0.429455 	0.620749 	1.63651 	2.22605e-20
30.8591 	-0.429455 	0.620749 	1.63651 	2.22605e-20
30.9293 	-0.429455 	0.620749 	1.63651 	2.22605e-20
30.9994 	-0.429455 	0.620749 	1.63651 	2.22605e-20
31.0695 	-0.429455 	0.620749 	1.63651 	2.22605e-20
31.1397 	-0.429455 	0.620749 	1.63651 	2.22605e-20
31.2098 	-0.429455 	0.620749 	1.63651 	2.22605e-20
31.2799 	-0.429455 	0.620749 	1.63651 	2.22605e-20
31.3501 	-0.429455 	0.620749 	1.63651 	2.22605e-20
31.4202 	-0.429455 	0.620749 	1.63651 	2.22605e-20
31.4903 	-0.429455 	0.620749 	1.63651 	2.22605e-20
31.5605 	-0.463154 	0.532588 	1.48301 	-2.82815e-19
31.6306 	-0.463154 	0.532588 	1.48301 	-2.82815e-19
31.7007 	-0.433236 	0.501671 	1.45724 	1.74895e-19
31.7709 	-0.433236 	0.501671 	1.45724 	1.74895e-19
31.841 	-0.433236 	0.501671 	1.45724 	1.74895e-19
31.9111 	-0.433236 	0.501671 	1.45724 	1.74895e-19
31.9813 	-0.433236 	0.501671 	1.45724 	1.74895e-19
32.0514 	-0.433236 	0.501671 	1.45724 	1.74895e-19
32.1216 	-0.433236 	0.501671 	1.45724 	1.74895e-19
32.1917 	-0.433236 	0.501671 	1.45724 	1.74895e-19
32.2618 	-0.433236 	0.501671 	1.45724 	1.74895e-19
32.332 	-0.433236 	0.501671 	1.45724 	1.74895e-19
32.4021 	-0.433236 	0.501671 	1.45724 	1.74895e-19
32.4722 	-0.433236 	0.501671 	1.45724 	1.74895e-19
32.5424 	-0.433236 	0.501671 	1.45724 	1.74895e-19
32.6125 	-0.433236 	0.501671 	1.45724 	1.74895e-19
32.6826 	-0.433236 	0.501671 	1.45724 	1.74895e-19
32.7528 	-0.433236 	0.501671 	1.45724 	1.74895e-19
32.8229 	-0.433236 	0.501671 	1.45724 	1.74895e-19
32.893 	-0.433236 	0.501671 	1.45724 	1.74895e-19
32.9632 	-0.391343 	0.446992 	1.4299 	4.3753e-20
33.0333 	-0.391343 	0.446992 	1.4299 	4.3753e-20
33.1034 	-0.391343 	0.446992 	1.4299 	4.3753e-20
33.1736 	-0.391343 	0.446992 	1.4299 	4.3753e-20
33.2437 	-0.391343 	0.446992 	1.4299 	4.3753e-20
33.3138 	-0.391343 	0.446992 	1.4299 	4.3753e-20
33.384 	-0.391343 	0.446992 	1.4299 	4.3753e-20
33.4541 	-0.391343 	0.446992 	1.4299 	4.3753e-20
33.5242 	-0.391343 	0.446992 	1.4299 	4.3753e-20
33.5944 	-0.391343 	0.446992 	1.4299 	4.3753e-20
33.6645 	-0.391343 	0.446992 	1.4299 	4.3753e-20
33.7346 	-0.391343 	0.446992 	1.4299 	4.3753e-20
33.8048 	-0.391343 	0.446992 	1.4299 	4.3753e-20
33.8749 	-0.391343 	0.446992 	1.4299 	4.3753e-20
33.945 	-0.391343 	0.446992 	1.4299 	4.3753e-20
34.0152 	-0.391343 	0.446992 	1.4299 	4.3753e-20
34.0853 	-0.391343 	0.446992 	1.4299 	4.3753e-20
34.1554 	-0.391343 	0.446992 	1.4299 	4.3753e-20
34.2256 	-0.353022 	0.370732 	1.4063 	-2.5679e-20
34.2957 	-0.353022 	0.370732 	1.4063 	-2.5679e-20
34.3659 	-0.353022 	0.370732 	1.4063 	-2.5679e-20
34.436 	-0.353022 	0.370732 	1.4063 	-2.5679e-20
34.5061 	-0.353022 	0.370732 	1.4063 	-2.5679e-20
34.5763 	-0.353022 	0.370732 	1.4063 	-2.5679e-20
34.6464 	-0.353022 	0.370732 	1.4063 	-2.5679e-20
34.7165 	-0.353022 	0.370732 	1.4063 	-2.5679e-20
34.7867 	-0.353022 	0.370732 	1.4063 	-2.5679e-20
34.8568 	-0.353022 	0.370732 	1.4063 	-2.5679e-20
34.9269 	-0.353022 	0.370732 	1.4063 	-2.5679e-20
34.9971 	-0.353022 	0.370732 	1.4063 	-2.5679e-20
35.0672 	-0.353022 	0.370732 	1.4063 	-2.5679e-20
35.1373 	-0.353022 	0.370732 	1.4063 	-2.5679e-20
35.2075 	-0.353022 	0.370732 	1.4063 	-2.5679e-20
35.2776 	-0.353022 	0.370732 	1.4063 	-2.5679e-20
35.3477 	-0.353022 	0.370732 	1.4063 	-2.5679e-20
35.4179 	-0.353022 	0.370732 	1.4063 	-2.5679e-20
35.488 	-0.353022 	0.370732 	1.4063 	-2.5679e-20
35.5581 	-0.353022 	0.370732 	1.4063 	-2.5679e-20
35.6283 	-0.334495 	0.284144 	1.40043 	-7.93195e-21
35.6984 	-0.334495 	0.284144 	1.40043 	-7.93195e-21
35.7685 	-0.334495 	0.284144 	1.40043 	-7.93195e-21
35.8387 	-0.334495 	0.284144 	1.40043 	-7.93195e-21
35.9088 	-0.334495 	0.284144 	1.40043 	-7.93195e-21
35.9789 	-0.334495 	0.284144 	1.40043 	-7.93195e-21
36.0491 	-0.334495 	0.284144 	1.40043 	-7.93195e-21
36.1192 	-0.334495 	0.284144 	1.40043 	-7.93195e-21
36.1893 	-0.334495 	0.284144 	1.40043 	-7.93195e-21
36.2595 	-0.334495 	0.284144 	1.40043 	-7.93195e-21
36.3296 	-0.334495 	0.284144 	1.40043 	-7.93195e-21
36.3997 	-0.334495 	0.284144 	1.40043 	-7.93195e-21
36.4699 	-0.334495 	0.284144 	1.40043 	-7.93195e-21
36.54 	-0.334495 	0.284144 	1.40043 	-7.93195e-21
36.6102 	-0.334495 	0.284144 	1.40043 	-7.93195e-21
36.6803 	-0.334495 	0.284144 	1.40043 	-7.93195e-21
36.7504 	-0.334495 	0.284144 	1.40043 	-7.93195e-21
36.8206 	-0.334495 	0.284144 	1.40043 	-7.93195e-21
36.8907 	-0.334495 	0.284144 	1.40043 	-7.93195e-21
36.9608 	-0.334495 	0.284144 	1.40043 	-7.93195e-21
37.031 	-0.334495 	0.284144 	1.40043 	-7.93195e-21
37.1011 	-0.341703 	0.213907 	1.41321 	0
37.1712 	-0.341703 	0.213907 	1.41321 	0
37.2414 	-0.341703 	0.213907 	1.41321 	0
37.3115 	-0.341703 	0.213907 	1.41321 	0
37.3816 	-0.341703 	0.213907 	1.41321 	0
37.4518 	-0.341703 	0.213907 	1.41321 	0
37.5219 	-0.341703 	0.213907 	1.41321 	0
37.592 	-0.341703 	0.213907 	1.41321 	0
37.6622 	-0.341703 	0.213907 	1.41321 	0
37.7323 	-0.341703 	0.213907 	1.41321 	0
37.8024 	-0.341703 	0.213907 	1.41321 	0
37.8726 	-0.341703 	0.213907 	1.41321 	0
37.9427 	-0.341703 	0.213907 	1.41321 	0
38.0128 	-0.341703 	0.213907 	1.41321 	0
38.083 	-0.341703 	0.213907 	1.41321 	0
38.1531 	-0.341703 	0.213907 	1.41321 	0
38.2232 	-0.341703 	0.213907 	1.41321 	0
38.2934 	-0.35267 	0.153837 	1.43045 	0
38.3635 	-0.35267 	0.153837 	1.43045 	0
38.4336 	-0.35267 	0.153837 	1.43045 	0
38.5038 	-0.35267 	0.153837 	1.43045 	0
38.5739 	-0.35267 	0.153837 	1.43045 	0
38.644 	-0.35267 	0.153837 	1.43045 	0
38.7142 	-0.35267 	0.153837 	1.43045 	0
38.7843 	-0.35267 	0.153837 	1.43045 	0
38.8545 	-0.35267 	0.153837 	1.43045 	0
38.9246 	-0.35267 	0.153837 	1.43045 	0
38.9947 	-0.35267 	0.153837 	1.43045 	0
39.0649 	-0.35267 	0.153837 	1.43045 	0
39.135 	-0.35267 	0.153837 	1.43045 	0
39.2051 	-0.35267 	0.153837 	1.43045 	0
39.2753 	-0.35267 	0.153837 	1.43045 	0
39.3454 	-0.35267 	0.153837 	1.43045 	0
39.4155 	-0.35267 	0.153837 	1.43045 	0
39.4857 	-0.35267 	0.153837 	1.43045 	0
39.5558 	-0.359667 	0.0981933 	1.44673 	0
39.6259 	-0.359667 	0.0981933 	1.44673 	0
39.6961 	-0.359667 	0.0981933 	1.44673 	0
39.7662 	-0.359667 	0.0981933 	1.44673 	0
39.8363 	-0.359667 	0.0981933 	1.44673 	0
39.9065 	-0.359667 	0.0981933 	1.44673 	0
39.9766 	-0.359667 	0.0981933 	1.44673 	0
40.0467 	-0.359667 	0.0981933 	1.44673 	0
40.1169 	-0.359667 	0.0981933 	1.44673 	0
40.187 	-0.359667 	0.0981933 	1.44673 	0
40.2571 	-0.359667 	0.0981933 	1.44673 	0
40.3273 	-0.359667 	0.0981933 	1.44673 	0
40.3974 	-0.359667 	0.0981933 	1.44673 	0
40.4675 	-0.359667 	0.0981933 	1.44673 	0
40.5377 	-0.359667 	0.0981933 	1.44673 	0
40.6078 	-0.359667 	0.0981933 	1.44673 	0
40.6779 	-0.359667 	0.0981933 	1.44673 	0
40.7481 	-0.361742 	0.0607357 	1.45955 	0
40.8182 	-0.361742 	0.0607357 	1.45955 	0
40.8883 	-0.361742 	0.0607357 	1.45955 	0
40.9585 	-0.361742 	0.0607357 	1.45955 	0
41.0286 	-0.361742 	0.0607357 	1.45955 	0
41.0988 	-0.361742 	0.0607357 	1.45955 	0
41.1689 	-0.361742 	0.0607357 	1.45955 	0
41.239 	-0.361742 	0.0607357 	1.45955 	0
41.3092 	-0.361742 	0.0607357 	1.45955 	0
41.3793 	-0.361742 	0.0607357 	1.45955 	0
41.4494 	-0.361742 	0.0607357 	1.45955 	0
41.5196 	-0.361742 	0.0607357 	1.45955 	0
41.5897 	-0.361742 	0.0607357 	1.45955 	0
41.6598 	-0.361742 	0.0607357 	1.45955 	0
41.73 	-0.361742 	0.0607357 	1.45955 	0
41.8001 	-0.361742 	0.0607357 	1.45955 	0
41.8702 	-0.361742 	0.0607357 	1.45955 	0
41.9404 	-0.361742 	0.0607357 	1.45955 	0
42.0105 	-0.359194 	0.0455538 	1.47147 	0
42.0806 	-0.359194 	0.0455538 	1.47147 	0
42.1508 	-0.359194 	0.0455538 	1.47147 	0
42.2209 	-0.359194 	0.0455538 	1.47147 	0
42.291 	-0.359194 	0.0455538 	1.47147 	0
42.3612 	-0.359194 	0.0455538 	1.47147 	0
42.4313 	-0.359194 	0.0455538 	1.47147 	0
42.5014 	-0.359194 	0.0455538 	1.47147 	0
42.5716 	-0.359194 	0.0455538 	1.47147 	0
42.6417 	-0.359194 	0.0455538 	1.47147 	0
42.7118 	-0.359194 	0.0455538 	1.47147 	0
42.782 	-0.359194 	0.0455538 	1.47147 	0
42.8521 	-0.359194 	0.0455538 	1.47147 	0
42.9222 	-0.359194 	0.0455538 	1.47147 	0
42.9924 	-0.359194 	0.0455538 	1.47147 	0
43.0625 	-0.359194 	0.0455538 	1.47147 	0
43.1327 	-0.359194 	0.0455538 	1.47147 	0
43.2028 	-0.353594 	0.0456547 	1.48525 	0
43.2729 	-0.353594 	0.0456547 	1.48525 	0
43.3431 	-0.353594 	0.0456547 	1.48525 	0
43.4132 	-0.353594 	0.0456547 	1.48525 	0
43.4833 	-0.353594 	0.0456547 	1.48525 	0
43.5535 	-0.353594 	0.0456547 	1.48525 	0
43.6236 	-0.353594 	0.0456547 	1.48525 	0
43.6937 	-0.353594 	0.0456547 	1.48525 	0
43.7639 	-0.353594 	0.0456547 	1.48525 	0
43.834 	-0.353594 	0.0456547 	1.48525 	0
43.9041 	-0.353594 	0.0456547 	1.48525 	0
43.9743 	-0.353594 	0.0456547 	1.48525 	0
44.0444 	-0.353594 	0.0456547 	1.48525 	0
44.1145 	-0.353594 	0.0456547 	1.48525 	0
44.1847 	-0.353594 	0.0456547 	1.48525 	0