0.490941 	1.14222 	0.00611793 	3.00277 	0
0.561075 	1.14222 	0.00611793 	3.00277 	0
0.63121 	1.14222 	0.00611793 	3.00277 	0
0.701344 	1.14222 	0.00611793 	3.00277 	0
0.771478 	1.14222 	0.00611793 	3.00277 	0
0.841613 	1.14222 	0.00611793 	3.00277 	0
0.911747 	1.14222 	0.00611793 	3.00277 	0
0.981881 	1.14222 	0.00611793 	3.00277 	0
1.05202 	1.14222 	0.00611793 	3.00277 	0
1.12215 	1.14222 	0.00611793 	3.00277 	0
1.19228 	1.14222 	0.00611793 	3.00277 	0
1.26242 	1.11607 	0.0114987 	3.008 	0
1.33255 	1.11607 	0.0114987 	3.008 	0
1.40269 	1.11607 	0.0114987 	3.008 	0
1.47282 	1.11607 	0.0114987 	3.008 	0
1.54296 	1.11607 	0.0114987 	3.008 	0
1.61309 	1.11607 	0.0114987 	3.008 	0
1.68323 	1.11607 	0.0114987 	3.008 	0
1.75336 	1.11607 	0.0114987 	3.008 	0
1.82349 	1.06627 	0.0148331 	3.02389 	4.08637e-19
1.89363 	1.06627 	0.0148331 	3.02389 	4.08637e-19
1.96376 	1.06627 	0.0148331 	3.02389 	4.08637e-19
2.0339 	1.06627 	0.0148331 	3.02389 	4.08637e-19
2.10403 	1.06627 	0.0148331 	3.02389 	4.08637e-19
2.17417 	1.06627 	0.0148331 	3.02389 	4.08637e-19
2.2443 	1.06627 	0.0148331 	3.02389 	4.08637e-19
2.31443 	1.06627 	0.0148331 	3.02389 	4.08637e-19
2.38457 	1.06627 	0.0148331 	3.02389 	4.08637e-19
2.4547 	1.06627 	0.0148331 	3.02389 	4.08637e-19
2.52484 	1.06627 	0.0148331 	3.02389 	4.08637e-19
2.59497 	1.03166 	0.0073534 	3.03678 	-6.47564e-19
2.66511 	1.03166 	0.0073534 	3.03678 	-6.47564e-19
2.73524 	1.03166 	0.0073534 	3.03678 	-6.47564e-19
2.80538 	1.03166 	0.0073534 	3.03678 	-6.47564e-19
2.87551 	1.03166 	0.0073534 	3.03678 	-6.47564e-19
2.94564 	1.03166 	0.0073534 	3.03678 	-6.47564e-19
3.01578 	1.03166 	0.0073534 	3.03678 	-6.47564e-19
3.08591 	1.03166 	0.0073534 	3.03678 	-6.47564e-19
3.15605 	1.03166 	0.0073534 	3.03678 	-6.47564e-19
3.22618 	1.03166 	0.0073534 	3.03678 	-6.47564e-19
3.29632 	0.999212 	0.0201942 	3.04337 	6.54301e-19
3.36645 	0.999212 	0.0201942 	3.04337 	6.54301e-19
3.43659 	0.999212 	0.0201942 	3.04337 	6.54301e-19
3.50672 	0.999212 	0.0201942 	3.04337 	6.54301e-19
3.57685 	0.999212 	0.0201942 	3.04337 	6.54301e-19
3.64699 	0.999212 	0.0201942 	3.04337 	6.54301e-19
3.71712 	0.999212 	0.0201942 	3.04337 	6.54301e-19
3.78726 	0.999212 	0.0201942 	3.04337 	6.54301e-19
3.85739 	0.999212 	0.0201942 	3.04337 	6.54301e-19
3.92753 	0.999212 	0.0201942 	3.04337 	6.54301e-19
3.99766 	0.999212 	0.0201942 	3.04337 	6.54301e-19
4.06779 	0.980906 	0.00360719 	3.05024 	-1.84022e-20
4.13793 	0.980906 	0.00360719 	3.05024 	-1.84022e-20
4.20806 	0.980906 	0.00360719 	3.05024 	-1.84022e-20
4.2782 	0.980906 	0.00360719 	3.05024 	-1.84022e-20
4.34833 	0.980906 	0.00360719 	3.05024 	-1.84022e-20
4.41847 	0.980906 	0.00360719 	3.05024 	-1.84022e-20
4.4886 	0.955931 	0.01669 	3.05775 	0
4.55874 	0.955931 	0.01669 	3.05775 	0
4.62887 	0.955931 	0.01669 	3.05775 	0
4.699 	0.955931 	0.01669 	3.05775 	0
4.76914 	0.955931 	0.01669 	3.05775 	0
4.83927 	0.955931 	0.01669 	3.05775 	0
4.90941 	0.955931 	0.01669 	3.05775 	0
4.97954 	0.955931 	0.01669 	3.05775 	0
5.04968 	0.955931 	0.01669 	3.05775 	0
5.11981 	0.955931 	0.01669 	3.05775 	0
5.18994 	0.93361 	0.00578454 	3.06492 	-8.69993e-21
5.26008 	0.93361 	0.00578454 	3.06492 	-8.69993e-21
5.33021 	0.93361 	0.00578454 	3.06492 	-8.69993e-21
5.40035 	0.93361 	0.00578454 	3.06492 	-8.69993e-21
5.47048 	0.93361 	0.00578454 	3.06492 	-8.69993e-21
5.54062 	0.93361 	0.00578454 	3.06492 	-8.69993e-21
5.61075 	0.93361 	0.00578454 	3.06492 	-8.69993e-21
5.68089 	0.904856 	0.0111903 	3.07419 	0
5.75102 	0.904856 	0.0111903 	3.07419 	0
5.82115 	0.904856 	0.0111903 	3.07419 	0
5.89129 	0.904856 	0.0111903 	3.07419 	0
5.96142 	0.904856 	0.0111903 	3.07419 	0
6.03156 	0.904856 	0.0111903 	3.07419 	0
6.10169 	0.904856 	0.0111903 	3.07419 	0
6.17183 	0.904856 	0.0111903 	3.07419 	0
6.24196 	0.904856 	0.0111903 	3.07419 	0
6.3121 	0.875451 	0.00719703 	3.08262 	0
6.38223 	0.875451 	0.00719703 	3.08262 	0
6.45236 	0.875451 	0.00719703 	3.08262 	0
6.5225 	0.875451 	0.00719703 	3.08262 	0
6.59263 	0.875451 	0.00719703 	3.08262 	0
6.66277 	0.875451 	0.00719703 	3.08262 	0
6.7329 	0.875451 	0.00719703 	3.08262 	0
6.80304 	0.875451 	0.00719703 	3.08262 	0
6.87317 	0.84999 	0.00636747 	3.0915 	2.91705e-19
6.9433 	0.84999 	0.00636747 	3.0915 	2.91705e-19
7.01344 	0.84999 	0.00636747 	3.0915 	2.91705e-19
7.08357 	0.84999 	0.00636747 	3.0915 	2.91705e-19
7.15371 	0.84999 	0.00636747 	3.0915 	2.91705e-19
7.22384 	0.84999 	0.00636747 	3.0915 	2.91705e-19
7.29398 	0.84999 	0.00636747 	3.0915 	2.91705e-19
7.36411 	0.84999 	0.00636747 	3.0915 	2.91705e-19
7.43425 	0.84999 	0.00636747 	3.0915 	2.91705e-19
7.50438 	0.818703 	0.00866803 	3.09871 	-2.16926e-18
7.57451 	0.818703 	0.00866803 	3.09871 	-2.16926e-18
7.64465 	0.818703 	0.00866803 	3.09871 	-2.16926e-18
7.71478 	0.818703 	0.00866803 	3.09871 	-2.16926e-18
7.78492 	0.818703 	0.00866803 	3.09871 	-2.16926e-18
7.85505 	0.818703 	0.00866803 	3.09871 	-2.16926e-18
7.92519 	0.818703 	0.00866803 	3.09871 	-2.16926e-18
7.99532 	0.818703 	0.00866803 	3.09871 	-2.16926e-18
8.06545 	0.798375 	0.00188591 	3.10689 	2.11801e-18
8.13559 	0.798375 	0.00188591 	3.10689 	2.11801e-18
8.20572 	0.798375 	0.00188591 	3.10689 	2.11801e-18
8.27586 	0.798375 	0.00188591 	3.10689 	2.11801e-18
8.34599 	0.798375 	0.00188591 	3.10689 	2.11801e-18
8.41613 	0.798375 	0.00188591 	3.10689 	2.11801e-18
8.48626 	0.798375 	0.00188591 	3.10689 	2.11801e-18
8.5564 	0.798375 	0.00188591 	3.10689 	2.11801e-18
8.62653 	0.798375 	0.00188591 	3.10689 	2.11801e-18
8.69666 	0.768324 	0.016565 	3.1181 	1.89039e-18
8.7668 	0.768324 	0.016565 	3.1181 	1.89039e-18
8.83693 	0.768324 	0.016565 	3.1181 	1.89039e-18
8.90707 	0.768324 	0.016565 	3.1181 	1.89039e-18
8.9772 	0.768324 	0.016565 	3.1181 	1.89039e-18
9.04734 	0.768324 	0.016565 	3.1181 	1.89039e-18
9.11747 	0.768324 	0.016565 	3.1181 	1.89039e-18
9.18761 	0.768324 	0.016565 	3.1181 	1.89039e-18
9.25774 	0.738494 	0.00378769 	3.11797 	-1.76684e-18
9.32787 	0.738494 	0.00378769 	3.11797 	-1.76684e-18
9.39801 	0.738494 	0.00378769 	3.11797 	-1.76684e-18
9.46814 	0.738494 	0.00378769 	3.11797 	-1.76684e-18
9.53828 	0.738494 	0.00378769 	3.11797 	-1.76684e-18
9.60841 	0.738494 	0.00378769 	3.11797 	-1.76684e-18
9.67855 	0.738494 	0.00378769 	3.11797 	-1.76684e-18
9.74868 	0.738494 	0.00378769 	3.11797 	-1.76684e-18
9.81881 	0.720421 	0.0161593 	3.12972 	-5.58284e-19
9.88895 	0.720421 	0.0161593 	3.12972 	-5.58284e-19
9.95908 	0.720421 	0.0161593 	3.12972 	-5.58284e-19
10.0292 	0.720421 	0.0161593 	3.12972 	-5.58284e-19
10.0994 	0.720421 	0.0161593 	3.12972 	-5.58284e-19
10.1695 	0.720421 	0.0161593 	3.12972 	-5.58284e-19
10.2396 	0.720421 	0.0161593 	3.12972 	-5.58284e-19
10.3098 	0.720421 	0.0161593 	3.12972 	-5.58284e-19
10.3799 	0.720421 	0.0161593 	3.12972 	-5.58284e-19
10.45 	0.720421 	0.0161593 	3.12972 	-5.58284e-19
10.5202 	0.720421 	0.0161593 	3.12972 	-5.58284e-19
10.5903 	0.720421 	0.0161593 	3.12972 	-5.58284e-19
10.6604 	0.742431 	0.0141371 	3.12579 	8.21679e-19
10.7306 	0.690324 	0.0347594 	3.14001 	0
10.8007 	0.690324 	0.0347594 	3.14001 	0
10.8708 	0.690324 	0.0347594 	3.14001 	0
10.941 	0.690324 	0.0347594 	3.14001 	0
11.0111 	0.690324 	0.0347594 	3.14001 	0
11.0812 	0.690324 	0.0347594 	3.14001 	0
11.1514 	0.690324 	0.0347594 	3.14001 	0
11.2215 	0.690324 	0.0347594 	3.14001 	0
11.2916 	0.690324 	0.0347594 	3.14001 	0
11.3618 	0.690324 	0.0347594 	3.14001 	0
11.4319 	0.690324 	0.0347594 	3.14001 	0
11.502 	0.690324 	0.0347594 	3.14001 	0
11.5722 	0.690324 	0.0347594 	3.14001 	0
11.6423 	0.690324 	0.0347594 	3.14001 	0
11.7124 	0.698531 	0.0219209 	3.12995 	0
11.7826 	0.638786 	0.0755695 	3.16032 	9.31838e-19
11.8527 	0.638786 	0.0755695 	3.16032 	9.31838e-19
11.9228 	0.638786 	0.0755695 	3.16032 	9.31838e-19
11.993 	0.638786 	0.0755695 	3.16032 	9.31838e-19
12.0631 	0.638786 	0.0755695 	3.16032 	9.31838e-19
12.1332 	0.638786 	0.0755695 	3.16032 	9.31838e-19
12.2034 	0.543267 	0.0684397 	3.18568 	-4.60514e-19
12.2735 	0.543267 	0.0684397 	3.18568 	-4.60514e-19
12.3437 	0.543267 	0.0684397 	3.18568 	-4.60514e-19
12.4138 	0.543267 	0.0684397 	3.18568 	-4.60514e-19
12.4839 	0.543267 	0.0684397 	3.18568 	-4.60514e-19
12.5541 	0.543267 	0.0684397 	3.18568 	-4.60514e-19
12.6242 	0.543267 	0.0684397 	3.18568 	-4.60514e-19
12.6943 	0.543267 	0.0684397 	3.18568 	-4.60514e-19
12.7645 	0.543267 	0.0684397 	3.18568 	-4.60514e-19
12.8346 	0.430483 	0.035371 	3.17783 	4.27189e-19
12.9047 	0.41765 	0.136101 	3.22083 	-2.09648e-19
12.9749 	0.41765 	0.136101 	3.22083 	-2.09648e-19
13.045 	0.41765 	0.136101 	3.22083 	-2.09648e-19
13.1151 	0.41765 	0.136101 	3.22083 	-2.09648e-19
13.1853 	0.41765 	0.136101 	3.22083 	-2.09648e-19
13.2554 	0.41765 	0.136101 	3.22083 	-2.09648e-19
13.3255 	0.41765 	0.136101 	3.22083 	-2.09648e-19
13.3957 	0.643927 	0.140796 	3.19239 	1.44616e-18
13.4658 	0.643927 	0.140796 	3.19239 	1.44616e-18
13.5359 	0.643927 	0.140796 	3.19239 	1.44616e-18
13.6061 	0.643927 	0.140796 	3.19239 	1.44616e-18
13.6762 	0.643927 	0.140796 	3.19239 	1.44616e-18
13.7463 	0.643927 	0.140796 	3.19239 	1.44616e-18
13.8165 	0.725102 	0.110108 	2.86538 	-1.19974e-18
13.8866 	0.936423 	0.13311 	2.95944 	5.54131e-19
13.9567 	0.936423 	0.13311 	2.95944 	5.54131e-19
14.0269 	0.351947 	0.242824 	3.03264 	-1.83348e-18
14.097 	0.351947 	0.242824 	3.03264 	-1.83348e-18
14.1671 	0.351947 	0.242824 	3.03264 	-1.83348e-18
14.2373 	0.351947 	0.242824 	3.03264 	-1.83348e-18
14.3074 	0.351947 	0.242824 	3.03264 	-1.83348e-18
14.3776 	0.351947 	0.242824 	3.03264 	-1.83348e-18
14.4477 	0.351947 	0.242824 	3.03264 	-1.83348e-18
14.5178 	0.351947 	0.242824 	3.03264 	-1.83348e-18
14.588 	0.351947 	0.242824 	3.03264 	-1.83348e-18
14.6581 	0.351947 	0.242824 	3.03264 	-1.83348e-18
14.7282 	0.351947 	0.242824 	3.03264 	-1.83348e-18
14.7984 	0.351947 	0.242824 	3.03264 	-1.83348e-18
14.8685 	0.351947 	0.242824 	3.03264 	-1.83348e-18
14.9386 	0.175432 	0.337206 	3.1916 	0
15.0088 	0.175432 	0.337206 	3.1916 	0
15.0789 	0.175432 	0.337206 	3.1916 	0
15.149 	0.175432 	0.337206 	3.1916 	0
15.2192 	0.175432 	0.337206 	3.1916 	0
15.2893 	-0.332643 	0.338587 	3.41794 	-2.07131e-19
15.3594 	-0.332643 	0.338587 	3.41794 	-2.07131e-19
15.4296 	-0.332643 	0.338587 	3.41794 	-2.07131e-19
15.4997 	-0.332643 	0.338587 	3.41794 	-2.07131e-19
15.5698 	-0.332643 	0.338587 	3.41794 	-2.07131e-19
15.64 	-0.332643 	0.338587 	3.41794 	-2.07131e-19
15.7101 	-0.825589 	0.39358 	3.48838 	0
15.7802 	-0.825589 	0.39358 	3.48838 	0
15.8504 	-0.718586 	0.645767 	3.5454 	1.26176e-18
15.9205 	-0.718586 	0.645767 	3.5454 	1.26176e-18
15.9906 	-0.718586 	0.645767 	3.5454 	1.26176e-18
16.0608 	-0.718586 	0.645767 	3.5454 	1.26176e-18
16.1309 	-0.718586 	0.645767 	3.5454 	1.26176e-18
16.201 	-0.718586 	0.645767 	3.5454 	1.26176e-18
16.2712 	-0.718586 	0.645767 	3.5454 	1.26176e-18
16.3413 	-0.718586 	0.645767 	3.5454 	1.26176e-18
16.4114 	-0.718586 	0.645767 	3.5454 	1.26176e-18
16.4816 	-0.718586 	0.645767 	3.5454 	1.26176e-18
16.5517 	-0.718586 	0.645767 	3.5454 	1.26176e-18
16.6219 	-0.718586 	0.645767 	3.5454 	1.26176e-18
16.692 	-0.718586 	0.645767 	3.5454 	1.26176e-18
16.7621 	-0.718586 	0.645767 	3.5454 	1.26176e-18
16.8323 	-0.26608 	0.869759 	3.11329 	6.95903e-20
16.9024 	-0.26608 	0.869759 	3.11329 	6.95903e-20
16.9725 	-0.26608 	0.869759 	3.11329 	6.95903e-20
17.0427 	-0.26608 	0.869759 	3.11329 	6.95903e-20
17.1128 	-0.26608 	0.869759 	3.11329 	6.95903e-20
17.1829 	-0.26608 	0.869759 	3.11329 	6.95903e-20
17.2531 	-0.26608 	0.869759 	3.11329 	6.95903e-20
17.3232 	-0.26608 	0.869759 	3.11329 	6.95903e-20
17.3933 	-0.26608 	0.869759 	3.11329 	6.95903e-20
17.4635 	-0.26608 	0.869759 	3.11329 	6.95903e-20
17.5336 	-0.17254 	0.912411 	3.02959 	-3.64783e-20
17.6037 	-0.17254 	0.912411 	3.02959 	-3.64783e-20
17.6739 	-0.17254 	0.912411 	3.02959 	-3.64783e-20
17.744 	-0.264431 	1.04154 	3.15946 	1.33016e-19
17.8141 	-0.264431 	1.04154 	3.15946 	1.33016e-19
17.8843 	-0.264431 	1.04154 	3.15946 	1.33016e-19
17.9544 	-0.264431 	1.04154 	3.15946 	1.33016e-19
18.0245 	-0.264431 	1.04154 	3.15946 	1.33016e-19
18.0947 	-0.264431 	1.04154 	3.15946 	1.33016e-19
18.1648 	-0.264431 	1.04154 	3.15946 	1.33016e-19
18.2349 	-0.264431 	1.04154 	3.15946 	1.33016e-19
18.3051 	-0.264431 	1.04154 	3.15946 	1.33016e-19
18.3752 	0.0237839 	1.00431 	2.76123 	-1.01152e-19
18.4453 	0.0237839 	1.00431 	2.76123 	-1.01152e-19
18.5155 	0.0237839 	1.00431 	2.76123 	-1.01152e-19
18.5856 	0.0237839 	1.00431 	2.76123 	-1.01152e-19
18.6557 	0.0237839 	1.00431 	2.76123 	-1.01152e-19
18.7259 	0.0237839 	1.00431 	2.76123 	-1.01152e-19
18.796 	0.0237839 	1.00431 	2.76123 	-1.01152e-19
18.8662 	0.0863035 	1.04293 	2.81907 	-1.66003e-19
18.9363 	0.0863035 	1.04293 	2.81907 	-1.66003e-19
19.0064 	0.0863035 	1.04293 	2.81907 	-1.66003e-19
19.0766 	0.0863035 	1.04293 	2.81907 	-1.66003e-19
19.1467 	0.0863035 	1.04293 	2.81907 	-1.66003e-19
19.2168 	0.0863035 	1.04293 	2.81907 	-1.66003e-19
19.287 	0.0863035 	1.04293 	2.81907 	-1.66003e-19
19.3571 	0.0863035 	1.04293 	2.81907 	-1.66003e-19
19.4272 	0.0863035 	1.04293 	2.81907 	-1.66003e-19
19.4974 	0.0863035 	1.04293 	2.81907 	-1.66003e-19
19.5675 	0.0863035 	1.04293 	2.81907 	-1.66003e-19
19.6376 	0.0863035 	1.04293 	2.81907 	-1.66003e-19
19.7078 	0.0863035 	1.04293 	2.81907 	-1.66003e-19
19.7779 	0.232766 	0.990187 	2.44474 	-1.13941e-19
19.848 	0.232766 	0.990187 	2.44474 	-1.13941e-19
19.9182 	0.232766 	0.990187 	2.44474 	-1.13941e-19
19.9883 	0.232766 	0.990187 	2.44474 	-1.13941e-19
20.0584 	0.232766 	0.990187 	2.44474 	-1.13941e-19
20.1286 	0.232766 	0.990187 	2.44474 	-1.13941e-19
20.1987 	0.232766 	0.990187 	2.44474 	-1.13941e-19
20.2688 	0.226834 	0.995903 	2.43715 	2.98899e-19
20.339 	0.226834 	0.995903 	2.43715 	2.98899e-19
20.4091 	0.226834 	0.995903 	2.43715 	2.98899e-19
20.4792 	0.226834 	0.995903 	2.43715 	2.98899e-19
20.5494 	0.226834 	0.995903 	2.43715 	2.98899e-19
20.6195 	0.226834 	0.995903 	2.43715 	2.98899e-19
20.6896 	0.226834 	0.995903 	2.43715 	2.98899e-19
20.7598 	0.226834 	0.995903 	2.43715 	2.98899e-19
20.8299 	0.226834 	0.995903 	2.43715 	2.98899e-19
20.9 	0.226834 	0.995903 	2.43715 	2.98899e-19
20.9702 	0.226834 	0.995903 	2.43715 	2.98899e-19
21.0403 	0.226834 	0.995903 	2.43715 	2.98899e-19
21.1105 	0.226834 	0.995903 	2.43715 	2.98899e-19
21.1806 	0.226834 	0.995903 	2.43715 	2.98899e-19
21.2507 	0.226834 	0.995903 	2.43715 	2.98899e-19
21.3209 	0.226834 	0.995903 	2.43715 	2.98899e-19
21.391 	0.226834 	0.995903 	2.43715 	2.98899e-19
21.4611 	0.241317 	0.69904 	1.90157 	-4.07877e-19
21.5313 	0.241317 	0.69904 	1.90157 	-4.07877e-19
21.6014 	0.241317 	0.69904 	1.90157 	-4.07877e-19
21.6715 	0.135248 	0.611093 	1.39978 	-4.29019e-20
21.7417 	0.135248 	0.611093 	1.39978 	-4.29019e-20
21.8118 	0.135248 	0.611093 	1.39978 	-4.29019e-20
21.8819 	0.135248 	0.611093 	1.39978 	-4.29019e-20
21.9521 	0.135248 	0.611093 	1.39978 	-4.29019e-20
22.0222 	0.0019925 	0.932519 	2.33957 	1.03338e-19
22.0923 	0.0019925 	0.932519 	2.33957 	1.03338e-19
22.1625 	0.0019925 	0.932519 	2.33957 	1.03338e-19
22.2326 	0.0019925 	0.932519 	2.33957 	1.03338e-19
22.3027 	0.0019925 	0.932519 	2.33957 	1.03338e-19
22.3729 	0.0019925 	0.932519 	2.33957 	1.03338e-19
22.443 	0.0019925 	0.932519 	2.33957 	1.03338e-19
22.5131 	0.0019925 	0.932519 	2.33957 	1.03338e-19
22.5833 	0.0019925 	0.932519 	2.33957 	1.03338e-19
22.6534 	0.0019925 	0.932519 	2.33957 	1.03338e-19
22.7235 	0.0019925 	0.932519 	2.33957 	1.03338e-19
22.7937 	0.0019925 	0.932519 	2.33957 	1.03338e-19
22.8638 	0.0019925 	0.932519 	2.33957 	1.03338e-19
22.9339 	0.0019925 	0.932519 	2.33957 	1.03338e-19
23.0041 	0.0019925 	0.932519 	2.33957 	1.03338e-19
23.0742 	0.0019925 	0.932519 	2.33957 	1.03338e-19
23.1443 	0.0019925 	0.932519 	2.33957 	1.03338e-19
23.2145 	0.0019925 	0.932519 	2.33957 	1.03338e-19
23.2846 	0.0019925 	0.932519 	2.33957 	1.03338e-19
23.3548 	0.0019925 	0.932519 	2.33957 	1.03338e-19
23.4249 	0.0019925 	0.932519 	2.33957 	1.03338e-19
23.495 	0.190742 	0.90019 	2.31893 	-8.42755e-20
23.5652 	0.190742 	0.90019 	2.31893 	-8.42755e-20
23.6353 	0.190742 	0.90019 	2.31893 	-8.42755e-20
23.7054 	0.190742 	0.90019 	2.31893 	-8.42755e-20
23.7756 	0.190742 	0.90019 	2.31893 	-8.42755e-20
23.8457 	0.190742 	0.90019 	2.31893 	-8.42755e-20
23.9158 	0.190742 	0.90019 	2.31893 	-8.42755e-20
23.986 	0.319191 	0.838686 	2.17857 	3.8499e-21
24.0561 	0.319191 	0.838686 	2.17857 	3.8499e-21
24.1262 	0.319191 	0.838686 	2.17857 	3.8499e-21
24.1964 	0.319191 	0.838686 	2.17857 	3.8499e-21
24.2665 	0.319191 	0.838686 	2.17857 	3.8499e-21
24.3366 	0.319191 	0.838686 	2.17857 	3.8499e-21
24.4068 	0.319191 	0.838686 	2.17857 	3.8499e-21
24.4769 	0.319191 	0.838686 	2.17857 	3.8499e-21
24.547 	0.319191 	0.838686 	2.17857 	3.8499e-21
24.6172 	0.319191 	0.838686 	2.17857 	3.8499e-21
24.6873 	0.319191 	0.838686 	2.17857 	3.8499e-21
24.7574 	0.319191 	0.838686 	2.17857 	3.8499e-21
24.8276 	0.319191 	0.838686 	2.17857 	3.8499e-21
24.8977 	0.319191 	0.838686 	2.17857 	3.8499e-21
24.9678 	0.319191 	0.838686 	2.17857 	3.8499e-21
25.038 	0.319191 	0.838686 	2.17857 	3.8499e-21
25.1081 	0.319191 	0.838686 	2.17857 	3.8499e-21
25.1782 	0.266437 	0.498849 	1.34934 	0
25.2484 	0.266437 	0.498849 	1.34934 	0
25.3185 	0.266437 	0.498849 	1.34934 	0
25.3886 	0.266437 	0.498849 	1.34934 	0
25.4588 	0.266437 	0.498849 	1.34934 	0
25.5289 	0.266437 	0.498849 	1.34934 	0
25.5991 	0.266437 	0.498849 	1.34934 	0
25.6692 	0.266437 	0.498849 	1.34934 	0
25.7393 	0.266437 	0.498849 	1.34934 	0
25.8095 	0.266437 	0.498849 	1.34934 	0
25.8796 	0.266437 	0.498849 	1.34934 	0
25.9497 	0.266437 	0.498849 	1.34934 	0
26.0199 	0.266437 	0.498849 	1.34934 	0
26.09 	0.266437 	0.498849 	1.34934 	0
26.1601 	0.266437 	0.498849 	1.34934 	0
26.2303 	0.171309 	0.498818 	1.37061 	-2.78195e-19
26.3004 	0.171309 	0.498818 	1.37061 	-2.78195e-19
26.3705 	0.171309 	0.498818 	1.37061 	-2.78195e-19
26.4407 	0.171309 	0.498818 	1.37061 	-2.78195e-19
26.5108 	0.171309 	0.498818 	1.37061 	-2.78195e-19
26.5809 	0.171309 	0.498818 	1.37061 	-2.78195e-19
26.6511 	0.171309 	0.498818 	1.37061 	-2.78195e-19
26.7212 	0.171309 	0.498818 	1.37061 	-2.78195e-19
26.7913 	0.171309 	0.498818 	1.37061 	-2.78195e-19
26.8615 	0.171309 	0.498818 	1.37061 	-2.78195e-19
26.9316 	0.171309 	0.498818 	1.37061 	-2.78195e-19
27.0017 	0.171309 	0.498818 	1.37061 	-2.78195e-19
27.0719 	0.171309 	0.498818 	1.37061 	-2.78195e-19
27.142 	0.171309 	0.498818 	1.37061 	-2.78195e-19
27.2121 	0.171309 	0.498818 	1.37061 	-2.78195e-19
27.2823 	0.171309 	0.498818 	1.37061 	-2.78195e-19
27.3524 	0.111483 	0.492139 	1.37346 	3.05358e-19
27.4225 	0.111483 	0.492139 	1.37346 	3.05358e-19
27.4927 	0.111483 	0.492139 	1.37346 	3.05358e-19
27.5628 	0.111483 	0.492139 	1.37346 	3.05358e-19
27.6329 	0.111483 	0.492139 	1.37346 	3.05358e-19
27.7031 	0.111483 	0.492139 	1.37346 	3.05358e-19
27.7732 	0.111483 	0.492139 	1.37346 	3.05358e-19
27.8434 	0.111483 	0.492139 	1.37346 	3.05358e-19
27.9135 	0.111483 	0.492139 	1.37346 	3.05358e-19
27.9836 	0.111483 	0.492139 	1.37346 	3.05358e-19
28.0538 	0.111483 	0.492139 	1.37346 	3.05358e-19
28.1239 	0.111483 	0.492139 	1.37346 	3.05358e-19
28.194 	0.111483 	0.492139 	1.37346 	3.05358e-19
28.2642 	0.111483 	0.492139 	1.37346 	3.05358e-19
28.3343 	0.111483 	0.492139 	1.37346 	3.05358e-19
28.4044 	0.111483 	0.492139 	1.37346 	3.05358e-19
28.4746 	0.111483 	0.492139 	1.37346 	3.05358e-19
28.5447 	0.111483 	0.492139 	1.37346 	3.05358e-19
28.6148 	0.111483 	0.492139 	1.37346 	3.05358e-19
28.685 	0.111483 	0.492139 	1.37346 	3.05358e-19
28.7551 	0.111483 	0.492139 	1.37346 	3.05358e-19
28.8252 	0.111483 	0.492139 	1.37346 	3.05358e-19
28.8954 	0.111483 	0.492139 	1.37346 	3.05358e-19
28.9655 	0.0621213 	0.437155 	1.2935 	8.04995e-21
29.0356 	0.0621213 	0.437155 	1.2935 	8.04995e-21
29.1058 	0.0621213 	0.437155 	1.2935 	8.04995e-21
29.1759 	0.0621213 	0.437155 	1.2935 	8.04995e-21
29.246 	0.0621213 	0.437155 	1.2935 	8.04995e-21
29.3162 	0.0621213 	0.437155 	1.2935 	8.04995e-21
29.3863 	0.0621213 	0.437155 	1.2935 	8.04995e-21
29.4564 	0.0621213 	0.437155 	1.2935 	8.04995e-21
29.5266 	0.0621213 	0.437155 	1.2935 	8.04995e-21
29.5967 	0.0621213 	0.437155 	1.2935 	8.04995e-21
29.6668 	0.0621213 	0.437155 	1.2935 	8.04995e-21
29.737 	0.0621213 	0.437155 	1.2935 	8.04995e-21
29.8071 	0.0621213 	0.437155 	1.2935 	8.04995e-21
29.8773 	0.0621213 	0.437155 	1.2935 	8.04995e-21
29.9474 	0.0621213 	0.437155 	1.2935 	8.04995e-21
30.0175 	0.0621213 	0.437155 	1.2935 	8.04995e-21
30.0877 	0.0621213 	0.437155 	1.2935 	8.04995e-21
30.1578 	0.0621213 	0.437155 	1.2935 	8.04995e-21
30.2279 	0.0621213 	0.437155 	1.2935 	8.04995e-21
30.2981 	0.0621213 	0.437155 	1.2935 	8.04995e-21
30.3682 	0.0621213 	0.437155 	1.2935 	8.04995e-21
30.4383 	0.0621213 	0.437155 	1.2935 	8.04995e-21
30.5085 	0.0621213 	0.437155 	1.2935 	8.04995e-21
30.5786 	0.0621213 	0.437155 	1.2935 	8.04995e-21
30.6487 	0.0621213 	0.437155 	1.2935 	8.04995e-21
30.7189 	0.0621213 	0.437155 	1.2935 	8.04995e-21
30.789 	0.0553055 	0.368349 	1.30147 	-7.71871e-20
30.8591 	0.0553055 	0.368349 	1.30147 	-7.71871e-20
30.9293 	0.0553055 	0.368349 	1.30147 	-7.71871e-20
30.9994 	0.0553055 	0.368349 	1.30147 	-7.71871e-20
31.0695 	0.0553055 	0.368349 	1.30147 	-7.71871e-20
31.1397 	0.0553055 	0.368349 	1.30147 	-7.71871e-20
31.2098 	0.0553055 	0.368349 	1.30147 	-7.71871e-20
31.2799 	0.0553055 	0.368349 	1.30147 	-7.71871e-20
31.3501 	0.0553055 	0.368349 	1.30147 	-7.71871e-20
31.4202 	0.0553055 	0.368349 	1.30147 	-7.71871e-20
31.4903 	0.0553055 	0.368349 	1.30147 	-7.71871e-20
31.5605 	0.0553055 	0.368349 	1.30147 	-7.71871e-20
31.6306 	0.0553055 	0.368349 	1.30147 	-7.71871e-20
31.7007 	0.0553055 	0.368349 	1.30147 	-7.71871e-20
31.7709 	0.0553055 	0.368349 	1.30147 	-7.71871e-20
31.841 	0.0553055 	0.368349 	1.30147 	-7.71871e-20
31.9111 	0.0553055 	0.368349 	1.30147 	-7.71871e-20
31.9813 	0.0553055 	0.368349 	1.30147 	-7.71871e-20
32.0514 	0.0553055 	0.368349 	1.30147 	-7.71871e-20
32.1216 	0.0553055 	0.368349 	1.30147 	-7.71871e-20
32.1917 	0.0553055 	0.368349 	1.30147 	-7.71871e-20
32.2618 	0.0553055 	0.368349 	1.30147 	-7.71871e-20
32.332 	0.0553055 	0.368349 	1.30147 	-7.71871e-20
32.4021 	0.0553055 	0.368349 	1.30147 	-7.71871e-20
32.4722 	0.0553055 	0.368349 	1.30147 	-7.71871e-20
32.5424 	0.0553055 	0.368349 	1.30147 	-7.71871e-20
32.6125 	0.0553055 	0.368349 	1.30147 	-7.71871e-20
32.6826 	0.0553055 	0.368349 	1.30147 	-7.71871e-20
32.7528 	0.0553055 	0.368349 	1.30147 	-7.71871e-20
32.8229 	0.0553055 	0.368349 	1.30147 	-7.71871e-20
32.893 	0.0553055 	0.368349 	1.30147 	-7.71871e-20
32.9632 	0.0553055 	0.368349 	1.30147 	-7.71871e-20
33.0333 	0.0553055 	0.368349 	1.30147 	-7.71871e-20
33.1034 	0.0553055 	0.368349 	1.30147 	-7.71871e-20
33.1736 	0.0553055 	0.368349 	1.30147 	-7.71871e-20
33.2437 	0.0553055 	0.368349 	1.30147 	-7.71871e-20
33.3138 	0.0553055 	0.368349 	1.30147 	-7.71871e-20
33.384 	0.0553055 	0.368349 	1.30147 	-7.71871e-20
33.4541 	0.0553055 	0.368349 	1.30147 	-7.71871e-20
33.5242 	0.0553055 	0.368349 	1.30147 	-7.71871e-20
33.5944 	0.0553055 	0.368349 	1.30147 	-7.71871e-20
33.6645 	0.0553055 	0.368349 	1.30147 	-7.71871e-20
33.7346 	0.0177847 	0.364911 	1.37219 	4.05808e-20
33.8048 	0.0177847 	0.364911 	1.37219 	4.05808e-20
33.8749 	0.0177847 	0.364911 	1.37219 	4.05808e-20
33.945 	0.0177847 	0.364911 	1.37219 	4.05808e-20
34.0152 	0.0177847 	0.364911 	1.37219 	4.05808e-20
34.0853 	0.0177847 	0.364911 	1.37219 	4.05808e-20
34.1554 	0.0158693 	0.272115 	1.32589 	-1.09393e-19
34.2256 	0.0158693 	0.272115 	1.32589 	-1.09393e-19
34.2957 	0.0158693 	0.272115 	1.32589 	-1.09393e-19
34.3659 	0.0158693 	0.272115 	1.32589 	-1.09393e-19
34.436 	0.0158693 	0.272115 	1.32589 	-1.09393e-19
34.5061 	0.0158693 	0.272115 	1.32589 	-1.09393e-19
34.5763 	0.0158693 	0.272115 	1.32589 	-1.09393e-19
34.6464 	0.0158693 	0.272115 	1.32589 	-1.09393e-19
34.7165 	0.214561 	0.262386 	1.61723 	1.17483e-19
34.7867 	0.214561 	0.262386 	1.61723 	1.17483e-19
34.8568 	0.214561 	0.262386 	1.61723 	1.17483e-19
34.9269 	0.214561 	0.262386 	1.61723 	1.17483e-19
34.9971 	0.214561 	0.262386 	1.61723 	1.17483e-19
35.0672 	0.214561 	0.262386 	1.61723 	1.17483e-19
35.1373 	0.214561 	0.262386 	1.61723 	1.17483e-19
35.2075 	0.214561 	0.262386 	1.61723 	1.17483e-19
35.2776 	0.214561 	0.262386 	1.61723 	1.17483e-19
35.3477 	0.214561 	0.262386 	1.61723 	1.17483e-19
35.4179 	0.214561 	0.262386 	1.61723 	1.17483e-19
35.488 	0.214561 	0.262386 	1.61723 	1.17483e-19
35.5581 	0.214561 	0.262386 	1.61723 	1.17483e-19
35.6283 	0.214561 	0.262386 	1.61723 	1.17483e-19
35.6984 	0.214561 	0.262386 	1.61723 	1.17483e-19
35.7685 	0.214561 	0.262386 	1.61723 	1.17483e-19
35.8387 	0.214561 	0.262386 	1.61723 	1.17483e-19
35.9088 	0.214561 	0.262386 	1.61723 	1.17483e-19
35.9789 	0.214561 	0.262386 	1.61723 	1.17483e-19
36.0491 	0.188775 	0.239893 	1.57792 	0
36.1192 	0.188775 	0.239893 	1.57792 	0
36.1893 	0.188775 	0.239893 	1.57792 	0
36.2595 	0.188775 	0.239893 	1.57792 	0
36.3296 	0.188775 	0.239893 	1.57792 	0
36.3997 	0.188775 	0.239893 	1.57792 	0
36.4699 	0.188775 	0.239893 	1.57792 	0
36.54 	0.188775 	0.239893 	1.57792 	0
36.6102 	0.188775 	0.239893 	1.57792 	0
36.6803 	0.188775 	0.239893 	1.57792 	0
36.7504 	0.188775 	0.239893 	1.57792 	0
36.8206 	0.188775 	0.239893 	1.57792 	0
36.8907 	0.0625502 	0.187536 	1.45279 	7.20682e-20
36.9608 	0.0625502 	0.187536 	1.45279 	7.20682e-20
37.031 	0.0625502 	0.187536 	1.45279 	7.20682e-20
37.1011 	0.0625502 	0.187536 	1.45279 	7.20682e-20
37.1712 	0.0625502 	0.187536 	1.45279 	7.20682e-20
37.2414 	0.0625502 	0.187536 	1.45279 	7.20682e-20
37.3115 	0.0625502 	0.187536 	1.45279 	7.20682e-20
37.3816 	0.0625502 	0.187536 	1.45279 	7.20682e-20
37.4518 	0.0625502 	0.187536 	1.45279 	7.20682e-20
37.5219 	0.0625502 	0.187536 	1.45279 	7.20682e-20
37.592 	0.0625502 	0.187536 	1.45279 	7.20682e-20
37.6622 	0.0625502 	0.187536 	1.45279 	7.20682e-20
37.7323 	0.0625502 	0.187536 	1.45279 	7.20682e-20
37.8024 	0.0625502 	0.187536 	1.45279 	7.20682e-20
37.8726 	0.0625502 	0.187536 	1.45279 	7.20682e-20
37.9427 	0.0625502 	0.187536 	1.45279 	7.20682e-20
38.0128 	0.0625502 	0.187536 	1.45279 	7.20682e-20
38.083 	0.0625502 	0.187536 	1.45279 	7.20682e-20
38.1531 	0.0625502 	0.187536 	1.45279 	7.20682e-20
38.2232 	0.0861906 	0.130629 	1.5951 	-8.26517e-20
38.2934 	0.0861906 	0.130629 	1.5951 	-8.26517e-20
38.3635 	0.0861906 	0.130629 	1.5951 	-8.26517e-20
38.4336 	0.0861906 	0.130629 	1.5951 	-8.26517e-20
38.5038 	0.0861906 	0.130629 	1.5951 	-8.26517e-20
38.5739 	0.0861906 	0.130629 	1.5951 	-8.26517e-20
38.644 	0.0861906 	0.130629 	1.5951 	-8.26517e-20
38.7142 	0.0861906 	0.130629 	1.5951 	-8.26517e-20
38.7843 	0.0861906 	0.130629 	1.5951 	-8.26517e-20
38.8545 	0.0861906 	0.130629 	1.5951 	-8.26517e-20
38.9246 	0.0861906 	0.130629 	1.5951 	-8.26517e-20
38.9947 	0.0861906 	0.130629 	1.5951 	-8.26517e-20
39.0649 	0.0861906 	0.130629 	1.5951 	-8.26517e-20
39.135 	0.0861906 	0.130629 	1.5951 	-8.26517e-20
39.2051 	0.0488875 	0.114506 	1.56899 	0
39.2753 	0.0488875 	0.114506 	1.56899 	0
39.3454 	0.0488875 	0.114506 	1.56899 	0
39.4155 	0.0488875 	0.114506 	1.56899 	0
39.4857 	0.0488875 	0.114506 	1.56899 	0
39.5558 	0.0488875 	0.114506 	1.56899 	0
39.6259 	0.0488875 	0.114506 	1.56899 	0
39.6961 	0.0488875 	0.114506 	1.56899 	0
39.7662 	0.0488875 	0.114506 	1.56899 	0
39.8363 	0.0488875 	0.114506 	1.56899 	0
39.9065 	0.0488875 	0.114506 	1.56899 	0
39.9766 	0.0488875 	0.114506 	1.56899 	0
40.0467 	0.0488875 	0.114506 	1.56899 	0
40.1169 	0.0488875 	0.114506 	1.56899 	0
40.187 	0.0488875 	0.114506 	1.56899 	0
40.2571 	0.0488875 	0.114506 	1.56899 	0
40.3273 	0.0488875 	0.114506 	1.56899 	0
40.3974 	0.0488875 	0.114506 	1.56899 	0
40.4675 	0.0488875 	0.114506 	1.56899 	0
40.5377 	0.0488875 	0.114506 	1.56899 	0
40.6078 	0.0488875 	0.114506 	1.56899 	0
40.6779 	0.0345667 	0.110753 	1.51787 	-2.0558e-20
40.7481 	0.0345667 	0.110753 	1.51787 	-2.0558e-20
40.8182 	0.0345667 	0.110753 	1.51787 	-2.0558e-20
40.8883 	0.0345667 	0.110753 	1.51787 	-2.0558e-20
40.9585 	0.0345667 	0.110753 	1.51787 	-2.0558e-20
41.0286 	0.0345667 	0.110753 	1.51787 	-2.0558e-20
41.0988 	0.0345667 	0.110753 	1.51787 	-2.0558e-20
41.1689 	0.0345667 	0.110753 	1.51787 	-2.0558e-20
41.239 	0.0357959 	0.087589 	1.53216 	3.85528e-20
41.3092 	0.0357959 	0.087589 	1.53216 	3.85528e-20
41.3793 	0.0357959 	0.087589 	1.53216 	3.85528e-20
41.4494 	0.0357959 	0.087589 	1.53216 	3.85528e-20
41.5196 	0.0357959 	0.087589 	1.53216 	3.85528e-20
41.5897 	0.0357959 	0.087589 	1.53216 	3.85528e-20
41.6598 	0.0357959 	0.087589 	1.53216 	3.85528e-20
41.73 	0.0357959 	0.087589 	1.53216 	3.85528e-20
41.8001 	0.0357959 	0.087589 	1.53216 	3.85528e-20
41.8702 	0.0357959 	0.087589 	1.53216 	3.85528e-20
41.9404 	0.0357959 	0.087589 	1.53216 	3.85528e-20
42.0105 	0.0357959 	0.087589 	1.53216 	3.85528e-20
42.0806 	0.0357959 	0.087589 	1.53216 	3.85528e-20
42.1508 	0.0357959 	0.087589 	1.53216 	3.85528e-20
42.2209 	0.0357959 	0.087589 	1.53216 	3.85528e-20
42.291 	0.0357959 	0.087589 	1.53216 	3.85528e-20
42.3612 	0.0357959 	0.087589 	1.53216 	3.85528e-20
42.4313 	0.0357959 	0.087589 	1.53216 	3.85528e-20
42.5014 	0.0357959 	0.087589 	1.53216 	3.85528e-20
42.5716 	0.0357959 	0.087589 	1.53216 	3.85528e-20
42.6417 	0.0357959 	0.087589 	1.53216 	3.85528e-20
42.7118 	0.0243371 	0.0852 	1.51914 	0
42.782 	0.0243371 	0.0852 	1.51914 	0
42.8521 	0.0243371 	0.0852 	1.51914 	0
42.9222 	0.0243371 	0.0852 	1.51914 	0
42.9924 	0.0427739 	0.0442476 	1.57852 	0
43.0625 	0.0427739 	0.0442476 	1.57852 	0
43.1327 	0.0427739 	0.0442476 	1.57852 	0
43.2028 	0.0427739 	0.0442476 	1.57852 	0
43.2729 	0.0427739 	0.0442476 	1.57852 	0
43.3431 	0.0427739 	0.0442476 	1.57852 	0
43.4132 	0.0427739 	0.0442476 	1.57852 	0
43.4833 	0.0427739 	0.0442476 	1.57852 	0
43.5535 	0.0427739 	0.0442476 	1.57852 	0
43.6236 	0.0427739 	0.0442476 	1.57852 	0
43.6937 	0.0427739 	0.0442476 	1.57852 	0
43.7639 	0.0427739 	0.0442476 	1.57852 	0