0.490941 	1.11919 	0.00610042 	3.00274 	0
0.561075 	1.11919 	0.00610042 	3.00274 	0
0.63121 	1.11919 	0.00610042 	3.00274 	0
0.701344 	1.11919 	0.00610042 	3.00274 	0
0.771478 	1.11919 	0.00610042 	3.00274 	0
0.841613 	1.11919 	0.00610042 	3.00274 	0
0.911747 	1.11919 	0.00610042 	3.00274 	0
0.981881 	1.11919 	0.00610042 	3.00274 	0
1.05202 	1.11919 	0.00610042 	3.00274 	0
1.12215 	1.11919 	0.00610042 	3.00274 	0
1.19228 	1.11919 	0.00610042 	3.00274 	0
1.26242 	1.09306 	0.0114845 	3.0081 	0
1.33255 	1.09306 	0.0114845 	3.0081 	0
1.40269 	1.09306 	0.0114845 	3.0081 	0
1.47282 	1.09306 	0.0114845 	3.0081 	0
1.54296 	1.09306 	0.0114845 	3.0081 	0
1.61309 	1.09306 	0.0114845 	3.0081 	0
1.68323 	1.09306 	0.0114845 	3.0081 	0
1.75336 	1.09306 	0.0114845 	3.0081 	0
1.82349 	1.04327 	0.0149107 	3.02366 	3.999e-19
1.89363 	1.04327 	0.0149107 	3.02366 	3.999e-19
1.96376 	1.04327 	0.0149107 	3.02366 	3.999e-19
2.0339 	1.04327 	0.0149107 	3.02366 	3.999e-19
2.10403 	1.04327 	0.0149107 	3.02366 	3.999e-19
2.17417 	1.04327 	0.0149107 	3.02366 	3.999e-19
2.2443 	1.04327 	0.0149107 	3.02366 	3.999e-19
2.31443 	1.04327 	0.0149107 	3.02366 	3.999e-19
2.38457 	1.04327 	0.0149107 	3.02366 	3.999e-19
2.4547 	1.04327 	0.0149107 	3.02366 	3.999e-19
2.52484 	1.04327 	0.0149107 	3.02366 	3.999e-19
2.59497 	1.00849 	0.00741391 	3.03687 	-6.3346e-19
2.66511 	1.00849 	0.00741391 	3.03687 	-6.3346e-19
2.73524 	1.00849 	0.00741391 	3.03687 	-6.3346e-19
2.80538 	1.00849 	0.00741391 	3.03687 	-6.3346e-19
2.87551 	1.00849 	0.00741391 	3.03687 	-6.3346e-19
2.94564 	1.00849 	0.00741391 	3.03687 	-6.3346e-19
3.01578 	1.00849 	0.00741391 	3.03687 	-6.3346e-19
3.08591 	1.00849 	0.00741391 	3.03687 	-6.3346e-19
3.15605 	1.00849 	0.00741391 	3.03687 	-6.3346e-19
3.22618 	1.00849 	0.00741391 	3.03687 	-6.3346e-19
3.29632 	0.976027 	0.0202196 	3.04335 	6.39603e-19
3.36645 	0.976027 	0.0202196 	3.04335 	6.39603e-19
3.43659 	0.976027 	0.0202196 	3.04335 	6.39603e-19
3.50672 	0.976027 	0.0202196 	3.04335 	6.39603e-19
3.57685 	0.976027 	0.0202196 	3.04335 	6.39603e-19
3.64699 	0.976027 	0.0202196 	3.04335 	6.39603e-19
3.71712 	0.976027 	0.0202196 	3.04335 	6.39603e-19
3.78726 	0.976027 	0.0202196 	3.04335 	6.39603e-19
3.85739 	0.976027 	0.0202196 	3.04335 	6.39603e-19
3.92753 	0.976027 	0.0202196 	3.04335 	6.39603e-19
3.99766 	0.976027 	0.0202196 	3.04335 	6.39603e-19
4.06779 	0.957885 	0.0036381 	3.05025 	-1.79749e-20
4.13793 	0.957885 	0.0036381 	3.05025 	-1.79749e-20
4.20806 	0.957885 	0.0036381 	3.05025 	-1.79749e-20
4.2782 	0.957885 	0.0036381 	3.05025 	-1.79749e-20
4.34833 	0.957885 	0.0036381 	3.05025 	-1.79749e-20
4.41847 	0.957885 	0.0036381 	3.05025 	-1.79749e-20
4.4886 	0.932978 	0.0166842 	3.05777 	0
4.55874 	0.932978 	0.0166842 	3.05777 	0
4.62887 	0.932978 	0.0166842 	3.05777 	0
4.699 	0.932978 	0.0166842 	3.05777 	0
4.76914 	0.932978 	0.0166842 	3.05777 	0
4.83927 	0.932978 	0.0166842 	3.05777 	0
4.90941 	0.932978 	0.0166842 	3.05777 	0
4.97954 	0.932978 	0.0166842 	3.05777 	0
5.04968 	0.932978 	0.0166842 	3.05777 	0
5.11981 	0.932978 	0.0166842 	3.05777 	0
5.18994 	0.910681 	0.00556849 	3.06473 	-8.48731e-21
5.26008 	0.910681 	0.00556849 	3.06473 	-8.48731e-21
5.33021 	0.910681 	0.00556849 	3.06473 	-8.48731e-21
5.40035 	0.910681 	0.00556849 	3.06473 	-8.48731e-21
5.47048 	0.910681 	0.00556849 	3.06473 	-8.48731e-21
5.54062 	0.910681 	0.00556849 	3.06473 	-8.48731e-21
5.61075 	0.910681 	0.00556849 	3.06473 	-8.48731e-21
5.68089 	0.881744 	0.0113253 	3.07437 	0
5.75102 	0.881744 	0.0113253 	3.07437 	0
5.82115 	0.881744 	0.0113253 	3.07437 	0
5.89129 	0.881744 	0.0113253 	3.07437 	0
5.96142 	0.881744 	0.0113253 	3.07437 	0
6.03156 	0.881744 	0.0113253 	3.07437 	0
6.10169 	0.881744 	0.0113253 	3.07437 	0
6.17183 	0.881744 	0.0113253 	3.07437 	0
6.24196 	0.881744 	0.0113253 	3.07437 	0
6.3121 	0.853022 	0.00721249 	3.08252 	0
6.38223 	0.853022 	0.00721249 	3.08252 	0
6.45236 	0.853022 	0.00721249 	3.08252 	0
6.5225 	0.853022 	0.00721249 	3.08252 	0
6.59263 	0.853022 	0.00721249 	3.08252 	0
6.66277 	0.853022 	0.00721249 	3.08252 	0
6.7329 	0.853022 	0.00721249 	3.08252 	0
6.80304 	0.853022 	0.00721249 	3.08252 	0
6.87317 	0.82719 	0.00622978 	3.09074 	2.83591e-19
6.9433 	0.82719 	0.00622978 	3.09074 	2.83591e-19
7.01344 	0.82719 	0.00622978 	3.09074 	2.83591e-19
7.08357 	0.82719 	0.00622978 	3.09074 	2.83591e-19
7.15371 	0.82719 	0.00622978 	3.09074 	2.83591e-19
7.22384 	0.82719 	0.00622978 	3.09074 	2.83591e-19
7.29398 	0.82719 	0.00622978 	3.09074 	2.83591e-19
7.36411 	0.82719 	0.00622978 	3.09074 	2.83591e-19
7.43425 	0.82719 	0.00622978 	3.09074 	2.83591e-19
7.50438 	0.794946 	0.008601 	3.10014 	-2.10872e-18
7.57451 	0.794946 	0.008601 	3.10014 	-2.10872e-18
7.64465 	0.794946 	0.008601 	3.10014 	-2.10872e-18
7.71478 	0.794946 	0.008601 	3.10014 	-2.10872e-18
7.78492 	0.794946 	0.008601 	3.10014 	-2.10872e-18
7.85505 	0.794946 	0.008601 	3.10014 	-2.10872e-18
7.92519 	0.794946 	0.008601 	3.10014 	-2.10872e-18
7.99532 	0.794946 	0.008601 	3.10014 	-2.10872e-18
8.06545 	0.776856 	0.0023359 	3.10559 	2.06731e-18
8.13559 	0.776856 	0.0023359 	3.10559 	2.06731e-18
8.20572 	0.776856 	0.0023359 	3.10559 	2.06731e-18
8.27586 	0.776856 	0.0023359 	3.10559 	2.06731e-18
8.34599 	0.776856 	0.0023359 	3.10559 	2.06731e-18
8.41613 	0.776856 	0.0023359 	3.10559 	2.06731e-18
8.48626 	0.776856 	0.0023359 	3.10559 	2.06731e-18
8.5564 	0.776856 	0.0023359 	3.10559 	2.06731e-18
8.62653 	0.776856 	0.0023359 	3.10559 	2.06731e-18
8.69666 	0.744803 	0.0148318 	3.11841 	1.90029e-18
8.7668 	0.744803 	0.0148318 	3.11841 	1.90029e-18
8.83693 	0.744803 	0.0148318 	3.11841 	1.90029e-18
8.90707 	0.744803 	0.0148318 	3.11841 	1.90029e-18
8.9772 	0.744803 	0.0148318 	3.11841 	1.90029e-18
9.04734 	0.744803 	0.0148318 	3.11841 	1.90029e-18
9.11747 	0.744803 	0.0148318 	3.11841 	1.90029e-18
9.18761 	0.744803 	0.0148318 	3.11841 	1.90029e-18
9.25774 	0.714213 	0.00157269 	3.11903 	-1.76526e-18
9.32787 	0.714213 	0.00157269 	3.11903 	-1.76526e-18
9.39801 	0.714213 	0.00157269 	3.11903 	-1.76526e-18
9.46814 	0.714213 	0.00157269 	3.11903 	-1.76526e-18
9.53828 	0.714213 	0.00157269 	3.11903 	-1.76526e-18
9.60841 	0.714213 	0.00157269 	3.11903 	-1.76526e-18
9.67855 	0.714213 	0.00157269 	3.11903 	-1.76526e-18
9.74868 	0.714213 	0.00157269 	3.11903 	-1.76526e-18
9.81881 	0.697603 	0.0158676 	3.12985 	-5.4094e-19
9.88895 	0.697603 	0.0158676 	3.12985 	-5.4094e-19
9.95908 	0.697603 	0.0158676 	3.12985 	-5.4094e-19
10.0292 	0.697603 	0.0158676 	3.12985 	-5.4094e-19
10.0994 	0.697603 	0.0158676 	3.12985 	-5.4094e-19
10.1695 	0.697603 	0.0158676 	3.12985 	-5.4094e-19
10.2396 	0.697603 	0.0158676 	3.12985 	-5.4094e-19
10.3098 	0.697603 	0.0158676 	3.12985 	-5.4094e-19
10.3799 	0.697603 	0.0158676 	3.12985 	-5.4094e-19
10.45 	0.697603 	0.0158676 	3.12985 	-5.4094e-19
10.5202 	0.697603 	0.0158676 	3.12985 	-5.4094e-19
10.5903 	0.697603 	0.0158676 	3.12985 	-5.4094e-19
10.6604 	0.719671 	0.0146343 	3.12593 	7.9616e-19
10.7306 	0.667339 	0.0349363 	3.13988 	0
10.8007 	0.667339 	0.0349363 	3.13988 	0
10.8708 	0.667339 	0.0349363 	3.13988 	0
10.941 	0.667339 	0.0349363 	3.13988 	0
11.0111 	0.667339 	0.0349363 	3.13988 	0
11.0812 	0.667339 	0.0349363 	3.13988 	0
11.1514 	0.667339 	0.0349363 	3.13988 	0
11.2215 	0.667339 	0.0349363 	3.13988 	0
11.2916 	0.667339 	0.0349363 	3.13988 	0
11.3618 	0.667339 	0.0349363 	3.13988 	0
11.4319 	0.667339 	0.0349363 	3.13988 	0
11.502 	0.667339 	0.0349363 	3.13988 	0
11.5722 	0.667339 	0.0349363 	3.13988 	0
11.6423 	0.667339 	0.0349363 	3.13988 	0
11.7124 	0.674704 	0.0222055 	3.12986 	0
11.7826 	0.615533 	0.0744479 	3.15985 	8.97501e-19
11.8527 	0.615533 	0.0744479 	3.15985 	8.97501e-19
11.9228 	0.615533 	0.0744479 	3.15985 	8.97501e-19
11.993 	0.615533 	0.0744479 	3.15985 	8.97501e-19
12.0631 	0.615533 	0.0744479 	3.15985 	8.97501e-19
12.1332 	0.615533 	0.0744479 	3.15985 	8.97501e-19
12.2034 	0.521514 	0.0671525 	3.18512 	-4.42683e-19
12.2735 	0.521514 	0.0671525 	3.18512 	-4.42683e-19
12.3437 	0.521514 	0.0671525 	3.18512 	-4.42683e-19
12.4138 	0.521514 	0.0671525 	3.18512 	-4.42683e-19
12.4839 	0.521514 	0.0671525 	3.18512 	-4.42683e-19
12.5541 	0.521514 	0.0671525 	3.18512 	-4.42683e-19
12.6242 	0.521514 	0.0671525 	3.18512 	-4.42683e-19
12.6943 	0.521514 	0.0671525 	3.18512 	-4.42683e-19
12.7645 	0.521514 	0.0671525 	3.18512 	-4.42683e-19
12.8346 	0.409783 	0.0341364 	3.1769 	4.06774e-19
12.9047 	0.397244 	0.133245 	3.21981 	-1.96503e-19
12.9749 	0.397244 	0.133245 	3.21981 	-1.96503e-19
13.045 	0.397244 	0.133245 	3.21981 	-1.96503e-19
13.1151 	0.397244 	0.133245 	3.21981 	-1.96503e-19
13.1853 	0.397244 	0.133245 	3.21981 	-1.96503e-19
13.2554 	0.397244 	0.133245 	3.21981 	-1.96503e-19
13.3255 	0.397244 	0.133245 	3.21981 	-1.96503e-19
13.3957 	0.620956 	0.138216 	3.19194 	1.3934e-18
13.4658 	0.620956 	0.138216 	3.19194 	1.3934e-18
13.5359 	0.620956 	0.138216 	3.19194 	1.3934e-18
13.6061 	0.620956 	0.138216 	3.19194 	1.3934e-18
13.6762 	0.620956 	0.138216 	3.19194 	1.3934e-18
13.7463 	0.620956 	0.138216 	3.19194 	1.3934e-18
13.8165 	0.699838 	0.104306 	2.86414 	-1.15318e-18
13.8866 	0.91706 	0.128184 	2.95835 	5.30749e-19
13.9567 	0.91706 	0.128184 	2.95835 	5.30749e-19
14.0269 	0.335186 	0.238903 	3.03084 	-1.77561e-18
14.097 	0.335186 	0.238903 	3.03084 	-1.77561e-18
14.1671 	0.335186 	0.238903 	3.03084 	-1.77561e-18
14.2373 	0.335186 	0.238903 	3.03084 	-1.77561e-18
14.3074 	0.335186 	0.238903 	3.03084 	-1.77561e-18
14.3776 	0.335186 	0.238903 	3.03084 	-1.77561e-18
14.4477 	0.335186 	0.238903 	3.03084 	-1.77561e-18
14.5178 	0.335186 	0.238903 	3.03084 	-1.77561e-18
14.588 	0.335186 	0.238903 	3.03084 	-1.77561e-18
14.6581 	0.335186 	0.238903 	3.03084 	-1.77561e-18
14.7282 	0.335186 	0.238903 	3.03084 	-1.77561e-18
14.7984 	0.335186 	0.238903 	3.03084 	-1.77561e-18
14.8685 	0.335186 	0.238903 	3.03084 	-1.77561e-18
14.9386 	0.162371 	0.332469 	3.18915 	0
15.0088 	0.162371 	0.332469 	3.18915 	0
15.0789 	0.162371 	0.332469 	3.18915 	0
15.149 	0.162371 	0.332469 	3.18915 	0
15.2192 	0.162371 	0.332469 	3.18915 	0
15.2893 	-0.343196 	0.335334 	3.41373 	-2.15472e-19
15.3594 	-0.343196 	0.335334 	3.41373 	-2.15472e-19
15.4296 	-0.343196 	0.335334 	3.41373 	-2.15472e-19
15.4997 	-0.343196 	0.335334 	3.41373 	-2.15472e-19
15.5698 	-0.343196 	0.335334 	3.41373 	-2.15472e-19
15.64 	-0.343196 	0.335334 	3.41373 	-2.15472e-19
15.7101 	-0.831113 	0.390424 	3.48347 	0
15.7802 	-0.831113 	0.390424 	3.48347 	0
15.8504 	-0.720354 	0.641123 	3.53861 	1.26036e-18
15.9205 	-0.720354 	0.641123 	3.53861 	1.26036e-18
15.9906 	-0.720354 	0.641123 	3.53861 	1.26036e-18
16.0608 	-0.720354 	0.641123 	3.53861 	1.26036e-18
16.1309 	-0.720354 	0.641123 	3.53861 	1.26036e-18
16.201 	-0.720354 	0.641123 	3.53861 	1.26036e-18
16.2712 	-0.720354 	0.641123 	3.53861 	1.26036e-18
16.3413 	-0.720354 	0.641123 	3.53861 	1.26036e-18
16.4114 	-0.720354 	0.641123 	3.53861 	1.26036e-18
16.4816 	-0.720354 	0.641123 	3.53861 	1.26036e-18
16.5517 	-0.720354 	0.641123 	3.53861 	1.26036e-18
16.6219 	-0.720354 	0.641123 	3.53861 	1.26036e-18
16.692 	-0.720354 	0.641123 	3.53861 	1.26036e-18
16.7621 	-0.720354 	0.641123 	3.53861 	1.26036e-18
16.8323 	-0.264824 	0.862404 	3.10739 	7.02632e-20
16.9024 	-0.264824 	0.862404 	3.10739 	7.02632e-20
16.9725 	-0.264824 	0.862404 	3.10739 	7.02632e-20
17.0427 	-0.264824 	0.862404 	3.10739 	7.02632e-20
17.1128 	-0.264824 	0.862404 	3.10739 	7.02632e-20
17.1829 	-0.264824 	0.862404 	3.10739 	7.02632e-20
17.2531 	-0.264824 	0.862404 	3.10739 	7.02632e-20
17.3232 	-0.264824 	0.862404 	3.10739 	7.02632e-20
17.3933 	-0.264824 	0.862404 	3.10739 	7.02632e-20
17.4635 	-0.264824 	0.862404 	3.10739 	7.02632e-20
17.5336 	-0.166139 	0.907272 	3.02348 	-2.90448e-20
17.6037 	-0.166139 	0.907272 	3.02348 	-2.90448e-20
17.6739 	-0.166139 	0.907272 	3.02348 	-2.90448e-20
17.744 	-0.256982 	1.03611 	3.15308 	1.26146e-19
17.8141 	-0.256982 	1.03611 	3.15308 	1.26146e-19
17.8843 	-0.256982 	1.03611 	3.15308 	1.26146e-19
17.9544 	-0.256982 	1.03611 	3.15308 	1.26146e-19
18.0245 	-0.256982 	1.03611 	3.15308 	1.26146e-19
18.0947 	-0.256982 	1.03611 	3.15308 	1.26146e-19
18.1648 	-0.256982 	1.03611 	3.15308 	1.26146e-19
18.2349 	-0.256982 	1.03611 	3.15308 	1.26146e-19
18.3051 	-0.256982 	1.03611 	3.15308 	1.26146e-19
18.3752 	0.0305776 	1.00012 	2.75169 	-9.59394e-20
18.4453 	0.0305776 	1.00012 	2.75169 	-9.59394e-20
18.5155 	0.0305776 	1.00012 	2.75169 	-9.59394e-20
18.5856 	0.0305776 	1.00012 	2.75169 	-9.59394e-20
18.6557 	0.0305776 	1.00012 	2.75169 	-9.59394e-20
18.7259 	0.0305776 	1.00012 	2.75169 	-9.59394e-20
18.796 	0.0305776 	1.00012 	2.75169 	-9.59394e-20
18.8662 	0.0880113 	1.04135 	2.81321 	-1.6744e-19
18.9363 	0.0880113 	1.04135 	2.81321 	-1.6744e-19
19.0064 	0.0880113 	1.04135 	2.81321 	-1.6744e-19
19.0766 	0.0880113 	1.04135 	2.81321 	-1.6744e-19
19.1467 	0.0880113 	1.04135 	2.81321 	-1.6744e-19
19.2168 	0.0880113 	1.04135 	2.81321 	-1.6744e-19
19.287 	0.0880113 	1.04135 	2.81321 	-1.6744e-19
19.3571 	0.0880113 	1.04135 	2.81321 	-1.6744e-19
19.4272 	0.0880113 	1.04135 	2.81321 	-1.6744e-19
19.4974 	0.0880113 	1.04135 	2.81321 	-1.6744e-19
19.5675 	0.0880113 	1.04135 	2.81321 	-1.6744e-19
19.6376 	0.0880113 	1.04135 	2.81321 	-1.6744e-19
19.7078 	0.0880113 	1.04135 	2.81321 	-1.6744e-19
19.7779 	0.232716 	0.986448 	2.4356 	-1.12934e-19
19.848 	0.232716 	0.986448 	2.4356 	-1.12934e-19
19.9182 	0.232716 	0.986448 	2.4356 	-1.12934e-19
19.9883 	0.232716 	0.986448 	2.4356 	-1.12934e-19
20.0584 	0.232716 	0.986448 	2.4356 	-1.12934e-19
20.1286 	0.232716 	0.986448 	2.4356 	-1.12934e-19
20.1987 	0.232716 	0.986448 	2.4356 	-1.12934e-19
20.2688 	0.226079 	0.993591 	2.42849 	2.98289e-19
20.339 	0.226079 	0.993591 	2.42849 	2.98289e-19
20.4091 	0.226079 	0.993591 	2.42849 	2.98289e-19
20.4792 	0.226079 	0.993591 	2.42849 	2.98289e-19
20.5494 	0.226079 	0.993591 	2.42849 	2.98289e-19
20.6195 	0.226079 	0.993591 	2.42849 	2.98289e-19
20.6896 	0.226079 	0.993591 	2.42849 	2.98289e-19
20.7598 	0.226079 	0.993591 	2.42849 	2.98289e-19
20.8299 	0.226079 	0.993591 	2.42849 	2.98289e-19
20.9 	0.226079 	0.993591 	2.42849 	2.98289e-19
20.9702 	0.226079 	0.993591 	2.42849 	2.98289e-19
21.0403 	0.226079 	0.993591 	2.42849 	2.98289e-19
21.1105 	0.226079 	0.993591 	2.42849 	2.98289e-19
21.1806 	0.226079 	0.993591 	2.42849 	2.98289e-19
21.2507 	0.226079 	0.993591 	2.42849 	2.98289e-19
21.3209 	0.226079 	0.993591 	2.42849 	2.98289e-19
21.391 	0.226079 	0.993591 	2.42849 	2.98289e-19
21.4611 	0.241646 	0.693134 	1.88726 	-4.0946e-19
21.5313 	0.241646 	0.693134 	1.88726 	-4.0946e-19
21.6014 	0.241646 	0.693134 	1.88726 	-4.0946e-19
21.6715 	0.135504 	0.6037 	1.37781 	-4.21762e-20
21.7417 	0.135504 	0.6037 	1.37781 	-4.21762e-20
21.8118 	0.135504 	0.6037 	1.37781 	-4.21762e-20
21.8819 	0.135504 	0.6037 	1.37781 	-4.21762e-20
21.9521 	0.135504 	0.6037 	1.37781 	-4.21762e-20
22.0222 	-0.000231459 	0.928701 	2.32804 	1.01975e-19
22.0923 	-0.000231459 	0.928701 	2.32804 	1.01975e-19
22.1625 	-0.000231459 	0.928701 	2.32804 	1.01975e-19
22.2326 	-0.000231459 	0.928701 	2.32804 	1.01975e-19
22.3027 	-0.000231459 	0.928701 	2.32804 	1.01975e-19
22.3729 	-0.000231459 	0.928701 	2.32804 	1.01975e-19
22.443 	-0.000231459 	0.928701 	2.32804 	1.01975e-19
22.5131 	-0.000231459 	0.928701 	2.32804 	1.01975e-19
22.5833 	-0.000231459 	0.928701 	2.32804 	1.01975e-19
22.6534 	-0.000231459 	0.928701 	2.32804 	1.01975e-19
22.7235 	-0.000231459 	0.928701 	2.32804 	1.01975e-19
22.7937 	-0.000231459 	0.928701 	2.32804 	1.01975e-19
22.8638 	-0.000231459 	0.928701 	2.32804 	1.01975e-19
22.9339 	-0.000231459 	0.928701 	2.32804 	1.01975e-19
23.0041 	-0.000231459 	0.928701 	2.32804 	1.01975e-19
23.0742 	-0.000231459 	0.928701 	2.32804 	1.01975e-19
23.1443 	-0.000231459 	0.928701 	2.32804 	1.01975e-19
23.2145 	-0.000231459 	0.928701 	2.32804 	1.01975e-19
23.2846 	-0.000231459 	0.928701 	2.32804 	1.01975e-19
23.3548 	-0.000231459 	0.928701 	2.32804 	1.01975e-19
23.4249 	-0.000231459 	0.928701 	2.32804 	1.01975e-19
23.495 	0.19058 	0.896503 	2.30762 	-8.37733e-20
23.5652 	0.19058 	0.896503 	2.30762 	-8.37733e-20
23.6353 	0.19058 	0.896503 	2.30762 	-8.37733e-20
23.7054 	0.19058 	0.896503 	2.30762 	-8.37733e-20
23.7756 	0.19058 	0.896503 	2.30762 	-8.37733e-20
23.8457 	0.19058 	0.896503 	2.30762 	-8.37733e-20
23.9158 	0.19058 	0.896503 	2.30762 	-8.37733e-20
23.986 	0.320212 	0.833754 	2.16281 	3.85534e-21
24.0561 	0.320212 	0.833754 	2.16281 	3.85534e-21
24.1262 	0.320212 	0.833754 	2.16281 	3.85534e-21
24.1964 	0.320212 	0.833754 	2.16281 	3.85534e-21
24.2665 	0.320212 	0.833754 	2.16281 	3.85534e-21
24.3366 	0.320212 	0.833754 	2.16281 	3.85534e-21
24.4068 	0.320212 	0.833754 	2.16281 	3.85534e-21
24.4769 	0.320212 	0.833754 	2.16281 	3.85534e-21
24.547 	0.320212 	0.833754 	2.16281 	3.85534e-21
24.6172 	0.320212 	0.833754 	2.16281 	3.85534e-21
24.6873 	0.320212 	0.833754 	2.16281 	3.85534e-21
24.7574 	0.320212 	0.833754 	2.16281 	3.85534e-21
24.8276 	0.320212 	0.833754 	2.16281 	3.85534e-21
24.8977 	0.320212 	0.833754 	2.16281 	3.85534e-21
24.9678 	0.320212 	0.833754 	2.16281 	3.85534e-21
25.038 	0.320212 	0.833754 	2.16281 	3.85534e-21
25.1081 	0.320212 	0.833754 	2.16281 	3.85534e-21
25.1782 	0.267414 	0.492018 	1.32894 	0
25.2484 	0.267414 	0.492018 	1.32894 	0
25.3185 	0.267414 	0.492018 	1.32894 	0
25.3886 	0.267414 	0.492018 	1.32894 	0
25.4588 	0.267414 	0.492018 	1.32894 	0
25.5289 	0.267414 	0.492018 	1.32894 	0
25.5991 	0.267414 	0.492018 	1.32894 	0
25.6692 	0.267414 	0.492018 	1.32894 	0
25.7393 	0.267414 	0.492018 	1.32894 	0
25.8095 	0.267414 	0.492018 	1.32894 	0
25.8796 	0.267414 	0.492018 	1.32894 	0
25.9497 	0.267414 	0.492018 	1.32894 	0
26.0199 	0.267414 	0.492018 	1.32894 	0
26.09 	0.267414 	0.492018 	1.32894 	0
26.1601 	0.267414 	0.492018 	1.32894 	0
26.2303 	0.172368 	0.496876 	1.3563 	-2.77146e-19
26.3004 	0.172368 	0.496876 	1.3563 	-2.77146e-19
26.3705 	0.172368 	0.496876 	1.3563 	-2.77146e-19
26.4407 	0.172368 	0.496876 	1.3563 	-2.77146e-19
26.5108 	0.172368 	0.496876 	1.3563 	-2.77146e-19
26.5809 	0.172368 	0.496876 	1.3563 	-2.77146e-19
26.6511 	0.172368 	0.496876 	1.3563 	-2.77146e-19
26.7212 	0.172368 	0.496876 	1.3563 	-2.77146e-19
26.7913 	0.172368 	0.496876 	1.3563 	-2.77146e-19
26.8615 	0.172368 	0.496876 	1.3563 	-2.77146e-19
26.9316 	0.172368 	0.496876 	1.3563 	-2.77146e-19
27.0017 	0.172368 	0.496876 	1.3563 	-2.77146e-19
27.0719 	0.172368 	0.496876 	1.3563 	-2.77146e-19
27.142 	0.172368 	0.496876 	1.3563 	-2.77146e-19
27.2121 	0.172368 	0.496876 	1.3563 	-2.77146e-19
27.2823 	0.172368 	0.496876 	1.3563 	-2.77146e-19
27.3524 	0.109681 	0.490442 	1.35666 	3.04545e-19
27.4225 	0.109681 	0.490442 	1.35666 	3.04545e-19
27.4927 	0.109681 	0.490442 	1.35666 	3.04545e-19
27.5628 	0.109681 	0.490442 	1.35666 	3.04545e-19
27.6329 	0.109681 	0.490442 	1.35666 	3.04545e-19
27.7031 	0.109681 	0.490442 	1.35666 	3.04545e-19
27.7732 	0.109681 	0.490442 	1.35666 	3.04545e-19
27.8434 	0.109681 	0.490442 	1.35666 	3.04545e-19
27.9135 	0.109681 	0.490442 	1.35666 	3.04545e-19
27.9836 	0.109681 	0.490442 	1.35666 	3.04545e-19
28.0538 	0.109681 	0.490442 	1.35666 	3.04545e-19
28.1239 	0.109681 	0.490442 	1.35666 	3.04545e-19
28.194 	0.109681 	0.490442 	1.35666 	3.04545e-19
28.2642 	0.109681 	0.490442 	1.35666 	3.04545e-19
28.3343 	0.109681 	0.490442 	1.35666 	3.04545e-19
28.4044 	0.109681 	0.490442 	1.35666 	3.04545e-19
28.4746 	0.109681 	0.490442 	1.35666 	3.04545e-19
28.5447 	0.109681 	0.490442 	1.35666 	3.04545e-19
28.6148 	0.109681 	0.490442 	1.35666 	3.04545e-19
28.685 	0.109681 	0.490442 	1.35666 	3.04545e-19
28.7551 	0.109681 	0.490442 	1.35666 	3.04545e-19
28.8252 	0.109681 	0.490442 	1.35666 	3.04545e-19
28.8954 	0.109681 	0.490442 	1.35666 	3.04545e-19
28.9655 	0.0590172 	0.436665 	1.2834 	7.79902e-21
29.0356 	0.0590172 	0.436665 	1.2834 	7.79902e-21
29.1058 	0.0590172 	0.436665 	1.2834 	7.79902e-21
29.1759 	0.0590172 	0.436665 	1.2834 	7.79902e-21
29.246 	0.0590172 	0.436665 	1.2834 	7.79902e-21
29.3162 	0.0590172 	0.436665 	1.2834 	7.79902e-21
29.3863 	0.0590172 	0.436665 	1.2834 	7.79902e-21
29.4564 	0.0590172 	0.436665 	1.2834 	7.79902e-21
29.5266 	0.0590172 	0.436665 	1.2834 	7.79902e-21
29.5967 	0.0590172 	0.436665 	1.2834 	7.79902e-21
29.6668 	0.0590172 	0.436665 	1.2834 	7.79902e-21
29.737 	0.0590172 	0.436665 	1.2834 	7.79902e-21
29.8071 	0.0590172 	0.436665 	1.2834 	7.79902e-21
29.8773 	0.0590172 	0.436665 	1.2834 	7.79902e-21
29.9474 	0.0590172 	0.436665 	1.2834 	7.79902e-21
30.0175 	0.0590172 	0.436665 	1.2834 	7.79902e-21
30.0877 	0.0590172 	0.436665 	1.2834 	7.79902e-21
30.1578 	0.0590172 	0.436665 	1.2834 	7.79902e-21
30.2279 	0.0590172 	0.436665 	1.2834 	7.79902e-21
30.2981 	0.0590172 	0.436665 	1.2834 	7.79902e-21
30.3682 	0.0590172 	0.436665 	1.2834 	7.79902e-21
30.4383 	0.0590172 	0.436665 	1.2834 	7.79902e-21
30.5085 	0.0590172 	0.436665 	1.2834 	7.79902e-21
30.5786 	0.0590172 	0.436665 	1.2834 	7.79902e-21
30.6487 	0.0590172 	0.436665 	1.2834 	7.79902e-21
30.7189 	0.0590172 	0.436665 	1.2834 	7.79902e-21
30.789 	0.0546634 	0.374029 	1.30737 	-7.3001e-20
30.8591 	0.0546634 	0.374029 	1.30737 	-7.3001e-20
30.9293 	0.0546634 	0.374029 	1.30737 	-7.3001e-20
30.9994 	0.0546634 	0.374029 	1.30737 	-7.3001e-20
31.0695 	0.0546634 	0.374029 	1.30737 	-7.3001e-20
31.1397 	0.0546634 	0.374029 	1.30737 	-7.3001e-20
31.2098 	0.0546634 	0.374029 	1.30737 	-7.3001e-20
31.2799 	0.0546634 	0.374029 	1.30737 	-7.3001e-20
31.3501 	0.0546634 	0.374029 	1.30737 	-7.3001e-20
31.4202 	0.0546634 	0.374029 	1.30737 	-7.3001e-20
31.4903 	0.0546634 	0.374029 	1.30737 	-7.3001e-20
31.5605 	0.0546634 	0.374029 	1.30737 	-7.3001e-20
31.6306 	0.0546634 	0.374029 	1.30737 	-7.3001e-20
31.7007 	0.0546634 	0.374029 	1.30737 	-7.3001e-20
31.7709 	0.0546634 	0.374029 	1.30737 	-7.3001e-20
31.841 	0.0546634 	0.374029 	1.30737 	-7.3001e-20
31.9111 	0.0546634 	0.374029 	1.30737 	-7.3001e-20
31.9813 	0.0546634 	0.374029 	1.30737 	-7.3001e-20
32.0514 	0.0546634 	0.374029 	1.30737 	-7.3001e-20
32.1216 	0.0546634 	0.374029 	1.30737 	-7.3001e-20
32.1917 	0.0546634 	0.374029 	1.30737 	-7.3001e-20
32.2618 	0.0546634 	0.374029 	1.30737 	-7.3001e-20
32.332 	0.0546634 	0.374029 	1.30737 	-7.3001e-20
32.4021 	0.0546634 	0.374029 	1.30737 	-7.3001e-20
32.4722 	0.0546634 	0.374029 	1.30737 	-7.3001e-20
32.5424 	0.0546634 	0.374029 	1.30737 	-7.3001e-20
32.6125 	0.0546634 	0.374029 	1.30737 	-7.3001e-20
32.6826 	0.0546634 	0.374029 	1.30737 	-7.3001e-20
32.7528 	0.0546634 	0.374029 	1.30737 	-7.3001e-20
32.8229 	0.0546634 	0.374029 	1.30737 	-7.3001e-20
32.893 	0.0546634 	0.374029 	1.30737 	-7.3001e-20
32.9632 	0.0546634 	0.374029 	1.30737 	-7.3001e-20
33.0333 	0.0546634 	0.374029 	1.30737 	-7.3001e-20
33.1034 	0.0546634 	0.374029 	1.30737 	-7.3001e-20
33.1736 	0.0546634 	0.374029 	1.30737 	-7.3001e-20
33.2437 	0.0546634 	0.374029 	1.30737 	-7.3001e-20
33.3138 	0.0546634 	0.374029 	1.30737 	-7.3001e-20
33.384 	0.0546634 	0.374029 	1.30737 	-7.3001e-20
33.4541 	0.0546634 	0.374029 	1.30737 	-7.3001e-20
33.5242 	0.0546634 	0.374029 	1.30737 	-7.3001e-20
33.5944 	0.0546634 	0.374029 	1.30737 	-7.3001e-20
33.6645 	0.0546634 	0.374029 	1.30737 	-7.3001e-20
33.7346 	0.0139019 	0.371335 	1.38149 	3.72588e-20
33.8048 	0.0139019 	0.371335 	1.38149 	3.72588e-20
33.8749 	0.0139019 	0.371335 	1.38149 	3.72588e-20
33.945 	0.0139019 	0.371335 	1.38149 	3.72588e-20
34.0152 	0.0139019 	0.371335 	1.38149 	3.72588e-20
34.0853 	0.0139019 	0.371335 	1.38149 	3.72588e-20
34.1554 	0.012655 	0.278341 	1.33947 	-1.03819e-19
34.2256 	0.012655 	0.278341 	1.33947 	-1.03819e-19
34.2957 	0.012655 	0.278341 	1.33947 	-1.03819e-19
34.3659 	0.012655 	0.278341 	1.33947 	-1.03819e-19
34.436 	0.012655 	0.278341 	1.33947 	-1.03819e-19
34.5061 	0.012655 	0.278341 	1.33947 	-1.03819e-19
34.5763 	0.012655 	0.278341 	1.33947 	-1.03819e-19
34.6464 	0.012655 	0.278341 	1.33947 	-1.03819e-19
34.7165 	0.20831 	0.268199 	1.61609 	1.12764e-19
34.7867 	0.20831 	0.268199 	1.61609 	1.12764e-19
34.8568 	0.20831 	0.268199 	1.61609 	1.12764e-19
34.9269 	0.20831 	0.268199 	1.61609 	1.12764e-19
34.9971 	0.20831 	0.268199 	1.61609 	1.12764e-19
35.0672 	0.20831 	0.268199 	1.61609 	1.12764e-19
35.1373 	0.20831 	0.268199 	1.61609 	1.12764e-19
35.2075 	0.20831 	0.268199 	1.61609 	1.12764e-19
35.2776 	0.20831 	0.268199 	1.61609 	1.12764e-19
35.3477 	0.20831 	0.268199 	1.61609 	1.12764e-19
35.4179 	0.20831 	0.268199 	1.61609 	1.12764e-19
35.488 	0.20831 	0.268199 	1.61609 	1.12764e-19
35.5581 	0.20831 	0.268199 	1.61609 	1.12764e-19
35.6283 	0.20831 	0.268199 	1.61609 	1.12764e-19
35.6984 	0.20831 	0.268199 	1.61609 	1.12764e-19
35.7685 	0.20831 	0.268199 	1.61609 	1.12764e-19
35.8387 	0.20831 	0.268199 	1.61609 	1.12764e-19
35.9088 	0.20831 	0.268199 	1.61609 	1.12764e-19
35.9789 	0.20831 	0.268199 	1.61609 	1.12764e-19
36.0491 	0.179853 	0.242252 	1.57909 	0
36.1192 	0.179853 	0.242252 	1.57909 	0
36.1893 	0.179853 	0.242252 	1.57909 	0
36.2595 	0.179853 	0.242252 	1.57909 	0
36.3296 	0.179853 	0.242252 	1.57909 	0
36.3997 	0.179853 	0.242252 	1.57909 	0
36.4699 	0.179853 	0.242252 	1.57909 	0
36.54 	0.179853 	0.242252 	1.57909 	0
36.6102 	0.179853 	0.242252 	1.57909 	0
36.6803 	0.179853 	0.242252 	1.57909 	0
36.7504 	0.179853 	0.242252 	1.57909 	0
36.8206 	0.179853 	0.242252 	1.57909 	0
36.8907 	0.0521521 	0.194799 	1.46446 	6.14191e-20
36.9608 	0.0521521 	0.194799 	1.46446 	6.14191e-20
37.031 	0.0521521 	0.194799 	1.46446 	6.14191e-20
37.1011 	0.0521521 	0.194799 	1.46446 	6.14191e-20
37.1712 	0.0521521 	0.194799 	1.46446 	6.14191e-20
37.2414 	0.0521521 	0.194799 	1.46446 	6.14191e-20
37.3115 	0.0521521 	0.194799 	1.46446 	6.14191e-20
37.3816 	0.0521521 	0.194799 	1.46446 	6.14191e-20
37.4518 	0.0521521 	0.194799 	1.46446 	6.14191e-20
37.5219 	0.0521521 	0.194799 	1.46446 	6.14191e-20
37.592 	0.0521521 	0.194799 	1.46446 	6.14191e-20
37.6622 	0.0521521 	0.194799 	1.46446 	6.14191e-20
37.7323 	0.0521521 	0.194799 	1.46446 	6.14191e-20
37.8024 	0.0521521 	0.194799 	1.46446 	6.14191e-20
37.8726 	0.0521521 	0.194799 	1.46446 	6.14191e-20
37.9427 	0.0521521 	0.194799 	1.46446 	6.14191e-20
38.0128 	0.0521521 	0.194799 	1.46446 	6.14191e-20
38.083 	0.0521521 	0.194799 	1.46446 	6.14191e-20
38.1531 	0.0521521 	0.194799 	1.46446 	6.14191e-20
38.2232 	0.0744745 	0.135574 	1.60005 	-7.04479e-20
38.2934 	0.0744745 	0.135574 	1.60005 	-7.04479e-20
38.3635 	0.0744745 	0.135574 	1.60005 	-7.04479e-20
38.4336 	0.0744745 	0.135574 	1.60005 	-7.04479e-20
38.5038 	0.0744745 	0.135574 	1.60005 	-7.04479e-20
38.5739 	0.0744745 	0.135574 	1.60005 	-7.04479e-20
38.644 	0.0744745 	0.135574 	1.60005 	-7.04479e-20
38.7142 	0.0744745 	0.135574 	1.60005 	-7.04479e-20
38.7843 	0.0744745 	0.135574 	1.60005 	-7.04479e-20
38.8545 	0.0744745 	0.135574 	1.60005 	-7.04479e-20
38.9246 	0.0744745 	0.135574 	1.60005 	-7.04479e-20
38.9947 	0.0744745 	0.135574 	1.60005 	-7.04479e-20
39.0649 	0.0744745 	0.135574 	1.60005 	-7.04479e-20
39.135 	0.0744745 	0.135574 	1.60005 	-7.04479e-20
39.2051 	0.0360164 	0.119553 	1.57865 	0
39.2753 	0.0360164 	0.119553 	1.57865 	0
39.3454 	0.0360164 	0.119553 	1.57865 	0
39.4155 	0.0360164 	0.119553 	1.57865 	0
39.4857 	0.0360164 	0.119553 	1.57865 	0
39.5558 	0.0360164 	0.119553 	1.57865 	0
39.6259 	0.0360164 	0.119553 	1.57865 	0
39.6961 	0.0360164 	0.119553 	1.57865 	0
39.7662 	0.0360164 	0.119553 	1.57865 	0
39.8363 	0.0360164 	0.119553 	1.57865 	0
39.9065 	0.0360164 	0.119553 	1.57865 	0
39.9766 	0.0360164 	0.119553 	1.57865 	0
40.0467 	0.0360164 	0.119553 	1.57865 	0
40.1169 	0.0360164 	0.119553 	1.57865 	0
40.187 	0.0360164 	0.119553 	1.57865 	0
40.2571 	0.0360164 	0.119553 	1.57865 	0
40.3273 	0.0360164 	0.119553 	1.57865 	0
40.3974 	0.0360164 	0.119553 	1.57865 	0
40.4675 	0.0360164 	0.119553 	1.57865 	0
40.5377 	0.0360164 	0.119553 	1.57865 	0
40.6078 	0.0360164 	0.119553 	1.57865 	0
40.6779 	0.023318 	0.112383 	1.54666 	-1.5268e-20
40.7481 	0.023318 	0.112383 	1.54666 	-1.5268e-20
40.8182 	0.023318 	0.112383 	1.54666 	-1.5268e-20
40.8883 	0.023318 	0.112383 	1.54666 	-1.5268e-20
40.9585 	0.023318 	0.112383 	1.54666 	-1.5268e-20
41.0286 	0.023318 	0.112383 	1.54666 	-1.5268e-20
41.0988 	0.023318 	0.112383 	1.54666 	-1.5268e-20
41.1689 	0.023318 	0.112383 	1.54666 	-1.5268e-20
41.239 	0.0280683 	0.0931131 	1.54731 	2.72532e-20
41.3092 	0.0280683 	0.0931131 	1.54731 	2.72532e-20
41.3793 	0.0280683 	0.0931131 	1.54731 	2.72532e-20
41.4494 	0.0280683 	0.0931131 	1.54731 	2.72532e-20
41.5196 	0.0280683 	0.0931131 	1.54731 	2.72532e-20
41.5897 	0.0280683 	0.0931131 	1.54731 	2.72532e-20
41.6598 	0.0280683 	0.0931131 	1.54731 	2.72532e-20
41.73 	0.0280683 	0.0931131 	1.54731 	2.72532e-20
41.8001 	0.0280683 	0.0931131 	1.54731 	2.72532e-20
41.8702 	0.0280683 	0.0931131 	1.54731 	2.72532e-20
41.9404 	0.0280683 	0.0931131 	1.54731 	2.72532e-20
42.0105 	0.0280683 	0.0931131 	1.54731 	2.72532e-20
42.0806 	0.0280683 	0.0931131 	1.54731 	2.72532e-20
42.1508 	0.0280683 	0.0931131 	1.54731 	2.72532e-20
42.2209 	0.0280683 	0.0931131 	1.54731 	2.72532e-20
42.291 	0.0280683 	0.0931131 	1.54731 	2.72532e-20
42.3612 	0.0280683 	0.0931131 	1.54731 	2.72532e-20
42.4313 	0.0280683 	0.0931131 	1.54731 	2.72532e-20
42.5014 	0.0280683 	0.0931131 	1.54731 	2.72532e-20
42.5716 	0.0280683 	0.0931131 	1.54731 	2.72532e-20
42.6417 	0.0280683 	0.0931131 	1.54731 	2.72532e-20
42.7118 	0.0156299 	0.0927321 	1.54841 	0
42.782 	0.0156299 	0.0927321 	1.54841 	0
42.8521 	0.0156299 	0.0927321 	1.54841 	0
42.9222 	0.0156299 	0.0927321 	1.54841 	0
42.9924 	0.0267808 	0.0526857 	1.58955 	0
43.0625 	0.0267808 	0.0526857 	1.58955 	0
43.1327 	0.0267808 	0.0526857 	1.58955 	0
43.2028 	0.0267808 	0.0526857 	1.58955 	0
43.2729 	0.0267808 	0.0526857 	1.58955 	0
43.3431 	0.0267808 	0.0526857 	1.58955 	0
43.4132 	0.0267808 	0.0526857 	1.58955 	0
43.4833 	0.0267808 	0.0526857 	1.58955 	0
43.5535 	0.0267808 	0.0526857 	1.58955 	0
43.6236 	0.0267808 	0.0526857 	1.58955 	0
43.6937 	0.0267808 	0.0526857 	1.58955 	0