/*--------------------------------*- C++ -*----------------------------------*\
| =========                 |                                                 |
| \\      /  F ield         | OpenFOAM: The Open Source CFD Toolbox           |
|  \\    /   O peration     | Version:  2306                                  |
|   \\  /    A nd           | Website:  www.openfoam.com                      |
|    \\/     M anipulation  |                                                 |
\*---------------------------------------------------------------------------*/
FoamFile
{
    version     2.0;
    format      ascii;
    arch        "LSB;label=32;scalar=64";
    class       surfaceScalarField;
    location    "13";
    object      phi;
}
// * * * * * * * * * * * * * * * * * * * * * * * * * * * * * * * * * * * * * //

dimensions      [0 3 -1 0 0 0 0];

oriented        oriented;

internalField   nonuniform List<scalar> 
17370
(
-0.0910832
0.093525
0.286569
-0.0749229
0.0569111
0.364787
-0.0408869
0.0299072
0.427148
-0.0211623
0.0155704
0.504844
-0.0113214
0.00861538
0.602108
-0.00647789
0.00502331
0.720512
-0.0038027
0.00292863
0.863781
-0.0021597
0.00159267
1.03602
-0.00108231
0.000689058
1.2429
-0.000312876
-4.76738e-05
1.49155
0.000398308
-0.000784652
1.49158
0.00117691
-0.00168315
1.2432
0.00224382
-0.00300411
1.0364
0.00386978
-0.00508294
0.86412
0.00653289
-0.00866942
0.721194
0.0113731
-0.0156158
0.603457
0.0212018
-0.0299402
0.508178
0.0409142
-0.0569327
0.432187
0.0749395
-0.0935349
0.365371
0.0910911
0.19792
-0.127398
0.0882482
0.0391502
-0.36479
0.353891
-0.0724981
0.0833973
-0.446605
0.45443
-0.0814957
0.0736711
-0.521011
0.529641
-0.065517
0.0568874
-0.612853
0.621073
-0.0490698
0.0408492
-0.726958
0.733731
-0.0339025
0.0271296
-0.867463
0.872341
-0.0218167
0.0169387
-1.03851
1.04176
-0.0132858
0.0100333
-1.24467
1.24697
-0.0075807
0.00528166
-1.49277
1.49472
-0.00339426
0.00144644
-1.49263
1.49435
0.000253296
-0.00198084
-1.24407
1.24593
0.00390214
-0.00576138
-1.03757
1.04
0.00802943
-0.0104553
-0.866126
0.869747
0.0136755
-0.0172957
-0.724455
0.729732
0.0221364
-0.0274135
-0.608882
0.615808
0.0341574
-0.0410837
-0.515029
0.522824
0.0492785
-0.0570729
-0.43982
0.447955
0.0656786
-0.0738137
-0.375211
0.377086
0.0816157
-0.0834909
-0.257004
0.223617
0.0725612
-0.0391742
-0.0688262
0.0592011
0.00962512
-0.0514676
0.0580199
-0.374665
0.368112
-0.0570661
0.0532568
-0.453859
0.457668
-0.0480117
0.0437722
-0.527814
0.532054
-0.0396088
0.035818
-0.621156
0.624947
-0.0315477
0.0274359
-0.734801
0.738913
-0.0229553
0.0189888
-0.873908
0.877875
-0.0149489
0.0115488
-1.04322
1.04662
-0.00815698
0.00529408
-1.24844
1.2513
-0.00231592
-0.000467769
-1.49664
1.49942
0.00322616
-0.00617845
-1.49717
1.50012
0.00900513
-0.012347
-1.2499
1.25325
0.0156931
-0.019666
-1.0456
1.04957
0.0235715
-0.0279918
-0.877262
0.881682
0.0320491
-0.0362662
-0.739389
0.743606
0.0400168
-0.0441392
-0.626492
0.630614
0.0483422
-0.0535507
-0.535054
0.540262
0.0573221
-0.0582306
-0.458047
0.458956
0.0516259
-0.0316065
-0.336735
0.316716
0.00965104
-0.0687509
0.0590998
-0.0535537
0.0496447
0.00390899
-0.0321492
0.0422723
-0.358892
0.348769
-0.0457203
0.0449459
-0.459619
0.460393
-0.0417889
0.038411
-0.535961
0.539339
-0.0346525
0.0313613
-0.628424
0.631715
-0.0279157
0.0249274
-0.742195
0.745184
-0.0217903
0.0189203
-0.881323
0.884193
-0.0157001
0.0126777
-1.04992
1.05294
-0.00931428
0.00619078
-1.25436
1.25749
-0.0026711
-0.000729131
-1.50259
1.50599
0.00410826
-0.00757125
-1.50339
1.50686
0.0106268
-0.0139008
-1.25664
1.25991
0.0168419
-0.0199724
-1.05322
1.05635
0.02276
-0.0258046
-0.885269
0.888314
0.0287082
-0.0320761
-0.7471
0.750468
0.0352936
-0.0389762
-0.634619
0.638302
0.0422962
-0.0453936
-0.544569
0.547667
0.0461077
-0.042577
-0.457373
0.453842
0.0323588
-0.0156304
-0.297783
0.281054
0.0039413
-0.0534233
0.049482
-0.0467257
0.0444581
0.00226768
-0.021006
0.0305774
-0.338703
0.329131
-0.0358918
0.0367878
-0.460252
0.459356
-0.0356379
0.033496
-0.542039
0.544181
-0.0310013
0.0286145
-0.634546
0.636933
-0.0258986
0.0233551
-0.747976
0.75052
-0.0204532
0.0177607
-0.886905
0.889598
-0.0147397
0.0119259
-1.05578
1.05859
-0.00874945
0.00574956
-1.26057
1.26357
-0.00231935
-0.000965062
-1.5094
1.51268
0.00423391
-0.00760654
-1.51033
1.51371
0.01052
-0.0135946
-1.26306
1.26614
0.0163053
-0.0192019
-1.05927
1.06216
0.0217785
-0.0245437
-0.891225
0.89399
0.0269643
-0.0295848
-0.753473
0.756094
0.0318954
-0.0342951
-0.641322
0.643721
0.0363507
-0.0373986
-0.549669
0.550717
0.0364054
-0.0309634
-0.449102
0.44366
0.0212611
-0.00921688
-0.266796
0.254751
0.00230606
-0.046528
0.044222
-0.0426461
0.0412108
0.00143534
-0.0136942
0.0215169
-0.32031
0.312487
-0.02715
0.0290206
-0.457908
0.456037
-0.0288117
0.0275841
-0.545818
0.547045
-0.0259916
0.0243984
-0.638903
0.640496
-0.0224989
0.0205995
-0.752799
0.754698
-0.0183085
0.0160158
-0.892171
0.894464
-0.0133396
0.0107723
-1.06134
1.06391
-0.00785
0.00506139
-1.26647
1.26926
-0.00184348
-0.00130241
-1.51587
1.51902
0.0044176
-0.00755227
-1.51696
1.52009
0.0102325
-0.0129974
-1.26909
1.27186
0.0154031
-0.0179038
-1.06493
1.06744
0.0200299
-0.0221391
-0.896529
0.898638
0.0239008
-0.0256532
-0.758326
0.760078
0.0271102
-0.0285786
-0.645579
0.647048
0.029705
-0.0297936
-0.551182
0.551271
0.0277921
-0.0219884
-0.437898
0.432095
0.0140008
-0.00579975
-0.244668
0.236467
0.00148317
-0.0423682
0.040885
-0.0401476
0.0394459
0.000701709
-0.00734833
0.0126881
-0.305869
0.300529
-0.0176213
0.0200144
-0.45383
0.451437
-0.0205598
0.0200859
-0.547921
0.548395
-0.0189915
0.0178461
-0.641879
0.643025
-0.0165143
0.0152106
-0.756257
0.75756
-0.0137168
0.012256
-0.896293
0.897754
-0.010481
0.00864955
-1.06612
1.06795
-0.00637376
0.00404085
-1.27186
1.27419
-0.00119045
-0.00168405
-1.52208
1.52495
0.00451361
-0.00723328
-1.52306
1.52578
0.00940638
-0.0114901
-1.27431
1.27639
0.0131274
-0.014674
-1.06943
1.07098
0.0159383
-0.0172239
-0.900264
0.901549
0.0183072
-0.0194526
-0.761515
0.76266
0.0204348
-0.0213616
-0.648307
0.649233
0.0216777
-0.0209546
-0.550943
0.550219
0.0183798
-0.0132306
-0.426497
0.421348
0.00770025
-0.00299839
-0.230107
0.225406
0.000757199
-0.0397694
0.0390122
-0.039038
0.0388288
0.000209127
-0.00331559
0.00656339
-0.296354
0.293106
-0.0103396
0.0127117
-0.449022
0.44665
-0.0137695
0.0139519
-0.548504
0.548322
-0.0136874
0.0133461
-0.643755
0.644097
-0.0127896
0.0121023
-0.758552
0.759239
-0.0111002
0.00997414
-0.899032
0.900159
-0.00849844
0.00694525
-1.06957
1.07112
-0.00498332
0.00294215
-1.27632
1.27836
-0.000426299
-0.0020817
-1.52761
1.53012
0.00454005
-0.00691842
-1.52827
1.53065
0.00878287
-0.0105154
-1.27823
1.27996
0.011845
-0.01306
-1.07232
1.07353
0.0139354
-0.0146632
-0.902546
0.903274
0.0151281
-0.015393
-0.763326
0.763591
0.0155055
-0.0155617
-0.649701
0.649757
0.0151671
-0.0138731
-0.549201
0.547907
0.0112692
-0.0072314
-0.416774
0.412736
0.00375421
-0.00129132
-0.222014
0.219552
0.000279538
-0.0385423
0.0382628
-0.0387397
0.0387112
2.85728e-05
-0.00160311
0.00375319
-0.290521
0.288371
-0.00684989
0.00935811
-0.444258
0.44175
-0.0111082
0.0119919
-0.547822
0.546938
-0.0122566
0.0122466
-0.644215
0.644225
-0.011945
0.0114332
-0.759792
0.760304
-0.0106328
0.00963455
-0.90115
0.902149
-0.00821926
0.00661313
-1.07266
1.07427
-0.00453769
0.00240647
-1.28042
1.28255
0.000144988
-0.00266999
-1.53259
1.53511
0.00514693
-0.00753672
-1.53302
1.53541
0.00942911
-0.0111645
-1.28167
1.2834
0.012429
-0.0134712
-1.07462
1.07567
0.0141426
-0.0146212
-0.903846
0.904325
0.0148412
-0.0147966
-0.763644
0.763599
0.014534
-0.0139681
-0.649458
0.648892
0.0128298
-0.0107869
-0.546277
0.544234
0.00799402
-0.00457612
-0.409086
0.405668
0.00214327
-0.000654769
-0.217695
0.216207
0.000114265
-0.0380948
0.0379806
-0.0387037
0.038703
6.99151e-07
-0.000966681
0.00257407
-0.286518
0.28491
-0.00535496
0.00818286
-0.439075
0.436247
-0.0108335
0.0125482
-0.545688
0.543973
-0.0135479
0.0138697
-0.644089
0.643767
-0.0137987
0.0132778
-0.760762
0.761283
-0.0122979
0.0110204
-0.903285
0.904562
-0.00923402
0.00728838
-1.07604
1.07799
-0.0048509
0.00238135
-1.28482
1.28729
0.000569658
-0.00347123
-1.53778
1.54068
0.00630272
-0.00902027
-1.53791
1.54063
0.0111716
-0.0131908
-1.28528
1.2873
0.0147232
-0.0160388
-1.07682
1.07814
0.0168921
-0.0174408
-0.90474
0.905289
0.0174916
-0.0171356
-0.763382
0.763026
0.0164877
-0.0151005
-0.648034
0.646647
0.0130331
-0.00999337
-0.541713
0.538674
0.00679962
-0.00361498
-0.402374
0.39919
0.00165154
-0.000530094
-0.214934
0.213812
0.000108504
-0.0378783
0.0377698
-0.0387131
0.0387384
-2.5355e-05
-0.000434854
0.00150012
-0.283559
0.282494
-0.00370248
0.00639528
-0.433395
0.430702
-0.00946261
0.0118051
-0.54186
0.539517
-0.013585
0.0142832
-0.64332
0.642622
-0.0142817
0.013886
-0.761744
0.76214
-0.0128596
0.0115
-0.905909
0.907269
-0.00959929
0.00753616
-1.08003
1.0821
-0.00492845
0.0021785
-1.28994
1.29269
0.00116874
-0.00445128
-1.54382
1.5471
0.00761722
-0.0106576
-1.54356
1.5466
0.0130263
-0.0151339
-1.2894
1.2915
0.0166885
-0.0180017
-1.07951
1.08082
0.0187913
-0.0191487
-0.905802
0.906159
0.0190965
-0.0186121
-0.762629
0.762145
0.0173448
-0.0150269
-0.644752
0.642434
0.0122155
-0.00863733
-0.535246
0.531668
0.00548428
-0.00278303
-0.396195
0.393494
0.00127774
-0.000444597
-0.212835
0.212002
0.000108394
-0.0376585
0.0375501
-0.0387816
0.0388469
-6.5347e-05
8.00825e-05
0.000429416
-0.281719
0.28121
-0.00176364
0.00367876
-0.42834
0.426425
-0.00617648
0.0083075
-0.537172
0.535041
-0.0101443
0.0111825
-0.641617
0.640579
-0.0115588
0.0112784
-0.76255
0.762831
-0.0104858
0.00933892
-0.908571
0.909718
-0.00765625
0.00577563
-1.0841
1.08598
-0.00333447
0.000730811
-1.29542
1.29803
0.0024842
-0.00561948
-1.55039
1.55352
0.00859779
-0.0114077
-1.5496
1.55241
0.0135399
-0.0154407
-1.29356
1.29546
0.0167655
-0.0177385
-1.08201
1.08298
0.0182409
-0.0183362
-0.90639
0.906486
0.0178879
-0.0166563
-0.761329
0.760097
0.0149151
-0.0123445
-0.639865
0.637294
0.00959012
-0.00644646
-0.528199
0.525055
0.0039603
-0.00201249
-0.391158
0.38921
0.000968849
-0.000370804
-0.211298
0.2107
0.000101336
-0.0374455
0.0373442
-0.0389335
0.0390414
-0.000107966
0.000471958
-0.000425805
-0.280959
0.280913
-0.000121727
0.00112441
-0.424983
0.42398
-0.00261251
0.00400609
-0.533251
0.531857
-0.00528982
0.00609535
-0.639632
0.638826
-0.00650714
0.00645961
-0.762947
0.762995
-0.00596134
0.00512102
-0.910697
0.911538
-0.00380032
0.00225449
-1.0877
1.08925
-0.00021546
-0.00194297
-1.30043
1.30259
0.00455602
-0.00708717
-1.55639
1.55892
0.00944614
-0.0115409
-1.55491
1.557
0.0130969
-0.0144584
-1.29712
1.29848
0.0152236
-0.015558
-1.08364
1.08397
0.0154563
-0.0149495
-0.906256
0.905749
0.0140825
-0.0127
-0.758746
0.757363
0.0110662
-0.0089262
-0.63491
0.63277
0.00679459
-0.00453865
-0.52235
0.520094
0.00285199
-0.001558
-0.387622
0.386328
0.000828303
-0.000351863
-0.210179
0.209703
0.000103168
-0.0372441
0.0371409
-0.0391662
0.0393103
-0.000144173
0.00080224
-0.00104038
-0.280997
0.281235
0.00105949
-0.000764063
-0.423363
0.423067
0.000147681
0.000492517
-0.530857
0.530217
-0.00111048
0.00150063
-0.638217
0.637826
-0.00166428
0.00154333
-0.763052
0.763173
-0.00109527
0.000400093
-0.912282
0.912977
0.000673294
-0.00192322
-1.09063
1.09188
0.00354957
-0.0051896
-1.30447
1.30611
0.00711581
-0.00892798
-1.56109
1.5629
0.010544
-0.0118597
-1.55868
1.56
0.0126722
-0.0132239
-1.29947
1.30002
0.0134158
-0.0132364
-1.08402
1.08384
0.0127608
-0.0119414
-0.905053
0.904233
0.0109474
-0.00962817
-0.755998
0.754679
0.00824623
-0.00660328
-0.630889
0.629246
0.00508361
-0.00354732
-0.518239
0.516702
0.00240296
-0.00147233
-0.385252
0.384321
0.000868941
-0.000400027
-0.209242
0.208773
0.00012267
-0.0370304
0.0369077
-0.039473
0.039655
-0.000181968
0.00108281
-0.00155907
-0.281596
0.282072
0.00195275
-0.00212996
-0.423035
0.423212
0.00214083
-0.00207781
-0.529899
0.529836
0.00203574
-0.00208728
-0.637669
0.63772
0.00228563
-0.00262982
-0.7634
0.763744
0.0032072
-0.00392106
-0.913663
0.914377
0.00490806
-0.00598428
-1.09302
1.09409
0.00731757
-0.00858823
-1.30754
1.30882
0.00999364
-0.0112255
-1.5644
1.56563
0.0122112
-0.0128728
-1.56099
1.56165
0.0131189
-0.0130431
-1.3002
1.30012
0.0127013
-0.0120893
-1.08342
1.08281
0.011346
-0.0103574
-0.903319
0.90233
0.00933101
-0.00810995
-0.753414
0.752193
0.00693997
-0.00564289
-0.627805
0.626508
0.00449821
-0.00335264
-0.515404
0.514259
0.00245772
-0.00164504
-0.383475
0.382663
0.00103367
-0.000495896
-0.208278
0.20774
0.000155717
-0.0367709
0.0366152
-0.0398627
0.0400937
-0.000231007
0.00140679
-0.00208162
-0.282638
0.283313
0.00275998
-0.00327641
-0.423532
0.424048
0.0037199
-0.00408119
-0.53003
0.530392
0.00448432
-0.004913
-0.637993
0.638422
0.00547764
-0.0061007
-0.764237
0.76486
0.00691156
-0.00776927
-0.915142
0.916
0.00882893
-0.00988508
-1.09513
1.09618
0.0110964
-0.0121741
-1.30996
1.31104
0.0132597
-0.0140817
-1.56663
1.56745
0.0145872
-0.0147144
-1.56202
1.56215
0.0144648
-0.0139142
-1.29981
1.29926
0.0131974
-0.0122908
-1.08204
1.08114
0.0113508
-0.0102311
-0.901271
0.900152
0.0091586
-0.00796217
-0.750996
0.7498
0.00687518
-0.00571662
-0.625314
0.624155
0.00471203
-0.00368986
-0.513212
0.51219
0.0028386
-0.00198748
-0.381849
0.380998
0.00128458
-0.000627354
-0.207151
0.206494
0.000199357
-0.036442
0.0362426
-0.0403569
0.0406503
-0.000293392
0.00180205
-0.00269362
-0.284085
0.284977
0.00363795
-0.00442438
-0.424685
0.425471
0.00520306
-0.00588867
-0.530949
0.531635
0.00666008
-0.00742061
-0.63909
0.639851
0.00834174
-0.00927663
-0.765653
0.766588
0.0103972
-0.0114942
-0.91694
0.918037
0.0127524
-0.0139221
-1.09724
1.09841
0.0151702
-0.0162028
-1.31205
1.31308
0.0171317
-0.0176911
-1.56812
1.56867
0.0178484
-0.0175742
-1.56206
1.56178
0.01698
-0.0160149
-1.29847
1.29751
0.0149868
-0.0137794
-1.08007
1.07886
0.0126207
-0.0113192
-0.898933
0.897631
0.010129
-0.00884655
-0.74857
0.747287
0.00771043
-0.00651688
-0.623016
0.621823
0.00548091
-0.00440287
-0.511182
0.510104
0.00346316
-0.00247148
-0.380095
0.379104
0.00161657
-0.000796009
-0.205767
0.204947
0.000254956
-0.036025
0.0357701
-0.0409862
0.0413614
-0.000375262
0.00230696
-0.00345625
-0.285991
0.28714
0.00468933
-0.00573918
-0.426401
0.42745
0.00680646
-0.00776827
-0.53255
0.533511
0.00887848
-0.00999211
-0.640868
0.641982
0.0113254
-0.012642
-0.767693
0.76901
0.0141639
-0.0155862
-0.919221
0.920643
0.0171311
-0.0185021
-1.0996
1.10097
0.0199038
-0.0209973
-1.31408
1.31517
0.0218779
-0.0222654
-1.56911
1.5695
0.0221436
-0.0215047
-1.56131
1.56067
0.0205683
-0.0192539
-1.29635
1.29504
0.017916
-0.0163827
-1.07747
1.07594
0.0149578
-0.0134048
-0.896175
0.894622
0.0120178
-0.0105475
-0.745903
0.744433
0.00925614
-0.00790012
-0.620593
0.619237
0.00671228
-0.00545218
-0.509006
0.507746
0.00432605
-0.00310885
-0.378035
0.376818
0.00204353
-0.00101072
-0.204044
0.203012
0.000326
-0.0355011
0.0351751
-0.0417948
0.0422779
-0.000483109
0.00296233
-0.00443557
-0.28846
0.289933
0.00601811
-0.0073651
-0.428725
0.430072
0.00873922
-0.00999829
-0.534822
0.536082
0.0114737
-0.0129716
-0.643365
0.644863
0.0147783
-0.01654
-0.770432
0.772193
0.0185384
-0.0203744
-0.922118
0.923954
0.0223387
-0.0240246
-1.10241
1.10409
0.0256818
-0.0269132
-1.31625
1.31748
0.0278114
-0.0280706
-1.56977
1.57002
0.027692
-0.0266869
-1.55982
1.55882
0.0253841
-0.0236714
-1.29351
1.2918
0.0219699
-0.0200445
-1.07417
1.07224
0.018285
-0.0163986
-0.892836
0.89095
0.0147361
-0.0129901
-0.742778
0.741032
0.0114609
-0.00984851
-0.6178
0.616187
0.00841872
-0.00687433
-0.506468
0.504924
0.00547097
-0.00393491
-0.375527
0.37399
0.00258805
-0.00128171
-0.201894
0.200588
0.000415404
-0.0348473
0.0344319
-0.0428467
0.0434756
-0.000628887
0.00382867
-0.00572546
-0.291654
0.293551
0.0077626
-0.00949693
-0.431761
0.433496
0.0112662
-0.0128911
-0.537839
0.539464
0.0148102
-0.0167684
-0.646672
0.648631
0.0191388
-0.0214316
-0.77401
0.776303
0.0240073
-0.0263522
-0.925804
0.928149
0.0288323
-0.0309287
-1.1058
1.10789
0.032921
-0.0343373
-1.31868
1.3201
0.0352806
-0.0354117
-1.57016
1.57029
0.0347515
-0.0333311
-1.55758
1.55616
0.031598
-0.029394
-1.28982
1.28762
0.027237
-0.024819
-1.07002
1.0676
0.0226313
-0.0203094
-0.888733
0.886412
0.0182829
-0.0161726
-0.738987
0.736877
0.0143317
-0.0123871
-0.61443
0.612485
0.010645
-0.00873248
-0.503384
0.501472
0.00696657
-0.00499083
-0.372427
0.370451
0.00325946
-0.00160514
-0.199212
0.197557
0.000518474
-0.0340334
0.0335149
-0.044224
0.0450674
-0.00084332
0.00505414
-0.00753958
-0.295786
0.298271
0.0101929
-0.0124314
-0.435692
0.43793
0.0146976
-0.016796
-0.541761
0.54386
0.0192984
-0.0218547
-0.650964
0.65352
0.0249144
-0.0278575
-0.778611
0.781554
0.0311412
-0.0340836
-0.930452
0.933394
0.0371447
-0.0396825
-1.10997
1.11251
0.0420445
-0.0436661
-1.32147
1.3231
0.0446509
-0.0446176
-1.57026
1.57023
0.0436112
-0.0416844
-1.55446
1.55253
0.0394227
-0.036606
-1.28509
1.28228
0.0338774
-0.0308383
-1.06482
1.06178
0.0281031
-0.0252161
-0.883655
0.880768
0.0227124
-0.0201247
-0.734326
0.731738
0.0178796
-0.0155119
-0.610286
0.607919
0.0133743
-0.0109929
-0.499575
0.497193
0.00875967
-0.00628559
-0.36855
0.366076
0.00411378
-0.00201213
-0.195866
0.193765
0.000646224
-0.0330222
0.032376
-0.0460494
0.0472213
-0.00117197
0.00687498
-0.0101979
-0.301163
0.304486
0.0136798
-0.0165669
-0.440796
0.443683
0.0194604
-0.0221635
-0.546866
0.549569
0.0254096
-0.0287213
-0.656491
0.659803
0.032652
-0.0363725
-0.78448
0.7882
0.0404545
-0.0440643
-0.936296
0.939906
0.0477784
-0.0508149
-1.11504
1.11807
0.053578
-0.0553938
-1.32464
1.32646
0.0563649
-0.056081
-1.56998
1.56969
0.0546182
-0.052054
-1.55026
1.54769
0.0491391
-0.0455683
-1.27907
1.2755
0.0421378
-0.0383334
-1.05831
1.0545
0.0349172
-0.0313172
-0.877354
0.873754
0.0282028
-0.0249996
-0.728564
0.725361
0.0222359
-0.0193353
-0.605159
0.602259
0.016711
-0.0137661
-0.494829
0.491884
0.010975
-0.00786732
-0.363702
0.360594
0.00514518
-0.00252193
-0.191677
0.189054
0.000808219
-0.0317738
0.0309656
-0.0485204
0.0501985
-0.00167814
0.00963535
-0.0141515
-0.308235
0.312752
0.0187373
-0.0224684
-0.447454
0.451185
0.0261874
-0.0297081
-0.553498
0.557018
0.0339597
-0.0382508
-0.663601
0.667892
0.0432456
-0.047882
-0.791949
0.796586
0.0528908
-0.0572615
-0.94353
0.947901
0.0616841
-0.0652122
-1.12108
1.1246
0.0683055
-0.0702064
-1.32812
1.33002
0.0710044
-0.0702981
-1.56908
1.56837
0.0682009
-0.0648192
-1.54467
1.54129
0.0610982
-0.0566136
-1.27145
1.26697
0.0523418
-0.0476239
-1.05019
1.04547
0.0433925
-0.0389317
-0.869544
0.865083
0.0350717
-0.0311079
-0.721435
0.717472
0.0277001
-0.0241417
-0.598799
0.595241
0.020926
-0.0173086
-0.488889
0.485272
0.0138434
-0.00990532
-0.357644
0.353706
0.00645776
-0.00315153
-0.186464
0.183158
0.00100315
-0.0302309
0.0292278
-0.0519741
0.0544671
-0.00249299
0.0139028
-0.0200828
-0.317723
0.323903
0.0260835
-0.0308961
-0.456246
0.461059
0.0357177
-0.0403544
-0.562173
0.56681
0.0459568
-0.0515041
-0.672738
0.678285
0.0578178
-0.0635519
-0.801306
0.80704
0.0696201
-0.0747928
-0.952294
0.957466
0.0798764
-0.0837837
-1.12804
1.13194
0.0870242
-0.0888037
-1.33166
1.33344
0.0891694
-0.0877827
-1.5672
1.56581
0.0848049
-0.0803743
-1.53731
1.53288
0.075665
-0.0700904
-1.2619
1.25633
0.0648321
-0.0590522
-1.04016
1.03438
0.0538768
-0.0484161
-0.859916
0.854455
0.0436849
-0.0388207
-0.712638
0.707774
0.0346405
-0.0302855
-0.590922
0.586567
0.0263461
-0.021887
-0.481472
0.477013
0.017569
-0.0126105
-0.349995
0.345037
0.00819062
-0.00395556
-0.179972
0.175737
0.00124408
-0.0283312
0.0270871
-0.0569956
0.0609754
-0.00397978
0.0210962
-0.0297462
-0.330773
0.339423
0.0377099
-0.043957
-0.468014
0.474261
0.0502742
-0.056428
-0.573566
0.57972
0.0637618
-0.0707983
-0.684408
0.691444
0.0785397
-0.0853507
-0.812815
0.819626
0.0923399
-0.0981
-0.962548
0.968308
0.103541
-0.107511
-1.13559
1.13956
0.110527
-0.111831
-1.33478
1.33608
0.111376
-0.108964
-1.56377
1.56136
0.104804
-0.099062
-1.52772
1.52197
0.093173
-0.0863364
-1.25007
1.24323
0.0799585
-0.0729871
-1.02791
1.02094
0.0667591
-0.0601841
-0.848185
0.84161
0.0544746
-0.0485867
-0.701871
0.695983
0.0435227
-0.0382528
-0.581193
0.575923
0.0334639
-0.027955
-0.472193
0.466684
0.0225328
-0.0162047
-0.340345
0.334017
0.010508
-0.00504063
-0.171775
0.166308
0.00156309
-0.0259847
0.0244216
-0.0647347
0.0719937
-0.00725895
0.034895
-0.0475657
-0.349586
0.362256
0.0582692
-0.0660701
-0.484014
0.491815
0.0740927
-0.0820217
-0.588399
0.596328
0.0911895
-0.099551
-0.698894
0.707256
0.108352
-0.115787
-0.826289
0.833724
0.123122
-0.128896
-0.973728
0.979502
0.134047
-0.137469
-1.14298
1.1464
0.139621
-0.139879
-1.33663
1.33689
0.138055
-0.134165
-1.55803
1.55414
0.128465
-0.121145
-1.51534
1.50802
0.113894
-0.105663
-1.23563
1.2274
0.0980753
-0.0898466
-1.01323
1.005
0.0825185
-0.0747876
-0.83416
0.826429
0.0680588
-0.0610948
-0.688911
0.681947
0.0550858
-0.0488243
-0.569297
0.563035
0.0431164
-0.03643
-0.460542
0.453856
0.0295804
-0.0213958
-0.327929
0.319745
0.0138406
-0.00649979
-0.161301
0.15396
0.00191732
-0.023077
0.0211597
-0.0789861
0.0822744
-0.00328835
0.0239238
-0.034652
-0.377878
0.388606
0.0443698
-0.0522196
-0.505022
0.512872
0.0612436
-0.0709116
-0.606386
0.616054
0.0816221
-0.0911993
-0.715303
0.72488
0.101866
-0.111299
-0.840447
0.84988
0.121099
-0.129497
-0.984397
0.992795
0.137832
-0.144483
-1.1488
1.15545
0.150371
-0.154184
-1.33601
1.33982
0.156149
-0.155401
-1.54904
1.54829
0.151806
-0.145759
-1.49962
1.49358
0.138671
-0.129678
-1.21832
1.20933
0.12088
-0.110326
-0.996027
0.985473
0.100641
-0.0899909
-0.817836
0.807186
0.0804675
-0.0703623
-0.673774
0.663669
0.0612242
-0.0518168
-0.555133
0.545726
0.0435254
-0.0337626
-0.445985
0.436222
0.0244911
-0.0150586
-0.311567
0.302135
0.00793595
-0.00274918
-0.14734
0.142153
0.00039649
-0.0194842
0.0190877
-0.0896549
0.0862033
0.00345164
0.000702319
-0.00700215
-0.402097
0.408397
0.0149089
-0.0216037
-0.525382
0.532076
0.0301675
-0.0385732
-0.626047
0.634452
0.0482158
-0.0570273
-0.734415
0.743226
0.0664342
-0.074969
-0.858855
0.86739
0.0838538
-0.0911991
-1.00093
1.00827
0.0987196
-0.104422
-1.16201
1.16771
0.109452
-0.112448
-1.34348
1.34648
0.113397
-0.111935
-1.54686
1.5454
0.107791
-0.101374
-1.48684
1.48042
0.0939367
-0.0847929
-1.19995
1.1908
0.0759973
-0.0659513
-0.974731
0.964685
0.0565499
-0.0461294
-0.795803
0.785382
0.0368119
-0.0272576
-0.651711
0.642157
0.0190989
-0.0107425
-0.533664
0.525307
0.00364758
0.00293135
-0.424378
0.417799
-0.00712141
0.00878598
-0.291334
0.28967
-0.00788773
0.00500587
-0.135467
0.138349
-0.00206156
-0.0176353
0.0196969
-0.0886991
0.0850991
0.00359993
-0.00698908
0.00426978
-0.417851
0.42057
0.00057696
-0.00613258
-0.542172
0.547728
0.0132712
-0.0204876
-0.643259
0.650476
0.0286963
-0.0362421
-0.751555
0.7591
0.0445153
-0.0518808
-0.875282
0.882648
0.0593474
-0.0658958
-1.01547
1.02202
0.0724495
-0.0775583
-1.17307
1.17818
0.0817208
-0.084059
-1.34898
1.35132
0.0847869
-0.0831656
-1.54351
1.54189
0.0791204
-0.0731137
-1.47375
1.46775
0.0663603
-0.0583773
-1.18195
1.17396
0.0504741
-0.0418055
-0.954769
0.9461
0.0338131
-0.0251002
-0.775539
0.766826
0.0176206
-0.00997578
-0.63214
0.624495
0.00368876
0.00263735
-0.515205
0.508878
-0.0074347
0.0113641
-0.409126
0.405197
-0.0130536
0.0118955
-0.283961
0.285119
-0.00885255
0.00502149
-0.13784
0.141671
-0.00186534
-0.0199985
0.0218639
-0.0861295
0.0827342
0.00339537
-0.00944542
0.00870244
-0.427603
0.428346
-0.00558548
0.00128896
-0.555512
0.559808
0.00481664
-0.0108192
-0.657525
0.663527
0.0177994
-0.0242345
-0.766389
0.772824
0.0312558
-0.0375468
-0.889601
0.895892
0.0443252
-0.0499248
-1.02821
1.03381
0.0557535
-0.0599192
-1.18299
1.18716
0.0636604
-0.0657975
-1.3536
1.35574
0.0663844
-0.0647298
-1.54014
1.53848
0.0613103
-0.0562415
-1.46166
1.45659
0.0505231
-0.0435286
-1.1663
1.15931
0.0370086
-0.0299807
-0.937791
0.930763
0.0234516
-0.0167099
-0.758787
0.752045
0.0106455
-0.00471033
-0.616587
0.610652
-9.09215e-05
0.00446023
-0.501408
0.497038
-0.00746433
0.00965293
-0.398806
0.396618
-0.0102734
0.00849492
-0.281105
0.282883
-0.0060847
0.00331729
-0.141592
0.144359
-0.00123562
-0.0219824
0.023218
-0.0836471
0.080848
0.00279913
-0.00952038
0.0100034
-0.433828
0.433345
-0.00756815
0.00419154
-0.566461
0.569838
0.000733976
-0.00610209
-0.669546
0.674914
0.0119574
-0.0176068
-0.778879
0.784528
0.0236812
-0.0291564
-0.901866
0.907342
0.0350098
-0.0400561
-1.03936
1.04441
0.0450984
-0.0490765
-1.1913
1.19528
0.0524853
-0.0544815
-1.35769
1.35969
0.0551361
-0.0537835
-1.53692
1.53557
0.0508998
-0.04643
-1.45125
1.44678
0.0415812
-0.0358221
-1.15273
1.14697
0.0304021
-0.0244791
-0.923958
0.918035
0.0192189
-0.0137275
-0.745551
0.740059
0.00901538
-0.00434419
-0.6047
0.600029
0.000692347
0.00254189
-0.491405
0.488171
-0.00483637
0.00629471
-0.391926
0.390468
-0.00650081
0.0054109
-0.279576
0.280666
-0.00391284
0.00207605
-0.143331
0.145168
-0.000858194
-0.0228824
0.0237406
-0.0816732
0.0793593
0.0023139
-0.008669
0.0093504
-0.437812
0.437131
-0.00796945
0.00508416
-0.575004
0.577889
-0.000490757
-0.00407997
-0.679811
0.684382
0.00913574
-0.0140658
-0.789666
0.794596
0.0194941
-0.0244312
-0.912588
0.917525
0.0298571
-0.0343648
-1.04928
1.05379
0.0390188
-0.0427322
-1.1991
1.20281
0.0459156
-0.0478305
-1.36157
1.36348
0.0485486
-0.0478126
-1.53431
1.53357
0.0453585
-0.0416768
-1.44218
1.43849
0.0374894
-0.0325113
-1.14136
1.13638
0.0280561
-0.0228697
-0.912334
0.907147
0.0183418
-0.0137799
-0.734796
0.730234
0.00981153
-0.00586968
-0.595411
0.591469
0.00274051
0.000195142
-0.483781
0.480845
-0.0019643
0.00320329
-0.386562
0.385323
-0.00380353
0.00334057
-0.277436
0.277899
-0.00245804
0.00138426
-0.143339
0.144413
-0.000611791
-0.0231113
0.0237231
-0.0802609
0.0784848
0.00177608
-0.00726908
0.00814158
-0.440648
0.439775
-0.00694796
0.0046165
-0.582539
0.58487
-0.000471813
-0.00365501
-0.688747
0.692874
0.00846925
-0.0127456
-0.79935
0.803627
0.0175505
-0.021972
-0.922523
0.926944
0.027177
-0.0313517
-1.05841
1.06259
0.0356056
-0.0392465
-1.20646
1.2101
0.0427263
-0.0446726
-1.36556
1.36751
0.0456798
-0.0451529
-1.53262
1.53209
0.0433692
-0.0399354
-1.43475
1.43132
0.036371
-0.0320561
-1.1314
1.12709
0.0279461
-0.0234513
-0.902146
0.897652
0.0193324
-0.0150426
-0.725549
0.721259
0.0116691
-0.00800394
-0.587356
0.583691
0.00501666
-0.00242452
-0.477059
0.474467
0.000545881
0.000931877
-0.38185
0.380372
-0.00166766
0.00176955
-0.274855
0.274753
-0.00144073
0.000909653
-0.14222
0.142751
-0.000460679
-0.0229312
0.0233918
-0.0794827
0.0780927
0.00138995
-0.00586251
0.0067961
-0.44286
0.441926
-0.00561446
0.00329739
-0.589058
0.591375
0.000462688
-0.00415102
-0.696793
0.700481
0.00829743
-0.01243
-0.80801
0.812142
0.0168927
-0.0214655
-0.931256
0.935828
0.0260095
-0.0300564
-1.06692
1.07096
0.0345082
-0.0380088
-1.21373
1.21723
0.0411497
-0.0436114
-1.36949
1.37195
0.0449327
-0.0448151
-1.53174
1.53162
0.0433046
-0.0405059
-1.42811
1.42531
0.0372877
-0.0332876
-1.12249
1.11849
0.0295098
-0.0252594
-0.893052
0.888801
0.0213795
-0.0174537
-0.717011
0.713086
0.0139427
-0.0104724
-0.579809
0.576338
0.00764854
-0.00485868
-0.471007
0.468217
0.00277795
-0.00128397
-0.376979
0.375485
0.000207348
0.000415482
-0.271594
0.270971
-0.000614808
0.000525657
-0.140372
0.140461
-0.000344716
-0.0225234
0.0228681
-0.0792882
0.0781127
0.00117553
-0.00442196
0.00509482
-0.444919
0.444246
-0.00409529
0.00175333
-0.594991
0.597333
0.00168654
-0.00521357
-0.704261
0.707788
0.00918638
-0.0129446
-0.816208
0.819966
0.0175303
-0.0213635
-0.939914
0.943747
0.0258968
-0.0297994
-1.07521
1.07911
0.0341846
-0.0379275
-1.22077
1.22451
0.0414308
-0.0437857
-1.37429
1.37665
0.045549
-0.0459
-1.53156
1.53191
0.0450331
-0.0424887
-1.42242
1.41988
0.0395895
-0.0358128
-1.11453
1.11075
0.0322158
-0.0280229
-0.884286
0.880093
0.024307
-0.0203002
-0.708862
0.704855
0.0168068
-0.0132446
-0.572563
0.569001
0.0102297
-0.00751101
-0.464765
0.462046
0.00519979
-0.0033961
-0.371916
0.370113
0.00198256
-0.000949369
-0.267741
0.266707
0.000280472
0.000195699
-0.13788
0.137404
-0.00024481
-0.0218833
0.0221281
-0.079355
0.078512
0.000842984
-0.00318676
0.00335274
-0.447155
0.446989
-0.00249647
0.000217128
-0.600247
0.602526
0.00290551
-0.00629043
-0.711196
0.714581
0.0100831
-0.0139551
-0.823698
0.82757
0.0179532
-0.0219387
-0.947828
0.951813
0.0264426
-0.0301635
-1.08346
1.08718
0.0346692
-0.0384124
-1.22812
1.23186
0.0420389
-0.0449802
-1.37947
1.38241
0.0473087
-0.0480027
-1.53241
1.5331
0.0473856
-0.0454602
-1.41753
1.41561
0.0429508
-0.0393193
-1.10678
1.10314
0.0357363
-0.0317663
-0.875727
0.871757
0.0277007
-0.0237648
-0.700506
0.69657
0.0201842
-0.0164225
-0.565295
0.561533
0.0133915
-0.0103289
-0.458334
0.455271
0.00785359
-0.00552906
-0.366662
0.364338
0.00387402
-0.00240518
-0.263321
0.261852
0.0011352
-0.000176236
-0.13477
0.133811
-0.000155542
-0.0210217
0.0211772
-0.0798142
0.0791315
0.000682707
-0.00218348
0.00231663
-0.449636
0.449503
-0.000951729
-0.00113857
-0.605437
0.607528
0.00430198
-0.00750765
-0.717617
0.720822
0.0111272
-0.0146092
-0.831209
0.834691
0.0187201
-0.0224034
-0.955848
0.959532
0.0268587
-0.0310026
-1.09138
1.09552
0.0351804
-0.0392675
-1.23569
1.23977
0.0433442
-0.046432
-1.38531
1.3884
0.0491956
-0.0507115
-1.53411
1.53562
0.0505678
-0.0492311
-1.41362
1.41228
0.0468354
-0.0434704
-1.09948
1.09611
0.0400811
-0.0360125
-0.867271
0.863203
0.0320347
-0.0278897
-0.692044
0.6879
0.024145
-0.0201206
-0.557439
0.553415
0.0167669
-0.013504
-0.451544
0.448282
0.0105887
-0.00790901
-0.360736
0.358057
0.00579521
-0.00382482
-0.258158
0.256188
0.00213118
-0.000661855
-0.131021
0.129552
-2.01803e-06
-0.0199908
0.0199928
-0.0805241
0.0799959
0.000528181
-0.00116726
0.00106923
-0.452289
0.452387
5.63031e-05
-0.00243675
-0.610162
0.612542
0.00546455
-0.00848557
-0.723743
0.726764
0.012158
-0.0154819
-0.838208
0.841532
0.0194339
-0.0232243
-0.96371
0.9675
0.0275786
-0.0316848
-1.09956
1.10367
0.0360789
-0.0402074
-1.24382
1.24795
0.0445006
-0.0483614
-1.39182
1.39568
0.0516266
-0.0535098
-1.53718
1.53907
0.0541127
-0.053127
-1.41089
1.40991
0.0512285
-0.0482537
-1.09266