/*--------------------------------*- C++ -*----------------------------------*\
| =========                 |                                                 |
| \\      /  F ield         | OpenFOAM: The Open Source CFD Toolbox           |
|  \\    /   O peration     | Version:  2306                                  |
|   \\  /    A nd           | Website:  www.openfoam.com                      |
|    \\/     M anipulation  |                                                 |
\*---------------------------------------------------------------------------*/
FoamFile
{
    version     2.0;
    format      ascii;
    arch        "LSB;label=32;scalar=64";
    class       volScalarField;
    location    "26";
    object      p;
}
// * * * * * * * * * * * * * * * * * * * * * * * * * * * * * * * * * * * * * //

dimensions      [0 2 -2 0 0 0 0];

internalField   nonuniform List<scalar> 
8800
(
0.462663
0.414611
0.376231
0.347584
0.326948
0.312174
0.301539
0.293992
0.289088
0.286925
0.288074
0.292164
0.298737
0.307999
0.3207
0.338252
0.36267
0.396262
0.438691
0.495813
0.295201
0.302406
0.31084
0.314251
0.312328
0.306791
0.300059
0.293865
0.289051
0.286104
0.285704
0.288088
0.292491
0.2984
0.305241
0.31181
0.315908
0.315375
0.309289
0.300296
0.271923
0.278101
0.282299
0.285656
0.288147
0.288929
0.287792
0.2856
0.283489
0.282462
0.283289
0.285552
0.288274
0.290402
0.290864
0.289279
0.286388
0.282717
0.278168
0.274378
0.266816
0.269518
0.272242
0.274554
0.276196
0.277508
0.278388
0.278543
0.278194
0.278023
0.278621
0.279632
0.280289
0.280117
0.279232
0.277965
0.276158
0.273612
0.27116
0.269628
0.261663
0.263087
0.264896
0.26696
0.268716
0.270012
0.271007
0.27182
0.272403
0.272859
0.273318
0.27359
0.273465
0.272982
0.272173
0.270873
0.269094
0.267149
0.265792
0.264971
0.256711
0.257626
0.258884
0.260493
0.262167
0.263699
0.264951
0.265972
0.266866
0.267622
0.268086
0.268166
0.267906
0.267297
0.266268
0.264912
0.263441
0.262079
0.261215
0.260676
0.251937
0.252601
0.25359
0.254935
0.256392
0.257895
0.259349
0.260633
0.261729
0.262651
0.263212
0.263304
0.26296
0.262202
0.261159
0.260004
0.258823
0.257774
0.257139
0.256748
0.247318
0.247824
0.248651
0.249853
0.2512
0.252632
0.254123
0.255596
0.256935
0.258053
0.258748
0.258867
0.258477
0.257746
0.256838
0.255848
0.254846
0.253991
0.253499
0.253204
0.242836
0.24323
0.243939
0.245047
0.246345
0.247732
0.249198
0.25072
0.252223
0.253572
0.254436
0.254661
0.254407
0.253849
0.253111
0.252261
0.251392
0.250688
0.250303
0.250074
0.238449
0.238754
0.23938
0.240428
0.241695
0.243066
0.244539
0.246113
0.247756
0.24934
0.250433
0.250865
0.250822
0.250466
0.249894
0.24919
0.248443
0.247854
0.247553
0.247378
0.234136
0.234372
0.234938
0.23596
0.237228
0.238651
0.240233
0.241929
0.243705
0.245494
0.246923
0.247703
0.247917
0.247713
0.247261
0.24668
0.246038
0.245546
0.245314
0.24518
0.229869
0.23004
0.230561
0.231582
0.232876
0.234327
0.23596
0.237822
0.239899
0.242064
0.243858
0.244912
0.245368
0.245423
0.245197
0.244758
0.244221
0.243815
0.243647
0.243552
0.225704
0.225814
0.226275
0.227245
0.228515
0.229983
0.231673
0.233629
0.235888
0.238428
0.240717
0.242294
0.243211
0.243627
0.243676
0.243468
0.243121
0.242849
0.242752
0.24269
0.221587
0.221653
0.222058
0.222967
0.224227
0.225756
0.227601
0.229848
0.232525
0.235598
0.238479
0.240555
0.241847
0.242581
0.242936
0.243
0.242885
0.242774
0.24274
0.242696
0.217216
0.217272
0.217611
0.21843
0.219638
0.221189
0.223152
0.225631
0.228729
0.232443
0.236071
0.23883
0.240748
0.241992
0.242762
0.243196
0.243393
0.243481
0.243507
0.243465
0.212187
0.212234
0.212562
0.213358
0.214613
0.216302
0.21853
0.221438
0.22514
0.229677
0.234221
0.23779
0.240323
0.242086
0.24331
0.244095
0.244574
0.244825
0.244892
0.244845
0.206234
0.206282
0.206644
0.207483
0.208872
0.210799
0.213398
0.216857
0.221356
0.226952
0.232618
0.237139
0.240439
0.242802
0.244472
0.24563
0.246386
0.246775
0.246873
0.246819
0.199057
0.199106
0.199541
0.200523
0.202137
0.204429
0.207562
0.211786
0.21731
0.224223
0.231284
0.236961
0.241147
0.244175
0.24636
0.247906
0.248925
0.249428
0.249552
0.24949
0.190357
0.190407
0.190941
0.192159
0.194156
0.19699
0.200884
0.206149
0.213028
0.221612
0.230363
0.237389
0.242586
0.246391
0.24913
0.251084
0.25235
0.252961
0.253121
0.253053
0.179821
0.179871
0.180533
0.182079
0.184612
0.188196
0.193123
0.199735
0.208334
0.219001
0.229814
0.238485
0.244905
0.249555
0.252997
0.255417
0.256941
0.257669
0.257869
0.257791
0.167009
0.167055
0.167883
0.169865
0.173151
0.177766
0.184059
0.192449
0.203244
0.216487
0.229787
0.240411
0.248261
0.253991
0.258182
0.261087
0.262929
0.263817
0.264065
0.263973
0.151314
0.151368
0.152433
0.154992
0.159258
0.165271
0.1734
0.184116
0.197697
0.214101
0.230371
0.243283
0.252826
0.259806
0.26486
0.268388
0.270604
0.271695
0.271992
0.27188
0.13162
0.131698
0.13313
0.136547
0.142199
0.150152
0.160792
0.17458
0.191704
0.211961
0.231725
0.247283
0.258766
0.267172
0.27326
0.277509
0.280189
0.281507
0.281852
0.281713
0.106184
0.106321
0.108384
0.113206
0.120984
0.131746
0.145916
0.163796
0.185378
0.210244
0.234031
0.25257
0.266227
0.276246
0.283526
0.288642
0.291891
0.293467
0.293854
0.293679
0.0719837
0.0722842
0.0756478
0.0830675
0.0944304
0.109532
0.128689
0.151931
0.178982
0.209212
0.237498
0.259298
0.275324
0.287125
0.295773
0.301918
0.305835
0.307692
0.308107
0.307885
0.023199
0.0244435
0.0312736
0.0440795
0.061684
0.0834497
0.109458
0.139452
0.172955
0.209183
0.242306
0.267543
0.286059
0.299772
0.309949
0.317308
0.322023
0.324199
0.324622
0.324336
-0.0491334
-0.0411677
-0.0254735
-0.00286924
0.0241362
0.0548218
0.0891988
0.126984
0.167677
0.210501
0.248945
0.278032
0.299431
0.315454
0.327599
0.336615
0.342541
0.345371
0.34599
0.345796
-0.126446
-0.108717
-0.0833848
-0.050423
-0.0137117
0.02606
0.0689348
0.114747
0.163097
0.21333
0.258205
0.292272
0.317571
0.336775
0.351642
0.36308
0.370697
0.374463
0.375587
0.375586
-0.190407
-0.169682
-0.136404
-0.0949102
-0.0496021
-0.00132883
0.0497337
0.103359
0.159136
0.216438
0.267311
0.305872
0.334592
0.356538
0.373569
0.386587
0.395686
0.400285
0.401172
0.401285
-0.242443
-0.219665
-0.18135
-0.133798
-0.0817766
-0.0264327
0.0317935
0.0925084
0.155179
0.219066
0.275394
0.317874
0.349399
0.373389
0.391985
0.406197
0.416361
0.421316
0.422382
0.422601
-0.285437
-0.261605
-0.219731
-0.167439
-0.110085
-0.0489689
0.0153229
0.0822552
0.151107
0.220971
0.282185
0.328012
0.361785
0.387347
0.407069
0.422151
0.432752
0.438197
0.439622
0.439869
-0.322171
-0.297714
-0.253165
-0.19716
-0.135337
-0.0693447
0.000166846
0.0725476
0.146926
0.222177
0.287764
0.336497
0.372109
0.398843
0.419302
0.434883
0.445669
0.451429
0.45309
0.453337
-0.354569
-0.32972
-0.283088
-0.223968
-0.158418
-0.0882095
-0.0140924
0.0631588
0.142546
0.222741
0.292351
0.343702
0.380885
0.408515
0.42942
0.445184
0.456075
0.461922
0.46367
0.463865
-0.384069
-0.358866
-0.310542
-0.248755
-0.17999
-0.106088
-0.0278719
0.0537988
0.137811
0.222661
0.296096
0.349938
0.388585
0.416982
0.438236
0.454078
0.464977
0.470871
0.472719
0.47289
-0.411541
-0.386021
-0.336209
-0.272164
-0.200573
-0.123393
-0.0414942
0.0442149
0.132552
0.221849
0.299051
0.355378
0.395482
0.424678
0.44632
0.462313
0.473216
0.47904
0.480958
0.481145
-0.437684
-0.411799
-0.360583
-0.294622
-0.220489
-0.140396
-0.0551843
0.0342292
0.126617
0.220212
0.301178
0.360096
0.401811
0.431946
0.454062
0.470246
0.481188
0.486917
0.488801
0.489003
-0.462799
-0.436515
-0.384212
-0.316382
-0.239985
-0.15729
-0.0690856
0.0237239
0.11991
0.21768
0.302493
0.36423
0.407771
0.438998
0.461729
0.478211
0.48924
0.49491
0.49667
0.496808
-0.487227
-0.460424
-0.407164
-0.337627
-0.259228
-0.174198
-0.0832835
0.0126342
0.112378
0.214221
0.30301
0.367779
0.413379
0.44592
0.469434
0.48633
0.497483
0.503097
0.504703
0.504756
-0.511035
-0.483813
-0.429539
-0.358479
-0.27829
-0.191167
-0.0978154
0.000939913
0.104005
0.209792
0.302607
0.370662
0.418635
0.452739
0.477208
0.494617
0.505917
0.51144
0.51291
0.512847
-0.534316
-0.506586
-0.451422
-0.378984
-0.297193
-0.208205
-0.112676
-0.011359
0.094765
0.204299
0.301173
0.372797
0.423485
0.459442
0.48505
0.503055
0.514486
0.519859
0.521153
0.520992
-0.55714
-0.528853
-0.472802
-0.399141
-0.315932
-0.225286
-0.127827
-0.0242311
0.0846587
0.19771
0.298636
0.374046
0.427817
0.465988
0.492957
0.511621
0.523141
0.528257
0.529332
0.529092
-0.57951
-0.550613
-0.493701
-0.418923
-0.334452
-0.24236
-0.143213
-0.0376198
0.0737354
0.190029
0.294893
0.374241
0.431475
0.472312
0.500955
0.520321
0.531781
0.536515
0.537328
0.537019
-0.601263
-0.571797
-0.51407
-0.438294
-0.352705
-0.259352
-0.158756
-0.0514311
0.0620788
0.181282
0.289862
0.373213
0.434238
0.478293
0.509109
0.529287
0.540403
0.544473
0.544953
0.544589
-0.622352
-0.592353
-0.53387
-0.457192
-0.370629
-0.276193
-0.174356
-0.065573
0.0497767
0.171505
0.283504
0.370793
0.43584
0.483698
0.517477
0.538882
0.549279
0.55207
0.552017
0.55164
-0.642844
-0.612234
-0.553065
-0.475576
-0.388156
-0.292795
-0.189918
-0.0799363
0.0369307
0.16079
0.275798
0.366847
0.43597
0.488109
0.525917
0.549678
0.559397
0.559812
0.558428
0.558131
-0.662564
-0.631429
-0.571595
-0.493376
-0.405221
-0.309075
-0.205348
-0.0944067
0.0236711
0.149258
0.266775
0.361267
0.434327
0.490896
0.533797
0.561918
0.572688
0.570364
0.565594
0.564188
-0.681595
-0.649934
-0.589477
-0.510621
-0.421858
-0.325078
-0.220701
-0.109044
0.00992846
0.136838
0.256308
0.3538
0.430603
0.491248
0.53979
0.574609
0.590309
0.589589
0.578684
0.565252
-0.699871
-0.667742
-0.606843
-0.527498
-0.438358
-0.341138
-0.236392
-0.124337
-0.00485518
0.122857
0.243694
0.343558
0.424088
0.487918
0.541041
0.583309
0.604807
0.599469
0.584418
0.569746
-0.71723
-0.684881
-0.623525
-0.543779
-0.454456
-0.356929
-0.252198
-0.139952
-0.0203484
0.107629
0.229137
0.330242
0.414359
0.480136
0.532446
0.575729
0.598992
0.582504
0.512774
0.478929
-0.733232
-0.702525
-0.639132
-0.558884
-0.469445
-0.371954
-0.267835
-0.155644
-0.0363015
0.0913238
0.212695
0.313694
0.400555
0.46837
0.5105
0.543645
0.550221
0.501959
0.428783
0.383933
-0.782655
-0.718734
-0.653393
-0.57384
-0.484485
-0.387416
-0.283282
-0.171618
-0.0529982
0.0735841
0.193924
0.293687
0.379686
0.454311
0.462797
0.474343
0.443151
0.380011
0.301556
0.257716
-0.749244
-0.732663
-0.674234
-0.59554
-0.506624
-0.409975
-0.306832
-0.196202
-0.079135
0.045091
0.162216
0.258664
0.335536
0.409765
0.410688
0.303541
0.199536
0.127585
0.0533402
0.0922085
-0.779943
-0.750294
-0.690783
-0.612379
-0.523671
-0.427422
-0.324263
-0.214482
-0.0987754
0.0231935
0.136897
0.229111
0.29803
0.337266
0.292751
0.145562
0.0151303
-0.0771698
-0.177907
-0.119507
-0.80313
-0.770997
-0.709926
-0.631237
-0.542605
-0.44653
-0.343631
-0.234876
-0.120842
-0.00167143
0.10783
0.194262
0.25313
0.260449
0.154087
-0.0262577
-0.185522
-0.309021
-0.443313
-0.398127
-0.825643
-0.792163
-0.729917
-0.650501
-0.561751
-0.465853
-0.363572
-0.25597
-0.143797
-0.0277602
0.0767992
0.156676
0.20091
0.173435
0.0097285
-0.198775
-0.399649
-0.58279
-0.781473
-0.773556
-0.847429
-0.81369
-0.750621
-0.670566
-0.581652
-0.485989
-0.384438
-0.278093
-0.168009
-0.0554276
0.0436417
0.116288
0.142838
0.079363
-0.12871
-0.357596
-0.590004
-0.793628
-1.07124
-1.36163
-0.869399
-0.835774
-0.772283
-0.691795
-0.602713
-0.507238
-0.406344
-0.301268
-0.193352
-0.084389
0.00898705
0.0735185
0.0820252
-0.033324
-0.250403
-0.484081
-0.714737
-0.901008
-0.98941
-1.139
-0.89236
-0.858838
-0.79518
-0.7145
-0.625377
-0.530175
-0.430026
-0.326377
-0.220929
-0.116039
-0.0288441
0.0260486
0.00913026
-0.148683
-0.359286
-0.57749
-0.768718
-0.875829
-0.900691
-0.921211
-0.916609
-0.883187
-0.819442
-0.73873
-0.64973
-0.554952
-0.455764
-0.353824
-0.251254
-0.151057
-0.0704875
-0.0274213
-0.0687932
-0.255806
-0.458238
-0.650593
-0.798584
-0.84639
-0.861216
-0.863336
-0.942338
-0.908893
-0.845097
-0.764433
-0.675674
-0.581513
-0.483509
-0.383583
-0.284314
-0.18943
-0.115978
-0.0873524
-0.148556
-0.356592
-0.54999
-0.721916
-0.823676
-0.83834
-0.840624
-0.840683
-0.9695
-0.93598
-0.872128
-0.791548
-0.703158
-0.609776
-0.513179
-0.415573
-0.320007
-0.231002
-0.165493
-0.149673
-0.243994
-0.449335
-0.634723
-0.778798
-0.824186
-0.82997
-0.830341
-0.829626
-0.99778
-0.964096
-0.900397
-0.819928
-0.732025
-0.639596
-0.544633
-0.449645
-0.358182
-0.275532
-0.218669
-0.218308
-0.347323
-0.537048
-0.705397
-0.813427
-0.820926
-0.822623
-0.823513
-0.82305
-1.02658
-0.992927
-0.929518
-0.849298
-0.76201
-0.670711
-0.577587
-0.485511
-0.398481
-0.322687
-0.274129
-0.294572
-0.445973
-0.619989
-0.764287
-0.811655
-0.825138
-0.821714
-0.818405
-0.817608
-1.05554
-1.02208
-0.958918
-0.879211
-0.792684
-0.702686
-0.611606
-0.522689
-0.440358
-0.37176
-0.331421
-0.369191
-0.546928
-0.704598
-0.801045
-0.843154
-0.833191
-0.82489
-0.820858
-0.818551
-1.08361
-1.05079
-0.988038
-0.908995
-0.823419
-0.734913
-0.646063
-0.56044
-0.483061
-0.421548
-0.391074
-0.443125
-0.646321
-0.811961
-0.836707
-0.83335
-0.848212
-0.846926
-0.843976
-0.84251
-1.10968
-1.07747
-1.01605
-0.937809
-0.853381
-0.766566
-0.680095
-0.597764
-0.525485
-0.470924
-0.450685
-0.5164
-0.735281
-0.981926
-1.02454
-0.975651
-0.96254
-0.953794
-0.944458
-0.937742
-1.13232
-1.10128
-1.04151
-0.964558
-0.881578
-0.796544
-0.712557
-0.633466
-0.565889
-0.518645
-0.504228
-0.591013
-0.80644
-1.12737
-1.57884
-1.32522
-1.18161
-1.15553
-1.13425
-1.12245
-1.14986
-1.12066
-1.06297
-0.987909
-0.906699
-0.823655
-0.742031
-0.666099
-0.60217
-0.562182
-0.551311
-0.649852
-0.828536
-0.910253
-0.973506
-1.08939
-1.19819
-1.21922
-1.21821
-1.21909
-1.16071
-1.13401
-1.07915
-1.00636
-0.927291
-0.846405
-0.766995
-0.693672
-0.632596
-0.597234
-0.594893
-0.689327
-0.793186
-0.522519
-0.19225
-0.64346
-1.10371
-1.22386
-1.23627
-1.23838
-1.16288
-1.13968
-1.08851
-1.01859
-0.941926
-0.8633
-0.785843
-0.71395
-0.65504
-0.620477
-0.630154
-0.766901
-1.04626
-1.27873
-1.56129
-1.96983
-1.93772
-1.63718
-1.44629
-1.44591
-1.15542
-1.13617
-1.08961
-1.02344
-0.949473
-0.873004
-0.796975
-0.725329
-0.665363
-0.630346
-0.646459
-0.872015
-1.51984
-2.5796
-3.27578
-3.60314
-3.46849
-3.04375
-2.60306
-2.40063
-1.13668
-1.12141
-1.08145
-1.02021
-0.949327
-0.874761
-0.799222
-0.726371
-0.661329
-0.616934
-0.621612
-0.835165
-1.45951
-2.28115
-2.98798
-3.26804
-3.12529
-2.78296
-2.44123
-2.28
-1.10809
-1.09729
-1.0644
-1.00926
-0.941667
-0.868678
-0.792649
-0.71602
-0.643513
-0.577858
-0.548021
-0.556331
-0.735147
-0.846825
-0.830569
-0.628902
-0.32589
-0.0540211
0.131282
0.212711
-1.07291
-1.06626
-1.04116
-0.992499
-0.928189
-0.85616
-0.778685
-0.696929
-0.611949
-0.522342
-0.418397
-0.276539
-0.0257143
0.447648
1.02334
1.5855
2.00252
2.24441
2.35195
2.38064
-1.03556
-1.03182
-1.01523
-0.973216
-0.911847
-0.840161
-0.760609
-0.674156
-0.577351
-0.470284
-0.341936
-0.203529
0.0819429
0.677607
1.361
1.96265
2.38739
2.63015
2.73723
2.76767
-1.00085
-0.998566
-0.98918
-0.955226
-0.896844
-0.824214
-0.74305
-0.653345
-0.556154
-0.443268
-0.326807
-0.206134
-0.0501026
0.389163
0.924017
1.37086
1.69356
1.87821
1.962
1.98703
-0.969353
-0.968406
-0.965265
-0.940001
-0.883621
-0.809454
-0.727489
-0.639628
-0.545187
-0.439776
-0.338391
-0.241475
-0.148968
0.120057
0.506334
0.819306
1.04803
1.1873
1.25685
1.27839
-0.947351
-0.948513
-0.948263
-0.92511
-0.866367
-0.790477
-0.710093
-0.626987
-0.539129
-0.44475
-0.358189
-0.28819
-0.231604
-0.0715651
0.186685
0.406985
0.571016
0.66722
0.710744
0.722492
-0.902909
-0.906089
-0.906921
-0.885484
-0.828751
-0.757809
-0.68442
-0.610274
-0.532873
-0.450929
-0.377342
-0.324591
-0.281607
-0.183512
-0.0116248
0.131972
0.23517
0.295221
0.322269
0.328526
-0.807925
-0.810732
-0.810308
-0.793914
-0.754597
-0.702538
-0.646243
-0.587066
-0.523226
-0.453848
-0.391089
-0.348169
-0.314546
-0.24555
-0.129267
-0.0387212
0.0228967
0.0576686
0.0714557
0.0726916
-0.687333
-0.688394
-0.688209
-0.681198
-0.663129
-0.635908
-0.601076
-0.55973
-0.510828
-0.454305
-0.399547
-0.359431
-0.32628
-0.280726
-0.211489
-0.152713
-0.113004
-0.0911392
-0.0816392
-0.081581
-0.593743
-0.593844
-0.594281
-0.593762
-0.589425
-0.579041
-0.561125
-0.534519
-0.498687
-0.45329
-0.406257
-0.365461
-0.328242
-0.292024
-0.254272
-0.22141
-0.196411
-0.180561
-0.173835
-0.174465
-0.54032
-0.540326
-0.541204
-0.543184
-0.543934
-0.541003
-0.532148
-0.514955
-0.48851
-0.452151
-0.412942
-0.377096
-0.343461
-0.31802
-0.292753
-0.26785
-0.248265
-0.235823
-0.230555
-0.231852
-0.517425
-0.517414
-0.51811
-0.520059
-0.521596
-0.520751
-0.515629
-0.503459
-0.482754
-0.452779
-0.42064
-0.39401
-0.374395
-0.36054
-0.34159
-0.315953
-0.294011
-0.280015
-0.274294
-0.275924
-0.514751
-0.514475
-0.514513
-0.515496
-0.516293
-0.515326
-0.510889
-0.500495
-0.481989
-0.454753
-0.427968
-0.412931
-0.416159
-0.415042
-0.386774
-0.357396
-0.334865
-0.321811
-0.316672
-0.317789
-0.528643
-0.528047
-0.527416
-0.527252
-0.526702
-0.524394
-0.518964
-0.50837
-0.489037
-0.459924
-0.432051
-0.419879
-0.434012
-0.434548
-0.405556
-0.375677
-0.355902
-0.345976
-0.342439
-0.3437
-0.558425
-0.557381
-0.556306
-0.555328
-0.553604
-0.550054
-0.543681
-0.532303
-0.511116
-0.476642
-0.43858
-0.411152
-0.413984
-0.415432
-0.39659
-0.375729
-0.360597
-0.352113
-0.350363
-0.350982
-0.602668
-0.601738
-0.600588
-0.599332
-0.597466
-0.594404
-0.589505
-0.580461
-0.56159
-0.524547
-0.470453
-0.415455
-0.398479
-0.39895
-0.383386
-0.360457
-0.340609
-0.329545
-0.326231
-0.327432
-0.660373
-0.659547
-0.658764
-0.658197
-0.658072
-0.65892
-0.661048
-0.663386
-0.660711
-0.636252
-0.564888
-0.474802
-0.432332
-0.42337
-0.394846
-0.354869
-0.318677
-0.29768
-0.296648
-0.298627
-0.726881
-0.726542
-0.726902
-0.72851
-0.732913
-0.742527
-0.760689
-0.790748
-0.83098
-0.848228
-0.757775
-0.618113
-0.540604
-0.506737
-0.448802
-0.375974
-0.317999
-0.291392
-0.292887
-0.293762
-0.793233
-0.793846
-0.796177
-0.801596
-0.813565
-0.837515
-0.882171
-0.960967
-1.07879
-1.17023
-1.06281
-0.849803
-0.72083
-0.647975
-0.540822
-0.42602
-0.337412
-0.306651
-0.313299
-0.317567
-0.84485
-0.846729
-0.851526
-0.861765
-0.883119
-0.924633
-1.00279
-1.14488
-1.36677
-1.55799
-1.43704
-1.13845
-0.94582
-0.829818
-0.689119
-0.552309
-0.467877
-0.446605
-0.44961
-0.455384
-0.864059
-0.867223
-0.874224
-0.88878
-0.918388
-0.97501
-1.08305
-1.28062
-1.58833
-1.86343
-1.7475
-1.40363
-1.17411
-1.033
-0.891494
-0.781942
-0.722236
-0.709247
-0.706209
-0.708917
-0.83661
-0.840194
-0.848105
-0.86474
-0.898339
-0.962396
-1.08425
-1.30624
-1.64971
-1.95366
-1.86409
-1.53634
-1.31935
-1.19817
-1.10423
-1.05236
-1.01465
-0.995082
-0.98535
-0.984101
-0.758066
-0.761406
-0.768721
-0.784247
-0.816093
-0.877215
-0.992772
-1.20457
-1.52652
-1.78836
-1.72277
-1.48196
-1.34088
-1.27238
-1.27681
-1.26787
-1.23053
-1.20221
-1.18579
-1.18064
-0.637467
-0.640168
-0.645712
-0.657742
-0.682994
-0.731948
-0.824927
-0.997081
-1.26042
-1.46349
-1.41977
-1.28794
-1.22949
-1.22464
-1.29909
-1.32308
-1.27794
-1.2457
-1.22702
-1.22003
-0.495544
-0.496875
-0.499849
-0.507137
-0.523459
-0.556009
-0.618795
-0.737691
-0.930597
-1.09562
-1.09102
-1.03455
-0.978111
-1.01573
-1.13305
-1.15704
-1.12818
-1.10383
-1.08997
-1.08381
-0.353289
-0.353489
-0.35425
-0.35716
-0.365041
-0.381863
-0.415388
-0.481094
-0.598555
-0.72391
-0.740182
-0.697837
-0.649547
-0.701704
-0.8173
-0.854541
-0.844992
-0.835515
-0.830221
-0.82722
-0.228249
-0.227713
-0.227082
-0.227086
-0.229008
-0.234272
-0.245709
-0.26924
-0.315366
-0.375035
-0.378775
-0.344465
-0.34383
-0.417447
-0.510678
-0.538564
-0.543276
-0.544882
-0.546237
-0.546053
-0.129627
-0.128824
-0.127749
-0.126671
-0.125799
-0.125047
-0.124488
-0.124206
-0.123401
-0.114404
-0.115345
-0.1056
-0.159045
-0.228451
-0.27683
-0.295285
-0.302384
-0.306977
-0.310377
-0.311328
-0.0583349
-0.0576369
-0.056878
-0.0562068
-0.0551187
-0.0530461
-0.0494576
-0.0432126
-0.0321247
-0.0137477
-0.00106237
-0.0172166
-0.0610437
-0.0988548
-0.121223
-0.13013
-0.134645
-0.137751
-0.140481
-0.141466
-0.00920048
-0.00903374
-0.00848047
-0.0078191
-0.0072243
-0.00677522
-0.00607853
-0.00480846
-0.00260379
0.000974828
0.00475417
0.00381039
-0.0040071
-0.01247
-0.0188712
-0.0201813
-0.0217187
-0.0219874
-0.022655
-0.0234918
-0.566769
-0.354764
-0.127063
0.0599047
0.210523
0.331126
0.4326
0.517486
0.552301
0.536584
-0.197487
-0.0587514
0.0849447
0.209154
0.314279
0.402014
0.472827
0.522651
0.548916
0.561352
0.0489935
0.142127
0.238796
0.325199
0.399596
0.461856
0.511165
0.547437
0.573596
0.591061
0.224649
0.289205
0.357331
0.419798
0.47399
0.519823
0.55735
0.587427
0.61134
0.629343
0.359627
0.405994
0.456665
0.503479
0.545103
0.581287
0.612134
0.6379
0.658595
0.67637
0.469562
0.504821
0.5459
0.583522
0.617933
0.648745
0.675607
0.698235
0.715866
0.733382
0.565927
0.596136
0.631872
0.665457
0.696563
0.724759
0.749404
0.769847
0.784865
0.802291
0.656909
0.687144
0.722131
0.755145
0.785503
0.812752
0.836195
0.855026
0.867957
0.885427
0.753721
0.787709
0.824757
0.859032
0.889547
0.916103
0.93834
0.955674
0.967309
0.985132
0.869588
0.908271
0.946872
0.98147
1.01102
1.03593
1.05642
1.07227
1.08373
1.10209
1.01497
1.05467
1.09024
1.1208
1.14653
1.16873
1.18785
1.20346
1.21619
1.23434
1.18971
1.22203
1.24798
1.27037
1.2905
1.30932
1.32702
1.34362
1.35941
1.37762
1.37748
1.39515
1.41082
1.42749
1.44369
1.45828
1.47135
1.48536
1.50247
1.52217
1.55941
1.57028
1.58245
1.59328
1.60255
1.61216
1.62309
1.63471
1.64467
1.65986
1.77034
1.77239
1.75725
1.74204
1.73569
1.74139
1.76
1.79044
1.82259
1.85335
2.07626
1.93922
1.86295
1.82092
1.80351
1.80754
1.83493
1.89107
1.99453
2.20982
0.358953
0.355576
0.349647
0.339836
0.326888
0.314456
0.30413
0.296157
0.290455
0.287099
0.286617
0.289227
0.294237
0.301401
0.310773
0.322412
0.335506
0.347472
0.354918
0.359629
0.276971
0.282856
0.289763
0.295001
0.297842
0.297506
0.294587
0.29064
0.287027
0.284652
0.284369
0.286436
0.290004
0.294261
0.298132
0.300074
0.298917
0.29479
0.288867
0.281813
0.269338
0.271684
0.275034
0.277942
0.280156
0.281949
0.282892
0.282607
0.28152
0.280528
0.280556
0.281831
0.283513
0.284677
0.284628
0.283383
0.281517
0.279128
0.275941
0.272965
0.26422
0.265305
0.267176
0.269566
0.271532
0.272922
0.274003
0.274825
0.275232
0.275375
0.275708
0.276315
0.276695
0.276524
0.275888
0.274919
0.273435
0.27131
0.269149
0.26772
0.259164
0.259817
0.260935
0.262673
0.264495
0.26612
0.267378
0.268367
0.269212
0.269913
0.270463
0.270769
0.270721
0.270351
0.269643
0.268484
0.266933
0.265265
0.263878
0.263079
0.254303
0.254754
0.255551
0.256881
0.25841
0.259969
0.261445
0.262706
0.263768
0.264699
0.265398
0.265684
0.265566
0.265069
0.264171
0.262986
0.261686
0.260417
0.259422
0.258886
0.249607
0.24994
0.250569
0.25169
0.253041
0.254474
0.255961
0.257418
0.258727
0.25984
0.260682
0.261059
0.260917
0.260323
0.259424
0.258387
0.257315
0.256269
0.255491
0.255096
0.245066
0.245317
0.24583
0.246811
0.248064
0.24943
0.250873
0.252373
0.253862
0.255217
0.256254
0.256717
0.256596
0.256075
0.255323
0.254447
0.25352
0.252644
0.252025
0.251724
0.240633
0.240822
0.241251
0.242145
0.243351
0.244686
0.2461
0.247602
0.249173
0.250718
0.25198
0.252621
0.252677
0.252352
0.251786
0.251066
0.25026
0.249509
0.249007
0.248776
0.236289
0.236429
0.236792
0.237618
0.238788
0.240114
0.241568
0.243134
0.244795
0.246506
0.248023
0.248952
0.24928
0.249174
0.248763
0.248178
0.24751
0.246879
0.246479
0.246305
0.231996
0.232093
0.232408
0.233209
0.234398
0.235767
0.2373
0.239015
0.240887
0.242843
0.24468
0.245964
0.246555
0.246632
0.246378
0.245923
0.245354
0.244805
0.244483
0.244357
0.227769
0.227824
0.228089
0.228847
0.230019
0.231392
0.232924
0.234679
0.236713
0.238997
0.241255
0.242935
0.243891
0.244343
0.244415
0.244197
0.243799
0.243379
0.243149
0.243071
0.223648
0.223672
0.223894
0.224588
0.225721
0.22711
0.228736
0.230668
0.232939
0.235554
0.238317
0.24057
0.242011
0.242813
0.243173
0.243207
0.243035
0.242797
0.242674
0.242634
0.219467
0.219467
0.219651
0.220269
0.221334
0.222716
0.22441
0.22653
0.229151
0.232309
0.235721
0.238581
0.240548
0.241802
0.242509
0.242893
0.243056
0.243063
0.243062
0.243046
0.2148
0.214798
0.214962
0.215527
0.216541
0.217945
0.21976
0.222116
0.22512
0.228854
0.23306
0.236771
0.23943
0.241271
0.242497
0.243298
0.243774
0.24403
0.24414
0.244138
0.20935
0.209337
0.209517
0.210085
0.211155
0.212692
0.214764
0.217532
0.221151
0.225721
0.230935
0.235584
0.239007
0.241441
0.24316
0.244352
0.245142
0.245619
0.245812
0.245817
0.202819
0.202798
0.203013
0.203659
0.204848
0.206603
0.209036
0.212334
0.216709
0.222306
0.228769
0.234618
0.238981
0.242155
0.244424
0.24605
0.247184
0.247864
0.248124
0.248135
0.194911
0.194881
0.195144
0.195935
0.197364
0.199486
0.202459
0.20653
0.211947
0.218888
0.226907
0.234174
0.239633
0.243602
0.246483
0.248571
0.250038
0.250891
0.251213
0.251233
0.185333
0.185288
0.185616
0.186609
0.188399
0.191052
0.19478
0.199882
0.206648
0.215291
0.225233
0.234222
0.240956
0.2459
0.249496
0.252075
0.253902
0.254943
0.255335
0.255367
0.173699
0.173633
0.174046
0.175309
0.177606
0.181005
0.185768
0.19223
0.200749
0.211527
0.223829
0.234891
0.243168
0.249233
0.253654
0.256877
0.259041
0.26028
0.260764
0.260809
0.159506
0.159417
0.159956
0.16158
0.164549
0.168954
0.175108
0.183374
0.194144
0.207604
0.222769
0.236289
0.246386
0.253794
0.259191
0.263067
0.265692
0.267187
0.267782
0.267837
0.141928
0.141823
0.142573
0.144709
0.148558
0.15435
0.162375
0.173052
0.186744
0.203545
0.222155
0.238566
0.250781
0.259751
0.266277
0.270953
0.274114
0.275933
0.276648
0.276708
0.119529
0.11942
0.120533
0.123479
0.12864
0.136431
0.147099
0.161056
0.178537
0.199466
0.222156
0.241894
0.25651
0.267249
0.275076
0.280687
0.284504
0.286707
0.287554
0.287611
0.0900173
0.0899509
0.0917409
0.0960862
0.103455
0.11434
0.128873
0.147302
0.169642
0.195576
0.222985
0.246452
0.263728
0.27643
0.285728
0.29244
0.297043
0.299684
0.300665
0.300712
0.0492628
0.0493935
0.0526759
0.0599378
0.0713944
0.0873542
0.107584
0.132024
0.160412
0.192208
0.224891
0.2524
0.272523
0.287341
0.298268
0.306254
0.311789
0.314919
0.316014
0.316038
-0.0104815
-0.00913103
-0.00118851
0.0125185
0.0315977
0.055634
0.0838377
0.115903
0.15143
0.189771
0.228094
0.259805
0.282859
0.299871
0.312539
0.321927
0.328529
0.332212
0.333412
0.333403
-0.0822773
-0.0798201
-0.0646048
-0.0407925
-0.0112538
0.0222513
0.0592044
0.0994628
0.142715
0.188384
0.233405
0.270517
0.29765
0.317903
0.333215
0.344754
0.353034
0.357676
0.359016
0.359115
-0.155883
-0.148624
-0.126107
-0.0923747
-0.0530556
-0.0103316
0.0353274
0.0838046
0.134839
0.187919
0.239762
0.282406
0.313693
0.337278
0.35542
0.36942
0.379507
0.384558
0.386521
0.38698
-0.214583
-0.205627
-0.178443
-0.137938
-0.09106
-0.04055
0.0129025
0.0690019
0.127379
0.187479
0.245705
0.293352
0.328241
0.354542
0.374776
0.390334
0.401546
0.407759
0.410599
0.411216
-0.262392
-0.252872
-0.222233
-0.176856
-0.124258
-0.0675516
-0.00760229
0.0551402
0.120138
0.186668
0.250713
0.302783
0.34068
0.369091
0.39087
0.407664
0.41992
0.427003
0.430185
0.430868
-0.302381
-0.292684
-0.259803
-0.210632
-0.153398
-0.0915922
-0.0261931
0.0422798
0.11312
0.185438
0.254719
0.310661
0.351068
0.381141
0.404046
0.421629
0.434473
0.442223
0.445608
0.446328
-0.337133
-0.327373
-0.292811
-0.240611
-0.179559
-0.113439
-0.0433148
0.0301897
0.106247
0.183793
0.257836
0.31725
0.359809
0.3912
0.414884
0.432909
0.446055
0.454079
0.457583
0.458333
-0.368214
-0.358439
-0.322614
-0.267833
-0.203585
-0.133767
-0.0594848
0.0185157
0.0993128
0.181681
0.260178
0.322834
0.367347
0.399859
0.424123
0.442364
0.455601
0.463714
0.467182
0.467992
-0.396821
-0.387005
-0.350121
-0.293157
-0.226168
-0.153097
-0.0751293
0.00693504
0.0920909
0.178998
0.261756
0.327579
0.374011
0.407581
0.432379
0.45087
0.464146
0.472346
0.475835
0.476504
-0.423724
-0.41385
-0.376011
-0.317188
-0.247764
-0.171807
-0.09055
-0.00479966
0.0843953
0.175601
0.262536
0.331532
0.379934
0.414665
0.44008
0.458859
0.47225
0.480418
0.48391
0.48447
-0.449405
-0.439456
-0.400741
-0.340338
-0.268677
-0.19015
-0.105946
-0.0168468
0.0760862
0.171386
0.262442
0.334734
0.385306
0.421374
0.44754
0.466698
0.480246
0.488405
0.491848
0.49239
-0.474272
-0.464163
-0.424639
-0.362768
-0.289127
-0.208314
-0.121454
-0.0293088
0.0670867
0.166284
0.261463
0.337266
0.390235
0.427831
0.454921
0.474597
0.488391
0.496573
0.499896
0.500418
-0.4985
-0.488161
-0.447933
-0.384643
-0.309247
-0.226395
-0.137143
-0.0422324
0.057357
0.160275
0.259574
0.339042
0.394676
0.434069
0.462285
0.482616
0.49672
0.504934
0.508124
0.508585
-0.522137
-0.511594
-0.470678
-0.406072
-0.329102
-0.24442
-0.153033
-0.0556293
0.0468904
0.153308
0.256646
0.339959
0.398579
0.440078
0.469642
0.490761
0.505219
0.513431
0.516459
0.51682
-0.545314
-0.534484
-0.492849
-0.427076
-0.348703
-0.262395
-0.169109
-0.0694789
0.0356899
0.145346
0.252602
0.339921
0.40185
0.445803
0.47698
0.499019
0.51385
0.522021
0.524826
0.525054
-0.567946
-0.556846
-0.514507
-0.447654
-0.368027
-0.28028
-0.185319
-0.0837326
0.0237891
0.136395
0.247408
0.338792
0.404326
0.451153
0.484288
0.507399
0.522559
0.530548
0.533063
0.53316
-0.590064
-0.578669
-0.535621
-0.467781
-0.387029
-0.298022
-0.201605
-0.0983133
0.0112654
0.12651
0.24102
0.336434
0.405818
0.455975
0.491549
0.515967
0.531357
0.538932
0.541024
0.54098
-0.611501
-0.599879
-0.55614
-0.487407
-0.405654
-0.315541
-0.217887
-0.113133
-0.00178644
0.115758
0.233419
0.332737
0.40611
0.460039
0.498712
0.524917
0.540432
0.54714
0.548537
0.548332
-0.632354
-0.62042
-0.576028
-0.506492
-0.423857
-0.332789
-0.234064
-0.128097
-0.015269
0.104231
0.224638
0.327605
0.404973
0.463008
0.505565
0.534498
0.550396
0.55553
0.555526
0.555045
-0.652484
-0.640251
-0.595259
-0.52498
-0.441554
-0.349675
-0.250052
-0.143085
-0.0290655
0.0920197
0.214749
0.320978
0.402209
0.464446
0.511605
0.544723
0.56234
0.565677
0.562672
0.56094
-0.671922
-0.659426
-0.613776
-0.542818
-0.458704
-0.366132
-0.265765
-0.158009
-0.0430543
0.0792787
0.203858
0.312821
0.397672
0.463877
0.515905
0.554767
0.576855
0.580994
0.574304
0.563353
-0.690592
-0.677905
-0.631672
-0.560159
-0.475517
-0.382443
-0.281544
-0.173285
-0.0577053