/*--------------------------------*- C++ -*----------------------------------*\
| =========                 |                                                 |
| \\      /  F ield         | OpenFOAM: The Open Source CFD Toolbox           |
|  \\    /   O peration     | Version:  2306                                  |
|   \\  /    A nd           | Website:  www.openfoam.com                      |
|    \\/     M anipulation  |                                                 |
\*---------------------------------------------------------------------------*/
FoamFile
{
    version     2.0;
    format      ascii;
    arch        "LSB;label=32;scalar=64";
    class       volScalarField;
    location    "60";
    object      p;
}
// * * * * * * * * * * * * * * * * * * * * * * * * * * * * * * * * * * * * * //

dimensions      [0 2 -2 0 0 0 0];

internalField   nonuniform List<scalar> 
8800
(
0.803698
0.755647
0.717271
0.68863
0.668006
0.653254
0.642653
0.635152
0.63032
0.628268
0.629564
0.633792
0.640479
0.649831
0.662597
0.680193
0.704642
0.738259
0.780708
0.837834
0.636227
0.643433
0.651872
0.655288
0.653373
0.64785
0.641138
0.634978
0.630225
0.627378
0.627116
0.629655
0.63419
0.640207
0.64713
0.653759
0.657898
0.657389
0.65133
0.642357
0.612929
0.619106
0.623305
0.626667
0.629167
0.629965
0.628857
0.626714
0.624684
0.623787
0.624776
0.627197
0.630051
0.632284
0.63283
0.631309
0.628469
0.624837
0.620306
0.616521
0.607785
0.610486
0.613207
0.615517
0.617164
0.618491
0.6194
0.619607
0.61935
0.619328
0.620104
0.621286
0.622098
0.622053
0.621271
0.620087
0.618346
0.615852
0.61343
0.6119
0.602579
0.604002
0.605801
0.607856
0.609609
0.610915
0.611943
0.61282
0.613506
0.614119
0.614791
0.615273
0.615326
0.614994
0.614312
0.61312
0.611432
0.60956
0.608241
0.607418
0.597554
0.598468
0.599705
0.601286
0.602939
0.604465
0.605739
0.606822
0.607829
0.60877
0.609485
0.609817
0.60978
0.609366
0.608512
0.607309
0.605968
0.604708
0.60389
0.603346
0.592665
0.593329
0.594287
0.595588
0.597003
0.598478
0.599929
0.601258
0.602476
0.603619
0.604477
0.604876
0.604821
0.604333
0.603529
0.60258
0.601575
0.600659
0.600077
0.599676
0.587884
0.588397
0.589177
0.590304
0.591582
0.592963
0.594424
0.595913
0.597362
0.598733
0.599783
0.600294
0.600297
0.599926
0.599332
0.598617
0.597855
0.597177
0.596746
0.596433
0.583148
0.583556
0.584209
0.585214
0.586419
0.58775
0.589205
0.59078
0.59243
0.594068
0.595362
0.596061
0.596253
0.596103
0.595736
0.595233
0.594674
0.594188
0.593868
0.593613
0.578373
0.578706
0.579271
0.580196
0.581353
0.582669
0.584158
0.585829
0.587667
0.589596
0.591207
0.592198
0.592667
0.592771
0.592634
0.592353
0.591986
0.59166
0.591425
0.591211
0.573473
0.573749
0.574253
0.575132
0.576271
0.577612
0.579175
0.580984
0.583049
0.585312
0.587324
0.588694
0.589495
0.589887
0.590001
0.589943
0.589769
0.589583
0.589414
0.589229
0.56836
0.568591
0.569057
0.56992
0.571081
0.572489
0.574167
0.576171
0.578528
0.581205
0.583708
0.585533
0.586722
0.587445
0.587837
0.588012
0.588029
0.587971
0.587858
0.587694
0.562941
0.563138
0.563584
0.564461
0.565685
0.567205
0.569055
0.571317
0.574048
0.577246
0.580344
0.58271
0.584352
0.585451
0.586158
0.586576
0.586804
0.586866
0.5868
0.586649
0.557118
0.557287
0.557731
0.55865
0.559978
0.561661
0.563748
0.566352
0.569557
0.573401
0.57722
0.580231
0.582405
0.583937
0.585
0.585715
0.586148
0.586326
0.5863
0.586157
0.550772
0.550917
0.551373
0.552365
0.553844
0.55575
0.558152
0.561191
0.564994
0.569631
0.574323
0.578106
0.580911
0.582952
0.58442
0.585454
0.586123
0.586423
0.586434
0.586296
0.543766
0.543886
0.54437
0.545466
0.547148
0.549347
0.552151
0.555742
0.56029
0.565897
0.571645
0.57635
0.579902
0.582542
0.584489
0.585896
0.586824
0.587248
0.587293
0.587155
0.535919
0.536018
0.536545
0.537782
0.539724
0.542293
0.545612
0.549899
0.555368
0.562161
0.569182
0.574988
0.579423
0.582769
0.585288
0.587125
0.588347
0.588902
0.588979
0.588838
0.527007
0.527109
0.52769
0.529083
0.531355
0.534407
0.538381
0.543541
0.550153
0.558394
0.566945
0.574058
0.579534
0.58371
0.586905
0.589247
0.590799
0.591494
0.5916
0.591452
0.516719
0.516802
0.517474
0.519092
0.521797
0.525467
0.53027
0.536528
0.544561
0.554574
0.564956
0.573607
0.580307
0.585457
0.58943
0.592365
0.59429
0.595132
0.595264
0.595106
0.504683
0.504751
0.505523
0.507455
0.510718
0.515183
0.521044
0.528694
0.538498
0.550667
0.563232
0.573687
0.581809
0.588095
0.59297
0.596595
0.598928
0.599918
0.600071
0.599899
0.490352
0.490409
0.491324
0.493672
0.497671
0.503181
0.510423
0.519858
0.531877
0.546669
0.561816
0.574366
0.584114
0.591709
0.597627
0.602026
0.604795
0.605928
0.606093
0.605904
0.472963
0.47301
0.474137
0.477068
0.482075
0.488998
0.498081
0.509839
0.52465
0.542621
0.560785
0.575724
0.587314
0.596377
0.603458
0.608717
0.611933
0.613191
0.613356
0.613146
0.451364
0.451409
0.45288
0.456689
0.463148
0.472062
0.483669
0.4985
0.516835
0.538623
0.560256
0.577861
0.591483
0.60217
0.610504
0.616688
0.620324
0.621667
0.621814
0.621583
0.423807
0.423872
0.425934
0.431161
0.439869
0.451711
0.466879
0.48579
0.508527
0.534826
0.560366
0.580877
0.596685
0.609104
0.61879
0.625878
0.629855
0.631219
0.631326
0.631074
0.387274
0.387442
0.390713
0.39855
0.411052
0.427373
0.447616
0.47189
0.500011
0.531505
0.561327
0.584904
0.60298
0.617186
0.628248
0.636134
0.640299
0.641591
0.641636
0.641366
0.335972
0.336963
0.343472
0.356679
0.375777
0.399019
0.42626
0.457305
0.491769
0.529032
0.56337
0.590072
0.610414
0.626348
0.638712
0.647184
0.651311
0.652427
0.652394
0.652113
0.261183
0.268483
0.283475
0.30663
0.335567
0.368069
0.403849
0.44268
0.484177
0.527701
0.566891
0.59696
0.619759
0.637595
0.651222
0.660094
0.664045
0.664963
0.664883
0.664638
0.181088
0.197867
0.222138
0.256005
0.295214
0.337109
0.381492
0.4283
0.477233
0.527714
0.572676
0.606947
0.632795
0.652915
0.668027
0.677096
0.68058
0.68123
0.681171
0.681016
0.113685
0.133607
0.16565
0.208665
0.25697
0.307725
0.360477
0.415137
0.471379
0.528617
0.579075
0.61727
0.645941
0.668051
0.684113
0.692997
0.696103
0.696666
0.696661
0.696557
0.0584541
0.0802345
0.117744
0.167225
0.222692
0.280919
0.341089
0.402963
0.466078
0.529767
0.585471
0.627356
0.6586
0.682429
0.699397
0.708425
0.711456
0.712065
0.71209
0.712014
0.0126043
0.0356095
0.0768898
0.131496
0.192701
0.257088
0.323613
0.391904
0.461336
0.531087
0.591776
0.637172
0.670869
0.69639
0.714364
0.723804
0.727069
0.727597
0.72765
0.727602
-0.0262965
-0.00258998
0.0415605
0.10021
0.166255
0.235891
0.307937
0.381931
0.45711
0.532502
0.597918
0.646685
0.682777
0.709971
0.728986
0.739081
0.742558
0.743128
0.743191
0.743172
-0.0602709
-0.036108
0.010321
0.0723107
0.142449
0.216656
0.293598
0.37273
0.453192
0.533872
0.603785
0.655787
0.69418
0.723037
0.74303
0.75376
0.757556
0.758217
0.758304
0.758302
-0.0908107
-0.066252
-0.0179651
0.0468807
0.120544
0.19876
0.280103
0.363937
0.449314
0.534988
0.60919
0.66429
0.704864
0.73523
0.756212
0.767521
0.771638
0.772448
0.772537
0.772541
-0.118888
-0.093975
-0.044096
0.0232075
0.099976
0.181751
0.267058
0.355206
0.445181
0.535615
0.613957
0.67204
0.714683
0.746439
0.768308
0.780134
0.784521
0.785459
0.785537
0.785532
-0.145297
-0.119987
-0.0686292
0.00076512
0.0803195
0.165269
0.254156
0.346274
0.440573
0.535582
0.617979
0.678967
0.723596
0.756658
0.779243
0.791447
0.796038
0.797055
0.797124
0.797101
-0.170421
-0.144701
-0.0921117
-0.02077
0.0612637
0.149057
0.241191
0.336971
0.435339
0.534771
0.621179
0.685074
0.731628
0.765893
0.789041
0.801525
0.806209
0.807263
0.807309
0.807263
-0.194685
-0.168434
-0.11484
-0.0416344
0.0425984
0.132941
0.228026
0.327175
0.429366
0.533081
0.62351
0.690373
0.738869
0.774266
0.797917
0.810472
0.815175
0.816226
0.816244
0.816175
-0.218224
-0.191551
-0.136846
-0.0620007
0.0241905
0.116821
0.214575
0.316817
0.422587
0.530451
0.624941
0.694896
0.745429
0.781935
0.805948
0.818486
0.823125
0.82413
0.824133
0.824043
-0.241181
-0.213999
-0.15826
-0.0819675
0.00597785
0.100654
0.200802
0.305861
0.414966
0.526826
0.625425
0.698671
0.751418
0.789089
0.813374
0.825753
0.830219
0.831139
0.831099
0.830986
-0.263673
-0.235923
-0.179188
-0.101572
-0.0120695
0.0844282
0.186716
0.29432
0.406494
0.522165
0.624913
0.701701
0.756947
0.795892
0.820349
0.832398
0.836559
0.837335
0.837245
0.837113
-0.285734
-0.257329
-0.199666
-0.120818
-0.0299273
0.0681675
0.172356
0.282228
0.397191
0.516443
0.623344
0.70395
0.762076
0.802525
0.827086
0.83856
0.84222
0.842782
0.842644
0.842502
-0.30721
-0.278187
-0.219631
-0.139686
-0.0475699
0.0519298
0.157772
0.269652
0.38711
0.509673
0.620646
0.705342
0.766805
0.809176
0.833892
0.844493
0.847337
0.847558
0.847367
0.84723
-0.32808
-0.298469
-0.239073
-0.158135
-0.064946
0.035769
0.143053
0.256664
0.376322
0.501878
0.616768
0.705757
0.771059
0.815958
0.841186
0.850725
0.852234
0.851763
0.851475
0.851392
-0.348412
-0.318139
-0.257973
-0.176138
-0.0819978
0.0197647
0.12828
0.243364
0.364915
0.493115
0.611655
0.705047
0.774661
0.822807
0.849355
0.858152
0.8578
0.855808
0.855096
0.855272
-0.368037
-0.337183
-0.276272
-0.193636
-0.0986698
0.00399783
0.113548
0.229858
0.352999
0.483474
0.605289
0.70304
0.77734
0.829379
0.858404
0.86779
0.865994
0.861568
0.858906
0.8585
-0.387047
-0.355601
-0.293987
-0.210659
-0.114995
-0.0115721
0.0988013
0.216092
0.340509
0.472887
0.59753
0.699463
0.778803
0.835156
0.867703
0.879934
0.879217
0.872607
0.864011
0.855224
-0.405368
-0.373372
-0.311244
-0.227408
-0.131259
-0.027271
0.0836333
0.20159
0.326916
0.460731
0.587747
0.693548
0.778535
0.83946
0.875586
0.892457
0.893564
0.881897
0.861646
0.855834
-0.422829
-0.39051
-0.327864
-0.243696
-0.147144
-0.0427781
0.0682595
0.186675
0.312522
0.447255
0.576004
0.684749
0.775719
0.841131
0.877895
0.894801
0.898479
0.873399
0.807669
0.778897
-0.438958
-0.408281
-0.343469
-0.259037
-0.161826
-0.0575819
0.0529909
0.171599
0.297571
0.432604
0.562275
0.67269
0.769042
0.83938
0.86997
0.881405
0.869162
0.814404
0.74602
0.704636
-0.488583
-0.424929
-0.357612
-0.274368
-0.17664
-0.0729671
0.0378523
0.156135
0.281745
0.416345
0.545983
0.6568
0.754524
0.831286
0.841753
0.837058
0.786674
0.716346
0.639832
0.597643
-0.455624
-0.438801
-0.378852
-0.294576
-0.199013
-0.0954666
0.0144357
0.13203
0.256618
0.389723
0.517487
0.626658
0.715818
0.798853
0.785036
0.670423
0.566617
0.49361
0.420894
0.452146
-0.486783
-0.456689
-0.395508
-0.312162
-0.216464
-0.113023
-0.00292226
0.114017
0.23754
0.368855
0.493853
0.599101
0.678306
0.723318
0.674231
0.524849
0.399095
0.30894
0.21209
0.261968
-0.510419
-0.477925
-0.415042
-0.331595
-0.235818
-0.132445
-0.022454
0.0936481
0.215762
0.344659
0.465856
0.564857
0.634878
0.643688
0.53691
0.366823
0.217877
0.10145
-0.0255943
0.00965464
-0.533567
-0.499704
-0.435515
-0.351202
-0.255373
-0.152161
-0.0426954
0.0724276
0.192923
0.319002
0.435427
0.526464
0.580964
0.558048
0.399329
0.20656
0.0230695
-0.139529
-0.322569
-0.33204
-0.556222
-0.521898
-0.456805
-0.371752
-0.275781
-0.172801
-0.0639948
0.0500155
0.168626
0.291485
0.402416
0.485612
0.52009
0.460666
0.268364
0.0598818
-0.149258
-0.326361
-0.571167
-0.83117
-0.579211
-0.544842
-0.479226
-0.393689
-0.297533
-0.194724
-0.0865115
0.0263507
0.142965
0.262349
0.367455
0.442099
0.454951
0.344615
0.153611
-0.0569729
-0.25956
-0.422783
-0.499852
-0.606504
-0.603495
-0.569003
-0.503101
-0.41732
-0.321121
-0.218579
-0.111055
0.000483884
0.114775
0.230158
0.329043
0.392455
0.380286
0.235554
0.050673
-0.143391
-0.310129
-0.401244
-0.42442
-0.44062
-0.629338
-0.594691
-0.528595
-0.442727
-0.346673
-0.244574
-0.137981
-0.0280734
0.0834647
0.194178
0.286402
0.335334
0.304893
0.133728
-0.0430446
-0.212409
-0.340053
-0.378566
-0.390534
-0.391766
-0.656949
-0.622067
-0.555765
-0.469907
-0.374137
-0.272711
-0.167308
-0.0593701
0.0489708
0.1544
0.239091
0.273145
0.221479
0.0400025
-0.127862
-0.278072
-0.354454
-0.371803
-0.372719
-0.372492
-0.686384
-0.651192
-0.584628
-0.498855
-0.403528
-0.302976
-0.199039
-0.0934206
0.0113022
0.1109
0.187084
0.208917
0.121677
-0.0454965
-0.205249
-0.32733
-0.364692
-0.362544
-0.362025
-0.361422
-0.717345
-0.681887
-0.61508
-0.52948
-0.434753
-0.335312
-0.23314
-0.130198
-0.0295027
0.0637917
0.131293
0.136419
0.0308293
-0.12503
-0.266444
-0.341474
-0.352256
-0.354955
-0.355469
-0.355212
-0.749287
-0.713687
-0.646871
-0.561547
-0.467621
-0.369555
-0.269454
-0.169572
-0.0732528
0.0134201
0.0722437
0.0626821
-0.0513154
-0.192768
-0.308963
-0.34777
-0.351695
-0.351531
-0.351157
-0.350893
-0.781723
-0.745996
-0.679557
-0.594644
-0.50178
-0.405375
-0.307691
-0.211255
-0.119672
-0.039483
0.00868213
-0.00824689
-0.126184
-0.247645
-0.338022
-0.348873
-0.347369
-0.348064
-0.34825
-0.348014
-0.813767
-0.778095
-0.712183
-0.628195
-0.536673
-0.442286
-0.347384
-0.254758
-0.168325
-0.0942386
-0.0565346
-0.0742765
-0.191551
-0.288831
-0.34264
-0.352864
-0.349892
-0.348528
-0.347795
-0.347484
-0.843817
-0.808876
-0.743784
-0.661222
-0.571511
-0.479568
-0.387857
-0.299367
-0.218423
-0.150372
-0.116736
-0.147543
-0.244593
-0.326707
-0.338878
-0.348841
-0.350226
-0.34826
-0.347492
-0.347102
-0.870238
-0.836411
-0.773252
-0.692508
-0.60522
-0.516258
-0.428218
-0.344178
-0.26878
-0.207157
-0.174142
-0.217795
-0.290659
-0.342739
-0.372208
-0.363034
-0.354513
-0.350382
-0.349701
-0.349306
-0.890898
-0.858743
-0.798483
-0.720633
-0.636488
-0.551161
-0.467337
-0.388099
-0.318176
-0.2633
-0.233335
-0.279015
-0.330662
-0.355421
-0.386508
-0.38203
-0.373793
-0.371049
-0.370303
-0.369268
-0.903501
-0.874032
-0.817471
-0.743656
-0.663774
-0.58289
-0.503921
-0.429842
-0.36544
-0.317073
-0.290701
-0.337712
-0.379795
-0.372504
-0.372322
-0.411922
-0.436549
-0.43884
-0.43245
-0.430902
-0.905342
-0.879885
-0.828266
-0.759727
-0.685325
-0.61002
-0.53652
-0.467989
-0.409166
-0.366929
-0.339754
-0.395368
-0.478502
-0.512045
-0.488177
-0.480002
-0.469464
-0.459507
-0.454279
-0.453943
-0.89433
-0.87374
-0.828687
-0.767198
-0.69961
-0.630936
-0.563717
-0.500961
-0.447628
-0.410528
-0.382975
-0.437186
-0.547136
-0.758223
-0.658295
-0.513801
-0.443217
-0.425343
-0.419106
-0.416588
-0.86807
-0.852591
-0.81686
-0.76482
-0.705632
-0.64461
-0.584173
-0.527232
-0.478585
-0.445068
-0.407443
-0.404767
-0.401679
-0.488422
-0.451524
-0.368037
-0.334894
-0.328013
-0.325243
-0.322615
-0.829248
-0.819223
-0.793523
-0.752752
-0.70338
-0.650782
-0.597246
-0.545673
-0.5001
-0.467423
-0.430096
-0.297929
-0.063219
0.146445
0.0687751
-0.092943
-0.196658
-0.236494
-0.24781
-0.249324
-0.784656
-0.778936
-0.763554
-0.733823
-0.694844
-0.650336
-0.603385
-0.555966
-0.512234
-0.475757
-0.433945
-0.303914
-0.0750679
0.176263
0.0897391
-0.120874
-0.271656
-0.336478
-0.35605
-0.364589
-0.744165
-0.740726
-0.733244
-0.713559
-0.683079
-0.645603
-0.603933
-0.559873
-0.515467
-0.478627
-0.449284
-0.477047
-0.693978
-0.985318
-1.12678
-1.24193
-1.19042
-1.04026
-0.921748
-0.905071
-0.714888
-0.712719
-0.708867
-0.696684
-0.672635
-0.639909
-0.601392
-0.558144
-0.512489
-0.471342
-0.446429
-0.555584
-0.996245
-1.67271
-2.20808
-2.23883
-2.02061
-1.74968
-1.51073
-1.41864
-0.693168
-0.692351
-0.691094
-0.684931
-0.666252
-0.636055
-0.597669
-0.55256
-0.50228
-0.444053
-0.402166
-0.399647
-0.530535
-0.609584
-0.621135
-0.512825
-0.342591
-0.199835
-0.101263
-0.0574567
-0.680898
-0.680577
-0.679947
-0.677082
-0.663548
-0.634604
-0.593999
-0.545677
-0.487416
-0.420489
-0.357178
-0.293079
-0.166266
0.133572
0.479717
0.808016
1.05268
1.17713
1.23127
1.24789
-0.673117
-0.672785
-0.671927
-0.670863
-0.662979
-0.635751
-0.592369
-0.538156
-0.474327
-0.396081
-0.298819
-0.194943
0.0445524
0.490311
0.953604
1.3841
1.68201
1.81378
1.86179
1.87056
-0.670373
-0.670167
-0.669703
-0.669888
-0.665823
-0.640406
-0.592828
-0.533399
-0.462052
-0.369149
-0.262392
-0.145007
0.0958115
0.523583
0.96865
1.36485
1.63601
1.75976
1.79515
1.7994
-0.668753
-0.669706
-0.672239
-0.675746
-0.673418
-0.64616
-0.596291
-0.533535
-0.45439
-0.357651
-0.2486
-0.137846
0.054241
0.412549
0.753079
1.04902
1.24942
1.33934
1.36838
1.37443
-0.663789
-0.664599
-0.664567
-0.663103
-0.660417
-0.641669
-0.602573
-0.539822
-0.455668
-0.356607
-0.252683
-0.157503
-0.0158709
0.262323
0.514452
0.708086
0.832255
0.894034
0.924333
0.935305
-0.681282
-0.678438
-0.66191
-0.63242
-0.61702
-0.631803
-0.618407
-0.554452
-0.463794
-0.361636
-0.264002
-0.178658
-0.0700703
0.134999
0.328183
0.469499
0.565906
0.621519
0.65147
0.662186
-0.743645
-0.738849
-0.728664
-0.714778
-0.70834
-0.711843
-0.671499
-0.579952
-0.472857
-0.36424
-0.274651
-0.203877
-0.120072
0.0567578
0.21149
0.329206
0.418654
0.472369
0.497885
0.505045
-0.865659
-0.878209
-0.912917
-0.944577
-0.940032
-0.894687
-0.764333
-0.614305
-0.479617
-0.364798
-0.278567
-0.214799
-0.151186
-0.0182121
0.112756
0.217774
0.296806
0.3448
0.365474
0.37014
-0.96984
-0.992603
-1.03465
-1.06358
-1.05477
-0.989329
-0.811723
-0.624145
-0.473517
-0.355964
-0.272404
-0.213329
-0.160597
-0.0530785
0.0516305
0.131351
0.194938
0.233056
0.248983
0.251421
-0.906052
-0.928246
-0.96411
-0.993098
-0.986744
-0.907367
-0.737328
-0.573165
-0.436585
-0.330552
-0.254285
-0.199304
-0.146642
-0.0730343
0.00680787
0.0665068
0.11261
0.139236
0.148783
0.149967
-0.638806
-0.657964
-0.691442
-0.723426
-0.727092
-0.667587
-0.561553
-0.456484
-0.365276
-0.287105
-0.224621
-0.174899
-0.129334
-0.0813753
-0.028634
0.0155477
0.0516232
0.0719646
0.0801204
0.0797387
-0.291737
-0.302271
-0.323432
-0.351601
-0.37259
-0.368404
-0.348645
-0.315274
-0.277189
-0.233687
-0.190381
-0.151727
-0.119229
-0.0863091
-0.0507961
-0.0204297
0.00336469
0.0168129
0.0203717
0.0195085
-0.0322541
-0.0369037
-0.0508656
-0.0773528
-0.114255
-0.152465
-0.1796
-0.194508
-0.194793
-0.18111
-0.158578
-0.133967
-0.114937
-0.0992045
-0.075898
-0.0538064
-0.037612
-0.0299416
-0.02822
-0.0296395
0.0900766
0.0876423
0.0776669
0.0539513
0.0147388
-0.0331107
-0.0776768
-0.112304
-0.132898
-0.138585
-0.131526
-0.119722
-0.110964
-0.107647
-0.0965654
-0.0845151
-0.0758927
-0.0729892
-0.0727154
-0.0740018
0.118946
0.117257
0.109878
0.0914227
0.0595435
0.0185719
-0.0241653
-0.06236
-0.0911245
-0.107694
-0.11194
-0.109753
-0.108782
-0.110252
-0.108741
-0.106438
-0.106169
-0.107886
-0.109426
-0.110333
0.10702
0.105814
0.10065
0.087666
0.0647615
0.0338984
-0.00113212
-0.0356201
-0.0657804
-0.0887088
-0.101335
-0.106008
-0.109382
-0.11756
-0.122021
-0.125205
-0.128477
-0.13194
-0.133733
-0.134417
0.0831582
0.0823465
0.0788706
0.0700868
0.0542151
0.0318354
0.00455236
-0.0245549
-0.0528934
-0.0786118
-0.098289
-0.111467
-0.120448
-0.130189
-0.13582
-0.139598
-0.143514
-0.146541
-0.14786
-0.148446
0.0590445
0.058516
0.0562105
0.0503418
0.0394731
0.0235013
0.00286938
-0.0209546
-0.0468174
-0.0743401
-0.101475
-0.126332
-0.142728
-0.147829
-0.148431
-0.150173
-0.152811
-0.155234
-0.156217
-0.156699
0.0386746
0.0383086
0.0368066
0.0328928
0.0254434
0.0140205
-0.00155013
-0.020829
-0.0438298
-0.0719019
-0.105242
-0.141247
-0.163801
-0.162369
-0.157427
-0.156327
-0.15755
-0.159288
-0.159934
-0.16018
0.0231424
0.0228802
0.0218624
0.0192467
0.0141324
0.00599237
-0.00563433
-0.0209357
-0.0405383
-0.0669209
-0.101526
-0.14171
-0.163728
-0.157141
-0.150279
-0.149595
-0.152435
-0.154821
-0.155426
-0.155447
0.0121094
0.0119473
0.0112746
0.00959159
0.00617161
0.000497457
-0.00797731
-0.0196995
-0.0355322
-0.0574584
-0.0873392
-0.120635
-0.134968
-0.129334
-0.127155
-0.130455
-0.135329
-0.138302
-0.138858
-0.138751
0.00499544
0.00489598
0.00446961
0.0034221
0.00128068
-0.00249078
-0.00836958
-0.0167914
-0.0284334
-0.0445762
-0.0647472
-0.0846144
-0.0912092
-0.0880546
-0.0926047
-0.100026
-0.10647
-0.109652
-0.110228
-0.110153
0.00105661
0.00099985
0.000760698
0.000218818
-0.001005
-0.0032763
-0.00696187
-0.0123655
-0.0198313
-0.0295439
-0.0390545
-0.0437483
-0.0396511
-0.0447596
-0.0541913
-0.0643133
-0.0710513
-0.0736894
-0.0742385
-0.0742609
-0.00047585
-0.000490292
-0.000573091
-0.000792258
-0.0013394
-0.0024472
-0.00432908
-0.00712861
-0.0108551
-0.0151534
-0.0166832
-0.0104808
-9.22564e-05
-0.00966148
-0.0217791
-0.0306846
-0.03553
-0.0369076
-0.0372548
-0.0375302
-0.00037341
-0.000347361
-0.000373291
-0.000333061
-0.000230802
-0.000238323
-0.000459034
-0.000879983
-0.00146752
-0.00227397
-0.00250265
-0.000566743
0.00300212
0.0015356
-0.00148027
-0.00484051
-0.00584874
-0.00554672
-0.00621022
-0.00653408
-0.136422
0.0508914
0.250798
0.418489
0.552036
0.656986
0.744093
0.817403
0.847613
0.831481
0.187146
0.310007
0.438462
0.549237
0.642361
0.719424
0.781457
0.824982
0.847601
0.860509
0.405537
0.488715
0.576012
0.65358
0.720062
0.77559
0.819593
0.852024
0.875886
0.893805
0.564521
0.623639
0.684737
0.741427
0.79052
0.832124
0.866336
0.894005
0.916521
0.93481
0.68908
0.731417
0.778257
0.821209
0.859577
0.893097
0.921842
0.946088
0.965875
0.983837
0.792492
0.825409
0.863718
0.898989
0.931341
0.960461
0.985994
1.00766
1.02468
1.04229
0.884778
0.913573
0.947497
0.979594
1.00943
1.03655
1.06034
1.08016
1.09476
1.11221
0.973191
1.00256
1.03645
1.06853
1.09809
1.12465
1.14754
1.16596
1.1786
1.19606
1.06841
1.10194
1.13831
1.17198
1.20198
1.22809
1.24997
1.26704
1.27847
1.29626
1.18322
1.22175
1.25994
1.29411
1.32334
1.34797
1.36824
1.38392
1.39524
1.41357
1.32788
1.36734
1.40287
1.43324
1.45878
1.48082
1.4998
1.51531
1.52795
1.54607
1.50257
1.53461
1.56038
1.5827
1.60273
1.62146
1.63907
1.65561
1.67135
1.68954
1.69015
1.7077
1.72322
1.73979
1.75594
1.77048
1.78349
1.79746
1.81454
1.83422
1.87173
1.88269
1.89483
1.90562
1.91487
1.92442
1.93529
1.94688
1.95682
1.97199
2.08273
2.08474
2.06959
2.05436
2.04797
2.05363
2.07223
2.10264
2.13478
2.16552
2.38864
2.2516
2.1753
2.13319
2.11574
2.11978
2.14713
2.20328
2.30673
2.52201
0.699988
0.696613
0.690687
0.680882
0.667942
0.655522
0.645217
0.63728
0.631639
0.628375
0.628029
0.630792
0.635932
0.643199
0.652648
0.664345
0.677481
0.689476
0.696934
0.701655
0.617995
0.62388
0.630786
0.636026
0.638875
0.63855
0.63565
0.631737
0.628184
0.625913
0.625775
0.627998
0.631705
0.636076
0.640034
0.642043
0.640936
0.636849
0.630958
0.623914
0.610327
0.612674
0.616025
0.618933
0.621152
0.622955
0.62392
0.623672
0.622653
0.621774
0.621961
0.623407
0.625241
0.626533
0.626589
0.625425
0.623622
0.621283
0.618131
0.615169
0.605167
0.606254
0.60812
0.610502
0.612464
0.613858
0.614959
0.615826
0.616306
0.616569
0.617081
0.617887
0.618448
0.61843
0.617918
0.617052
0.615654
0.613601
0.611492
0.610079
0.600049
0.600704
0.601813
0.603534
0.60534
0.606959
0.608229
0.609264
0.610198
0.611038
0.611793
0.612337
0.6125
0.612312
0.611763
0.610741
0.609309
0.607741
0.606421
0.605638
0.595096
0.595551
0.596334
0.59763
0.599125
0.60066
0.602131
0.603424
0.60457
0.605652
0.606592
0.607168
0.607321
0.607064
0.60638
0.605384
0.604249
0.603116
0.602208
0.601688
0.590266
0.590607
0.591216
0.592282
0.593572
0.594952
0.596404
0.597861
0.599241
0.600535
0.601667
0.602381
0.602578
0.602315
0.601716
0.600938
0.60009
0.599231
0.598563
0.598183
0.585518
0.585783
0.586274
0.587181
0.588349
0.589645
0.591046
0.592547
0.594102
0.595639
0.597012
0.597906
0.598225
0.598114
0.597726
0.597173
0.596532
0.595898
0.595411
0.59512
0.580774
0.580985
0.581393
0.58219
0.583278
0.584527
0.585915
0.58746
0.589148
0.590926
0.592587
0.59374
0.594296
0.594427
0.594273
0.593941
0.593505
0.593063
0.592715
0.592487
0.575948
0.576117
0.576468
0.577192
0.578233
0.579461
0.580878
0.582505
0.584348
0.586381
0.588385
0.589895
0.590773
0.591192
0.59129
0.591186
0.590962
0.590692
0.590459
0.590278
0.570952
0.571089
0.571398
0.572078
0.573102
0.574354
0.575838
0.577591
0.579644
0.581986
0.584409
0.586363
0.587629
0.588381
0.588764
0.588904
0.588889
0.588785
0.588651
0.588505
0.565698
0.565809
0.56609
0.56675
0.567793
0.569114
0.570708
0.572641
0.574971
0.577706
0.580645
0.583133
0.584857
0.585992
0.586699
0.587103
0.587304
0.587369
0.58732
0.587202
0.560091
0.560178
0.560444
0.561109
0.562206
0.563638
0.565398
0.567579
0.570263
0.573497
0.577071
0.580199
0.582463
0.584043
0.585113
0.585829
0.586271
0.586492
0.586519
0.586421
0.554022
0.554089
0.554347
0.555041
0.55623
0.55782
0.559809
0.562318
0.565456
0.569313
0.573662
0.577559
0.580464
0.582567
0.584054
0.585115
0.585822
0.586215
0.586314
0.586233
0.547362
0.547409
0.54767
0.548414
0.549736
0.55154
0.553833
0.55676
0.560474
0.5651
0.570393
0.575216
0.578883
0.581603
0.58358
0.585027
0.586043
0.586618
0.586788
0.586722
0.539959
0.539989
0.540255
0.541072
0.542571
0.544656
0.547335
0.550794
0.555227
0.5608
0.56724
0.573176
0.577749
0.581195
0.583754
0.585663
0.587025
0.587799
0.588039
0.587983
0.531618
0.531634
0.531904
0.532816
0.534552
0.53698
0.540158
0.544292
0.549623
0.556361
0.56419
0.571458
0.577106
0.581407
0.584652
0.587112
0.588869
0.58986
0.590172
0.590123
0.522033
0.52202
0.52235
0.523405
0.525417
0.528303
0.532117
0.537102
0.543554
0.55173
0.561242
0.570091
0.577007
0.582315
0.586363
0.58947
0.591681
0.592911
0.593296
0.593251
0.510912
0.510875
0.51125
0.512499
0.514883
0.518356
0.522979
0.529043
0.536902
0.546849
0.558392
0.569116
0.577513
0.584
0.588992
0.59284
0.595576
0.597063
0.597517
0.597473
0.497776
0.497713
0.498166
0.499667
0.502538
0.506777
0.512448
0.519895
0.529528
0.54166
0.555645
0.568573
0.578689
0.586535
0.592629
0.59733
0.600652
0.602406
0.602925
0.602876
0.481979
0.481887
0.482465
0.484318
0.487838
0.493101
0.500162
0.509417
0.521312
0.536141
0.553041
0.568533
0.580615
0.590006
0.597353
0.603019
0.60698
0.609003
0.609571
0.609511
0.462582
0.462465
0.463244
0.465609
0.470044
0.476729
0.485689
0.497355
0.512166
0.53033
0.550674
0.569092
0.583383
0.594494
0.603218
0.60996
0.614589
0.616856
0.617451
0.617372
0.438168
0.438037
0.439151
0.442311
0.448128
0.456897
0.468551
0.483499
0.502078
0.52432
0.548672
0.570364
0.587069
0.600061
0.610261
0.618161
0.623433
0.625886
0.626474
0.626368
0.406435
0.40633
0.408051
0.412582
0.420699
0.43271
0.448319
0.467774
0.491174
0.518315
0.54723
0.572494
0.591762
0.606735
0.618503
0.627554
0.633367
0.635902
0.636435
0.636296
0.363241
0.363303
0.366353
0.373744
0.386135
0.403442
0.424904
0.450432
0.479834
0.512685
0.546632
0.575662
0.597562
0.614539
0.627857
0.637987
0.644123
0.646575
0.647004
0.64683
0.300839
0.30204
0.309476
0.323316
0.343518
0.369244
0.398939
0.43219
0.468686
0.507903
0.547167
0.580019
0.604513
0.623421
0.638161
0.649089
0.655269
0.657406
0.657671
0.657476
0.226591
0.228651
0.242978
0.266766
0.297802
0.333462
0.372124
0.413594
0.45768
0.503903
0.549325
0.586906
0.614767
0.63614
0.652632
0.664346
0.670421
0.672321
0.672544
0.672443
0.150213
0.156596
0.177895
0.211851
0.253304
0.29863
0.346232
0.395987
0.447768
0.501127
0.552879
0.595329
0.626632
0.650564
0.668905
0.68123
0.686826
0.688268
0.688423
0.688391
0.0878513
0.0963651
0.122183
0.163192
0.212814
0.266382
0.322073
0.379603
0.43874
0.498966
0.556785
0.603832
0.63833
0.664522
0.684181
0.696828
0.70232
0.703611
0.703799
0.703824
0.0370198
0.0461463
0.0755003
0.121733
0.177493
0.237688
0.30021
0.364602
0.43046
0.497138
0.560733
0.612152
0.649639
0.677919
0.698963
0.712151
0.717531
0.719025
0.719298
0.719365
-0.00550423
0.00389223
0.0356814
0.0859134
0.14671
0.212407
0.280715
0.351104
0.423015
0.495651
0.564684
0.620269
0.660632
0.690972
0.713386
0.727222
0.733014
0.734746
0.735044
0.735126
-0.0421201
-0.0326177
0.000996197
0.0544341
0.119408
0.189809
0.263164
0.33886
0.416235
0.494368
0.568527
0.628093
0.671232
0.703569
0.727314
0.742088
0.748356
0.75024
0.750571
0.75065
-0.0745009
-0.0649613
-0.0299451
0.0262077
0.0946781
0.169135
0.246958
0.327437
0.40983
0.493095
0.57211
0.635482
0.681278
0.715517
0.740569
0.756127
0.762952
0.765015
0.765364
0.765431
-0.10392
-0.0943343
-0.0581673
0.000330644
0.0717931
0.149806
0.23161
0.316439
0.403471
0.491568
0.575216
0.642242
0.690577
0.72658
0.752838
0.769157
0.776485
0.778692
0.779046
0.77908
-0.131252
-0.121617
-0.0844283
-0.0239184
0.0502128
0.131382
0.216746
0.305532
0.396871
0.489548
0.577679
0.648254
0.699028
0.736701
0.764016
0.780935
0.788689
0.791025
0.791386
0.791401
-0.157066
-0.147356
-0.109209
-0.0470127
0.029536
0.11352
0.202088
0.294487
0.389834
0.486873
0.579375
0.653464
0.706615
0.745877
0.774127
0.791507
0.79949
0.801931
0.802292
0.80228
-0.181841
-0.171975
-0.132973
-0.0692219
0.00949434
0.095985
0.187446
0.283146
0.382225
0.483421
0.580215
0.657844
0.713385
0.754164
0.783274
0.800993
0.809045
0.811488
0.811841
0.811813
-0.205842
-0.195757
-0.156025
-0.0907334
-0.0100967
0.0786244
0.172698
0.271412
0.37395
0.479108
0.580143
0.661381
0.719401
0.761709
0.791553
0.809464
0.817504
0.81991
0.820243
0.820182
-0.229177
-0.218889
-0.17838
-0.111693
-0.0293596
0.0613662
0.157781
0.259228
0.364959
0.473871
0.579101
0.664076
0.724729
0.768651
0.79918
0.81717
0.825083
0.827387
0.827668
0.827583
-0.252009
-0.241434
-0.200158
-0.132194
-0.0483438
0.0441688
0.142673
0.246583
0.355241
0.467683
0.577032
0.665906
0.729439
0.775144
0.806344
0.824254
0.831913
0.834045
0.834253
0.834143
-0.274306
-0.263457
-0.221448
-0.152279
-0.0670569
0.0270387
0.127398
0.233506
0.344811
0.460529
0.573891
0.666823
0.73357
0.781323
0.813223
0.830885
0.83809
0.839949
0.840053
0.839915
-0.29613
-0.284969
-0.242187
-0.171934
-0.0854848
0.0100031
0.111995
0.220049
0.333717
0.452426
0.569636
0.666754
0.737095
0.787299
0.82006
0.837285
0.843731
0.845151
0.84513
0.844977
-0.317307
-0.305912
-0.262365
-0.191125
-0.103584
-0.00687174
0.0965237
0.20628
0.322027
0.443428
0.564241
0.665615
0.739936
0.793125
0.827137
0.84386
0.849151
0.849793
0.849555
0.849402
-0.337972
-0.326237
-0.281971
-0.209833
-0.121328
-0.0235498
0.0810747
0.192277
0.309826
0.433609
0.557708
0.663299
0.741946
0.798727
0.834677
0.851211
0.855016
0.854214
0.853417
0.853282
-0.35797
-0.34592
-0.300981
-0.228015
-0.138641
-0.0399487
0.0657276
0.178158
0.297218
0.423032
0.550074
0.659702
0.742925
0.803874
0.842639
0.859984
0.862648
0.85964
0.857236
0.856431
-0.377353
-0.365006
-0.319341
-0.24562
-0.155488
-0.0560007
0.0505659
0.164002
0.284314
0.411831
0.541402
0.654713
0.742644
0.808171
0.850498
0.870266
0.873585
0.869091
0.862757
0.854055
-0.396043
-0.38346
-0.33713
-0.262806
-0.172081
-0.0719764
0.0352606
0.149414
0.270676
0.399515
0.531181
0.647782
0.740645
0.811292
0.857594