/*--------------------------------*- C++ -*----------------------------------*\
| =========                 |                                                 |
| \\      /  F ield         | OpenFOAM: The Open Source CFD Toolbox           |
|  \\    /   O peration     | Version:  2306                                  |
|   \\  /    A nd           | Website:  www.openfoam.com                      |
|    \\/     M anipulation  |                                                 |
\*---------------------------------------------------------------------------*/
FoamFile
{
    version     2.0;
    format      ascii;
    arch        "LSB;label=32;scalar=64";
    class       surfaceScalarField;
    location    "60";
    object      phi;
}
// * * * * * * * * * * * * * * * * * * * * * * * * * * * * * * * * * * * * * //

dimensions      [0 3 -1 0 0 0 0];

oriented        oriented;

internalField   nonuniform List<scalar> 
17370
(
-0.0910986
0.0935448
0.286565
-0.0749538
0.0569536
0.364776
-0.0409368
0.029953
0.427152
-0.0211986
0.015599
0.504851
-0.0113499
0.00865107
0.602101
-0.00651926
0.00506678
0.72051
-0.0038478
0.0029762
0.863778
-0.00220823
0.00163253
1.03603
-0.00110247
0.000682239
1.24292
-0.000271761
-0.000122115
1.49158
0.000508178
-0.000921726
1.4916
0.00132547
-0.00182866
1.24319
0.00237644
-0.00311382
1.03638
0.00396149
-0.00516161
0.864107
0.00660352
-0.0087277
0.721182
0.0114196
-0.0156597
0.603455
0.0212499
-0.0299935
0.508183
0.0409669
-0.0569747
0.432176
0.0749703
-0.0935543
0.36536
0.0911119
0.197899
-0.127348
0.0881457
0.0392019
-0.364738
0.353791
-0.0726275
0.0835738
-0.446566
0.45437
-0.0817072
0.0739033
-0.520972
0.529526
-0.0657937
0.0572395
-0.612851
0.621018
-0.0494875
0.0413208
-0.727003
0.733791
-0.0343933
0.0276046
-0.867515
0.872453
-0.0222617
0.0173239
-1.03855
1.04191
-0.0136027
0.0102482
-1.24471
1.24713
-0.00769094
0.0052768
-1.49284
1.49486
-0.00330741
0.00128852
-1.49269
1.49451
0.000533095
-0.00235582
-1.2441
1.24602
0.00433311
-0.00624879
-1.0376
1.04008
0.00859144
-0.0110762
-0.866158
0.869807
0.0143477
-0.017996
-0.724479
0.729769
0.0228639
-0.0281542
-0.608886
0.615771
0.0348935
-0.0417786
-0.514989
0.522695
0.0498978
-0.0576044
-0.439772
0.447828
0.0661027
-0.0741586
-0.375154
0.377
0.0818972
-0.0837427
-0.256915
0.223417
0.0727451
-0.0392472
-0.0686553
0.0589263
0.00972899
-0.0520708
0.0587654
-0.374545
0.36785
-0.0578776
0.0540493
-0.453831
0.45766
-0.0486897
0.0443492
-0.527747
0.532087
-0.0401251
0.0363421
-0.621108
0.624891
-0.0321176
0.0280439
-0.734883
0.738956
-0.0235675
0.0195705
-0.874054
0.878051
-0.0154285
0.0119073
-1.0434
1.04693
-0.00833461
0.00526582
-1.24867
1.25174
-0.00202636
-0.000978034
-1.49695
1.49995
0.00396072
-0.00713873
-1.49743
1.50061
0.0101176
-0.0135681
-1.25009
1.25354
0.0169653
-0.0209647
-1.04572
1.04972
0.0248352
-0.0291856
-0.877314
0.881665
0.0331583
-0.0372849
-0.739308
0.743435
0.0409862
-0.0451279
-0.626338
0.63048
0.0493983
-0.0546896
-0.534932
0.540223
0.0584428
-0.0592358
-0.457916
0.458709
0.0524218
-0.0320428
-0.336389
0.31601
0.00978788
-0.0684984
0.0587105
-0.0531685
0.0491202
0.00404827
-0.0331592
0.0436483
-0.358382
0.347893
-0.0473619
0.0467723
-0.459518
0.460108
-0.0437927
0.0405207
-0.536033
0.539305
-0.0368076
0.0334699
-0.628456
0.631793
-0.0299015
0.0267464
-0.742271
0.745426
-0.0233901
0.0202157
-0.881591
0.884765
-0.0166101
0.0132234
-1.05041
1.0538
-0.0094796
0.00603354
-1.25504
1.25848
-0.00220019
-0.00145449
-1.50334
1.50699
0.00507767
-0.00881909
-1.50414
1.50788
0.0121394
-0.0157112
-1.25715
1.26073
0.0189215
-0.0223237
-1.05349
1.05689
0.0253172
-0.0284926
-0.885274
0.88845
0.0315022
-0.0349284
-0.746925
0.750351
0.0381472
-0.0417374
-0.634492
0.638082
0.0449032
-0.0477626
-0.544449
0.547308
0.0482263
-0.044336
-0.456873
0.452982
0.0336351
-0.0162679
-0.296634
0.279267
0.00411968
-0.0528887
0.048769
-0.046
0.0434764
0.00252363
-0.0229159
0.0332771
-0.337258
0.326897
-0.039053
0.0400341
-0.459823
0.458842
-0.0388128
0.0365098
-0.541981
0.544284
-0.0338651
0.0312989
-0.634795
0.637361
-0.0282876
0.0254238
-0.748497
0.75136
-0.022183
0.0191805
-0.887772
0.890774
-0.0158551
0.0127378
-1.05697
1.06009
-0.00918266
0.00576794
-1.26191
1.26532
-0.00183209
-0.00199361
-1.51076
1.51458
0.00577865
-0.0095904
-1.51169
1.5155
0.0128384
-0.0161681
-1.26419
1.26752
0.0190554
-0.0221153
-1.06005
1.06311
0.0248792
-0.0278774
-0.891593
0.894591
0.030542
-0.033357
-0.753536
0.756351
0.0357598
-0.0382393
-0.641081
0.64356
0.0404006
-0.0414354
-0.54912
0.550155
0.0402593
-0.0341985
-0.447779
0.441718
0.023526
-0.0102977
-0.264077
0.250848
0.00261147
-0.0455692
0.0429577
-0.0413799
0.0395954
0.00178452
-0.016848
0.0261174
-0.317036
0.307767
-0.0327203
0.0348504
-0.457263
0.455133
-0.0344223
0.0327352
-0.546292
0.547979
-0.0305285
0.0284181
-0.639667
0.641778
-0.025988
0.0236017
-0.753982
0.756368
-0.0207651
0.0180007
-0.893639
0.896404
-0.0148007
0.0117588
-1.06313
1.06617
-0.00829093
0.00497418
-1.26864
1.27196
-0.00113149
-0.00262272
-1.51836
1.52212
0.00632405
-0.010011
-1.51925
1.52293
0.0131174
-0.0163002
-1.27078
1.27396
0.01905
-0.021911
-1.06613
1.06899
0.0243674
-0.0268885
-0.897387
0.899908
0.0290167
-0.0311943
-0.758798
0.760975
0.0330965
-0.0350905
-0.645749
0.647743
0.0365709
-0.0367449
-0.550707
0.550881
0.0343155
-0.0272964
-0.435089
0.42807
0.0176087
-0.00744198
-0.239296
0.229129
0.00189181
-0.0407642
0.0388724
-0.0380584
0.0367168
0.00134157
-0.0128726
0.0208471
-0.299149
0.291174
-0.0276083
0.0305316
-0.452575
0.449652
-0.0307378
0.029615
-0.549415
0.550538
-0.0276179
0.0256952
-0.643827
0.64575
-0.0234881
0.0213493
-0.758607
0.760746
-0.0188401
0.0163642
-0.898966
0.901442
-0.0134299
0.010561
-1.06908
1.07195
-0.00721782
0.00399288
-1.2752
1.27842
-0.000255892
-0.00337364
-1.52578
1.52941
0.00693765
-0.0104793
-1.52654
1.53008
0.0134417
-0.0164293
-1.27707
1.28006
0.0189322
-0.0214405
-1.07171
1.07422
0.0235303
-0.0256441
-0.902213
0.904327
0.0274568
-0.0293424
-0.762991
0.764877
0.0310013
-0.0327429
-0.649589
0.651331
0.0335636
-0.0330023
-0.55069
0.550128
0.0296514
-0.0223207
-0.420837
0.413507
0.0138091
-0.00576158
-0.220123
0.212076
0.00147219
-0.037217
0.0357448
-0.0355448
0.0345112
0.00103368
-0.0100622
0.016809
-0.283838
0.277092
-0.0233122
0.0266929
-0.44648
0.4431
-0.0274765
0.0267814
-0.55144
0.552135
-0.0250183
0.0232346
-0.647645
0.649429
-0.0211689
0.0191582
-0.762819
0.764829
-0.0167924
0.0144708
-0.903772
0.906093
-0.0117387
0.00905713
-1.07466
1.07734
-0.00589969
0.00281776
-1.28153
1.28462
0.000780035
-0.0042768
-1.53295
1.53645
0.00769239
-0.0110489
-1.53352
1.53688
0.0138057
-0.016523
-1.28292
1.28564
0.0187538
-0.0209611
-1.0766
1.07881
0.0228053
-0.0246809
-0.906335
0.90821
0.0262873
-0.0279539
-0.76665
0.768316
0.0294106
-0.0308212
-0.652925
0.654335
0.0311406
-0.0298527
-0.549217
0.547929
0.0258831
-0.0186309
-0.40619
0.398938
0.0112095
-0.00464628
-0.204841
0.198278
0.00119255
-0.0344292
0.0332366
-0.0336032
0.0327977
0.000805514
-0.00797864
0.0136525
-0.27091
0.265237
-0.0196751
0.0232575
-0.439608
0.436026
-0.0245219
0.0240754
-0.55274
0.553186
-0.0225833
0.0209101
-0.651208
0.652882
-0.0189412
0.0170197
-0.766792
0.768713
-0.0147526
0.0125241
-0.908303
0.910532
-0.00989953
0.00733416
-1.07988
1.08245
-0.00432783
0.00139178
-1.28757
1.29051
0.00203868
-0.00536953
-1.53983
1.54316
0.00860232
-0.0117375
-1.54011
1.54324
0.0142749
-0.016745
-1.28824
1.29071
0.018759
-0.0207386
-1.08095
1.08293
0.0223795
-0.0240434
-0.910002
0.911666
0.0254681
-0.0269461
-0.769885
0.771363
0.0282126
-0.0292485
-0.655536
0.656572
0.029197
-0.0272439
-0.546313
0.54436
0.022875
-0.0158918
-0.391817
0.384834
0.00938066
-0.00387368
-0.192294
0.186787
0.000998618
-0.0321542
0.0311555
-0.0320898
0.0314606
0.000629105
-0.00637304
0.0111305
-0.260049
0.255291
-0.0165665
0.0201538
-0.432441
0.428853
-0.0217461
0.0215279
-0.553556
0.553774
-0.0202711
0.0186594
-0.654573
0.656184
-0.0167482
0.0148781
-0.770603
0.772473
-0.012673
0.0105068
-0.912653
0.914819
-0.00795672
0.00546724
-1.0849
1.08739
-0.00255866
-0.0002594
-1.29333
1.29615
0.00354063
-0.0067004
-1.54637
1.54953
0.00973833
-0.0126548
-1.54625
1.54916
0.0149947
-0.0172519
-1.29308
1.29534
0.0190705
-0.020834
-1.08486
1.08663
0.0222807
-0.0237469
-0.913256
0.914722
0.0250076
-0.0263149
-0.77275
0.774058
0.0274386
-0.0280603
-0.657388
0.65801
0.0276407
-0.0251297
-0.542144
0.539633
0.0205191
-0.0138729
-0.378031
0.371385
0.00808301
-0.00333295
-0.181698
0.176948
0.000863547
-0.0302356
0.0293721
-0.0309111
0.0304247
0.000486418
-0.00508214
0.00904981
-0.250955
0.246988
-0.0138548
0.0172985
-0.425346
0.421902
-0.0190791
0.0190549
-0.553938
0.553963
-0.017997
0.0164219
-0.657844
0.659419
-0.0145356
0.0126831
-0.774323
0.776175
-0.0104999
0.00836111
-0.916884
0.919023
-0.00585285
0.00341467
-1.08976
1.0922
-0.000577045
-0.00216238
-1.29886
1.3016
0.00531568
-0.0083221
-1.55257
1.55558
0.0111811
-0.0138951
-1.55195
1.55467
0.016047
-0.0180952
-1.2975
1.29955
0.019721
-0.0212733
-1.08836
1.08991
0.0225356
-0.0238198
-0.916125
0.91741
0.0249331
-0.0260851
-0.775279
0.776431
0.0270209
-0.0272686
-0.658434
0.658682
0.0264544
-0.0234729
-0.536904
0.533923
0.0187209
-0.012406
-0.364924
0.35861
0.00716881
-0.00295871
-0.172502
0.168292
0.000771575
-0.0285648
0.0277932
-0.0300058
0.0296399
0.000365937
-0.00400211
0.00727661
-0.243391
0.240116
-0.0114391
0.0146297
-0.418601
0.41541
-0.0164733
0.0166072
-0.553958
0.553825
-0.0156342
0.0141346
-0.66103
0.662529
-0.012246
0.0103795
-0.778019
0.779885
-0.0081813
0.00603629
-0.921066
0.923211
-0.0035336
0.00111214
-1.09454
1.09696
0.00168379
-0.00436245
-1.30425
1.30692
0.0074198
-0.0102984
-1.55848
1.56135
0.012998
-0.0155211
-1.55726
1.55978
0.01749
-0.0193331
-1.3015
1.30334
0.0207709
-0.0221166
-1.09146
1.0928
0.0231984
-0.0243064
-0.91864
0.919748
0.0252739
-0.0262566
-0.77749
0.778473
0.0269381
-0.0268951
-0.658804
0.658761
0.0256633
-0.0222669
-0.530751
0.527355
0.0174191
-0.011382
-0.35246
0.346423
0.00654847
-0.00271152
-0.164299
0.160462
0.000712953
-0.0270614
0.0263484
-0.0293343
0.0290757
0.000258618
-0.00305662
0.00570608
-0.237176
0.234527
-0.00922674
0.0120819
-0.412408
0.409553
-0.0138752
0.0140956
-0.553704
0.553484
-0.0131695
0.0117168
-0.664087
0.66554
-0.00980493
0.00789672
-0.781748
0.783657
-0.00564934
0.00346451
-0.925263
0.927448
-0.000929324
-0.001507
-1.09927
1.10171
0.00429971
-0.00694998
-1.30951
1.31216
0.00993848
-0.0127123
-1.56413
1.5669
0.0152694
-0.017612
-1.56218
1.56452
0.019403
-0.0210443
-1.30509
1.30673
0.0222945
-0.0234305
-1.09416
1.09529
0.0243272
-0.025256
-0.920808
0.921737
0.0260792
-0.0268901
-0.779359
0.780169
0.0272843
-0.0269736
-0.658578
0.658267
0.0252968
-0.0215047
-0.523781
0.519989
0.0165647
-0.0107243
-0.340521
0.334681
0.00616244
-0.00256457
-0.156775
0.153177
0.000680559
-0.0256629
0.0249823
-0.0288742
0.0287174
0.000156772
-0.00218186
0.00424511
-0.232192
0.230128
-0.00711957
0.00956953
-0.406925
0.404475
-0.0112051
0.0114338
-0.553327
0.553098
-0.0105219
0.00907836
-0.667085
0.668528
-0.00711647
0.00513697
-0.785566
0.787545
-0.00280523
0.000548272
-0.929541
0.931798
0.00205785
-0.00454245
-1.10406
1.10654
0.00736861
-0.0100192
-1.31473
1.31738
0.0129668
-0.0156542
-1.56958
1.57227
0.0180803
-0.0202487
-1.56674
1.56891
0.0218641
-0.0233019
-1.30827
1.3097
0.0243584
-0.0252704
-1.09646
1.09737
0.0259655
-0.0266985
-0.922613
0.923346
0.0273695
-0.0280378
-0.78087
0.781538
0.0281245
-0.0274449
-0.657734
0.657054
0.0253326
-0.0211509
-0.516045
0.511863
0.0160976
-0.0103656
-0.32894
0.323208
0.00596269
-0.00249688
-0.149678
0.146212
0.000668996
-0.0243196
0.0236506
-0.0286172
0.0285632
5.39481e-05
-0.00132956
0.00282156
-0.22837
0.226878
-0.00503639
0.00701831
-0.402287
0.400305
-0.00839354
0.00854915
-0.552988
0.552832
-0.00760543
0.00613574
-0.6701
0.67157
-0.00408547
0.00200337
-0.789528
0.79161
0.000449119
-0.00281744
-0.933963
0.936331
0.00553313
-0.00810443
-1.10894
1.11151
0.0110004
-0.0136836
-1.31995
1.32264
0.0166195
-0.0192397
-1.57486
1.57748
0.0215451
-0.0235412
-1.57095
1.57294
0.0249773
-0.0262044
-1.31103
1.31225
0.0270589
-0.027737
-1.09834
1.09902
0.0282199
-0.0287422
-0.924032
0.924555
0.0292494
-0.0297136
-0.782021
0.782485
0.0295151
-0.0284077
-0.656133
0.655026
0.0258224
-0.0212228
-0.507541
0.502942
0.0160047
-0.010278
-0.317535
0.311809
0.00592741
-0.00249874
-0.1428
0.139372
0.000675802
-0.0229916
0.0223158
-0.028566
0.0286218
-5.57935e-05
-0.000452467
0.00136834
-0.225691
0.224775
-0.00289653
0.0043463
-0.398619
0.397169
-0.00535937
0.00535751
-0.552854
0.552856
-0.00432592
0.00277658
-0.673217
0.674766
-0.000607564
-0.00161693
-0.793697
0.795921
0.00423877
-0.00675635
-0.938608
0.941125
0.0096271
-0.012324
-1.114
1.1167
0.0153307
-0.0180795
-1.32525
1.328
0.0210328
-0.0236044
-1.58001
1.58258
0.0257966
-0.0276177
-1.5748
1.57662
0.0288648
-0.0298679
-1.31335
1.31435
0.0305066
-0.0309408
-1.09977
1.1002
0.0312014
-0.0314973
-0.925033
0.925329
0.0318158
-0.032009
-0.78265
0.782843
0.0315328
-0.0298902
-0.653674
0.652031
0.0267921
-0.0217292
-0.498213
0.49315
0.0162751
-0.0104427
-0.306096
0.300264
0.00604203
-0.00256343
-0.135957
0.132478
0.000699092
-0.021643
0.0209439
-0.028733
0.0289037
-0.000170641
0.000467168
-0.000160384
-0.224179
0.223872
-0.00063241
0.00147021
-0.396047
0.395209
-0.00201073
0.00177038
-0.553104
0.553345
-0.000591229
-0.00110825
-0.676548
0.678247
0.00345623
-0.00587037
-0.798158
0.800572
0.00870961
-0.0114232
-0.943555
0.946268
0.0144989
-0.0173651
-1.11932
1.12219
0.0205261
-0.0233737
-1.33068
1.33353
0.026372
-0.0289084
-1.58506
1.5876
0.0309879
-0.0326224
-1.5783
1.57993
0.0336685
-0.0344278
-1.3152
1.31595
0.0348357
-0.0350099
-1.1007
1.10088
0.0350328
-0.0350844
-0.925573
0.925625
0.0352049
-0.0350517
-0.782652
0.782499
0.0342127
-0.0319704
-0.650194
0.647952
0.0282947
-0.0226916
-0.487951
0.482347
0.0169077
-0.0108483
-0.294395
0.288335
0.00629624
-0.0026856
-0.128976
0.125365
0.000737233
-0.0202415
0.0195043
-0.0291548
0.029468
-0.000313143
0.00147026
-0.00180727
-0.223918
0.224255
0.00185678
-0.00173852
-0.394696
0.394578
0.00179976
-0.00239151
-0.553955
0.554547
0.00379733
-0.00569047
-0.680236
0.682129
0.00827045
-0.010924
-0.802993
0.805646
0.0140383
-0.0170018
-0.948898
0.951861
0.0203405
-0.0234253
-1.12499
1.12807
0.0267877
-0.0297685
-1.33631
1.33929
0.0328371
-0.0353477
-1.59004
1.59255
0.0373088
-0.0387338
-1.5814
1.58283
0.0395568
-0.0400492
-1.31652
1.31701
0.0402063
-0.040097
-1.10109
1.10098
0.039857
-0.0396427
-0.925593
0.925378
0.0395565
-0.0389427
-0.781889
0.781275
0.0376526
-0.0347282
-0.645556
0.642631
0.0303862
-0.0241353
-0.476588
0.470337
0.0179063
-0.0114883
-0.282185
0.275767
0.00668285
-0.00286101
-0.121695
0.117873
0.000788773
-0.0187584
0.0179696
-0.0298526
0.0303415
-0.000488975
0.00274917
-0.00383424
-0.224981
0.226066
0.00474829
-0.00542531
-0.394796
0.395473
0.00620466
-0.00725794
-0.555631
0.556684
0.00897914
-0.0111404
-0.684378
0.686539
0.0140317
-0.0169934
-0.808309
0.811271
0.0204558
-0.0237332
-0.954746
0.958024
0.0273999
-0.030756
-1.1311
1.13446
0.0343676
-0.037513
-1.34222
1.34536
0.0406693
-0.0431515
-1.59496
1.59744
0.0449754
-0.0461652
-1.58407
1.58526
0.0467148
-0.0469187
-1.31726
1.31747
0.0467961
-0.0463709
-1.10085
1.10043
0.0458409
-0.0453376
-0.925025
0.924522
0.0449363
-0.0438737
-0.78021
0.779148
0.0420017
-0.0382629
-0.639573
0.635834
0.0331283
-0.0260862
-0.463896
0.456854
0.0192749
-0.0123559
-0.269201
0.262282
0.00719342
-0.00308415
-0.113958
0.109849
0.000851612
-0.017168
0.0163163
-0.0309016
0.0316095
-0.000707891
0.00423852
-0.00620954
-0.22757
0.229541
0.00818636
-0.00976543
-0.396553
0.398132
0.0113674
-0.0130014
-0.558394
0.560028
0.0151773
-0.0177039
-0.689138
0.691665
0.0210118
-0.0243655
-0.81425
0.817604
0.0282629
-0.0319284
-0.961232
0.964898
0.0359956
-0.0396781
-1.13776
1.14145
0.0435826
-0.0469138
-1.34845
1.35178
0.050157
-0.0525878
-1.5998
1.60223
0.0542347
-0.0551413
-1.58625
1.58715
0.0553738
-0.0552429
-1.31736
1.31723
0.0548031
-0.0540257
-1.09992
1.09915
0.0531759
-0.052344
-0.923809
0.922977
0.0515348
-0.0499654
-0.777629
0.77606
0.0473746
-0.0426646
-0.631983
0.627273
0.0365779
-0.0285649
-0.449579
0.441566
0.0210112
-0.0134379
-0.255153
0.24758
0.00781445
-0.00334664
-0.105615
0.101147
0.000922717
-0.0154488
0.0145261
-0.0323831
0.0333784
-0.000995291
0.00611738
-0.00914185
-0.231937
0.234962
0.0123777
-0.0150136
-0.400235
0.402871
0.0175822
-0.0199245
-0.562522
0.564864
0.022696
-0.025711
-0.69472
0.697735
0.0295633
-0.0334116
-0.820987
0.824835
0.0378467
-0.0419835
-0.968506
0.972642
0.046528
-0.0505885
-1.14508
1.14914
0.0548173
-0.0583363
-1.35503
1.35855
0.0616389
-0.063966
-1.6045
1.60683
0.0653683
-0.0659097
-1.58781
1.58835
0.0657666
-0.0652303
-1.31667
1.31613
0.0644363
-0.0632567
-1.09821
1.09703
0.0620464
-0.0608808
-0.921859
0.920693
0.0595398
-0.0573618
-0.774022
0.771844
0.0539048
-0.0480146
-0.622453
0.616562
0.0407684
-0.0315633
-0.433269
0.424064
0.0230864
-0.0147001
-0.239737
0.23135
0.00851821
-0.00363311
-0.0965299
0.0916448
0.000996806
-0.0135872
0.0125903
-0.0344255
0.035818
-0.00139247
0.00857366
-0.0129475
-0.238403
0.242777
0.017671
-0.0215403
-0.406211
0.41008
0.0252409
-0.028442
-0.568344
0.571545
0.0319861
-0.0356464
-0.701392
0.705052
0.0402044
-0.0446769
-0.828719
0.833192
0.0497655
-0.0544575
-0.976734
0.981426
0.0595439
-0.0640103
-1.15315
1.15762
0.0685572
-0.0722248
-1.36196
1.36563
0.0755083
-0.0776327
-1.60895
1.61107
0.0786811
-0.0787472
-1.58858
1.58865
0.078148
-0.0770796
-1.31503
1.31397
0.0758661
-0.0742554
-1.09559
1.09398
0.0726693
-0.0710809
-0.919139
0.91755
0.0691852
-0.0662431
-0.769162
0.76622
0.0617017
-0.0543561
-0.610548
0.603203
0.0456914
-0.035033
-0.414523
0.403865
0.0254363
-0.0160822
-0.222641
0.213287
0.00926003
-0.00392049
-0.0865966
0.0812571
0.00106647
-0.0115803
0.0105138
-0.037226
0.0391811
-0.00195516
0.0119883
-0.0180789
-0.247491
0.253582
0.0245992
-0.0299134
-0.414976
0.420291
0.0349563
-0.0392085
-0.576255
0.580507
0.0437391
-0.0482476
-0.709488
0.713996
0.0537136
-0.058954
-0.8377
0.842941
0.0648112
-0.0701229
-0.986081
0.991392
0.0757731
-0.0806188
-1.16201
1.16685
0.0854041
-0.089106
-1.36912
1.37282
0.0922072
-0.0939544
-1.61288
1.61463
0.0944775
-0.0939087
-1.58832
1.58775
0.0927329
-0.0910314
-1.31229
1.31058
0.0893058
-0.0872316
-1.09195
1.08988
0.0852477
-0.0830848
-0.915436
0.913273
0.0806526
-0.0766962
-0.762654
0.758698
0.0707982
-0.061658
-0.595703
0.586563
0.0512636
-0.0388556
-0.392828
0.38042
0.027938
-0.0174822
-0.203577
0.193121
0.00996988
-0.00417482
-0.0757596
0.0699646
0.00112131
-0.00944186
0.00832055
-0.0411037
0.0439324
-0.00282878
0.01696
-0.0253055
-0.259932
0.268278
0.0340541
-0.0411059
-0.427203
0.434255
0.0477828
-0.0533138
-0.586741
0.592271
0.0591099
-0.0647199
-0.71943
0.72504
0.0713092
-0.0774374
-0.848197
0.854325
0.0841177
-0.0900294
-0.996645
1.00256
0.0961512
-0.101234
-1.17153
1.17661
0.106046
-0.109552
-1.37621
1.37972
0.112189
-0.113289
-1.61592
1.61702
0.113037
-0.111612
-1.58667
1.58524
0.109692
-0.107247
-1.30821
1.30576
0.104919
-0.10231
-1.08719
1.08458
0.0998947
-0.0970485
-0.910395
0.907548
0.0939688
-0.0887078
-0.753983
0.748722
0.0811163
-0.0697665
-0.577204
0.565854
0.0572823
-0.0428106
-0.367621
0.353149
0.0303885
-0.0187463
-0.182322
0.170679
0.0105484
-0.00435074
-0.0640477
0.05785
0.00114804
-0.00720722
0.00605917
-0.046635
0.0509405
-0.00430544
0.0246549
-0.0360689
-0.276891
0.288305
0.0477103
-0.0570767
-0.443913
0.453279
0.0657703
-0.0727911
-0.600403
0.607423
0.0801291
-0.087228
-0.731599
0.738698
0.0949884
-0.101921
-0.860406
0.867338
0.109253
-0.115542
-1.0083
1.01459
0.121816
-0.126794
-1.18136
1.18634
0.13122
-0.134136
-1.38271
1.38563
0.135872
-0.135939
-1.61746
1.61753
0.134576
-0.132021
-1.58315
1.5806
0.129171
-0.12583
-1.30255
1.29921
0.122814
-0.119607
-1.08116
1.07795
0.116675
-0.113093
-0.903832
0.90025
0.109074
-0.102105
-0.74251
0.735542
0.0923738
-0.0783232
-0.554151
0.5401
0.0633727
-0.0465563
-0.338337
0.321521
0.0325043
-0.0196776
-0.158799
0.145972
0.0108753
-0.00439612
-0.0516148
0.0451356
0.00113156
-0.00493706
0.0038055
-0.0548876
0.0622692
-0.00738155
0.038125
-0.0540159
-0.300515
0.316406
0.0697244
-0.0823082
-0.46677
0.479354
0.0931904
-0.101578
-0.617684
0.626071
0.110428
-0.118786
-0.746368
0.754725
0.127439
-0.134752
-0.874028
0.881342
0.142148
-0.148207
-1.02044
1.0265
0.153954
-0.158189
-1.19066
1.19489
0.161559
-0.16327
-1.38771
1.38942
0.163519
-0.162079
-1.61666
1.61522
0.159236
-0.155251
-1.57723
1.57324
0.151238
-0.146806
-1.29499
1.29056
0.142993
-0.13916
-1.07366
1.06983
0.135574
-0.131154
-0.895554
0.891134
0.125762
-0.116486
-0.727281
0.718005
0.103982
-0.0866265
-0.525421
0.508066
0.0689035
-0.0496374
-0.304515
0.285249
0.0339856
-0.0201255
-0.133194
0.119334
0.0108782
-0.00428715
-0.0387875
0.0321964
0.00106116
-0.00272008
0.00165892
-0.0691426
0.0732341
-0.0040915
0.029143
-0.0429548
-0.334792
0.348604
0.0569087
-0.0684856
-0.497214
0.508791
0.0788039
-0.0884011
-0.638164
0.647762
0.0990603
-0.108833
-0.762615
0.772388
0.119669
-0.129284
-0.887749
0.897364
0.139493
-0.148534
-1.03161
1.04065
0.157916
-0.165877
-1.19803
1.20599
0.173665
-0.179721
-1.38995
1.396
0.184864
-0.187872
-1.61255
1.61556
0.188716
-0.187967
-1.56821
1.56746
0.186145
-0.183491
-1.28516
1.28251
0.181165
-0.178405
-1.06449
1.06173
0.175844
-0.171529
-0.884951
0.880636
0.16404
-0.150306
-0.706936
0.693202
0.131589
-0.106654
-0.489831
0.464896
0.0824786
-0.0573426
-0.265937
0.240801
0.0380474
-0.0218158
-0.106113
0.0898817
0.0114453
-0.00438152
-0.0261062
0.0190424
0.0010602
-0.000658375
-0.000401824
-0.0805352
0.0785536
0.00198157
0.00742721
-0.0165386
-0.365149
0.374261
0.027158
-0.0353666
-0.525015
0.533223
0.043624
-0.0516722
-0.659905
0.667953
0.0614787
-0.0706049
-0.781776
0.790902
0.0803077
-0.089137
-0.906403
0.915232
0.0984752
-0.106397
-1.04939
1.05732
0.114787
-0.121524
-1.21373
1.22046
0.128029
-0.13276
-1.4017
1.40643
0.136148
-0.137565
-1.61768
1.6191
0.136817
-0.134447
-1.56592
1.56355
0.131006
-0.126625
-1.27912
1.27474
0.122615
-0.118232
-1.0568
1.05241
0.114042
-0.108383
-0.871448
0.865788
0.100414
-0.0882085
-0.675569
0.663363
0.0739176
-0.0567835
-0.438463
0.421329
0.0417631
-0.027806
-0.216082
0.202125
0.0179477
-0.0101462
-0.0746972
0.0668957
0.00533745
-0.00208757
-0.0123618
0.0091119
0.000446011
0.00151956
-0.00196557
-0.0819441
0.0790097
0.00293438
-0.00173666
-0.00351798
-0.385669
0.390924
0.0107384
-0.0166635
-0.545553
0.551478
0.0227526
-0.0298116
-0.678211
0.68527
0.0382969
-0.0462165
-0.799131
0.807051
0.0548527
-0.0625463
-0.923299
0.930993
0.0704268
-0.0774615
-1.06504
1.07208
0.0846812
-0.0905366
-1.22673
1.23258
0.0956934
-0.0991607
-1.41043
1.4139
0.101447
-0.101615
-1.61971
1.61988
0.0996298
-0.0960242
-1.56046
1.55685
0.0915874
-0.0863213
-1.26998
1.26471
0.0810598
-0.0754431
-1.04625
1.04063
0.0701038
-0.0636706
-0.856096
0.849663
0.0564543
-0.0465107
-0.647988
0.638045
0.0362953
-0.0254117
-0.402553
0.391669
0.0173325
-0.0109175
-0.187687
0.181272
0.006952
-0.00410243
-0.0590773
0.0562278
0.00229377
-0.00091684
-0.00586971
0.00449278
0.000197639
0.00261059
-0.00280823
-0.0806629
0.0778838
0.00277911
-0.00538349
0.00287579
-0.39934
0.401848
0.00176629
-0.00624668
-0.56069
0.56517
0.0113994
-0.0173229
-0.693305
0.699228
0.0245632
-0.031332
-0.814324
0.821093
0.0386971
-0.0452809
-0.938142
0.944726
0.0523951
-0.0583259
-1.07866
1.08459
0.0645761
-0.0691563
-1.23799
1.24257
0.0734238
-0.0761043
-1.41708
1.41976
0.0773745
-0.076429
-1.61951
1.61856
0.0737659
-0.0695074
-1.55259
1.54834
0.0644904
-0.0582367
-1.25902
1.25277
0.0523705
-0.0459743
-1.0337
1.0273
0.0397715
-0.0331267
-0.839814
0.83317
0.0265368
-0.0189173
-0.625028
0.617408
0.0121712
-0.00649989
-0.379744
0.374073
0.00337819
-0.00164111
-0.173696
0.171959
0.000928278
-0.000706799
-0.0524536
0.0522322
0.000515238
-0.000200396
-0.00288379
0.00256895
3.00211e-05
0.00328299
-0.00331302
-0.0791234
0.0766617
0.0024617
-0.00652271
0.00563494
-0.408419
0.409306
-0.00225012
-0.000934787
-0.572838
0.576023
0.00513757
-0.0105289
-0.705948
0.711339
0.0166069
-0.0225356
-0.827157
0.833086
0.0288966
-0.0345921
-0.950838
0.956533
0.0406593
-0.0458945
-1.09036
1.0956
0.051123
-0.0552453
-1.24697
1.25109
0.0587632
-0.060804
-1.42202
1.42406
0.0614193
-0.0599088
-1.61736
1.61585
0.0567487
-0.0518337
-1.5433
1.53839
0.0464477
-0.0399528
-1.24634
1.23984
0.0337132
-0.0267017
-1.01992
1.01291
0.0202521
-0.0134222
-0.82383
0.817
0.00764594
-0.00175377
-0.607169
0.601277
-0.00243333
0.00478682
-0.366302
0.363949
-0.00510015
0.00431154
-0.168249
0.169038
-0.00317896
0.00189979
-0.0512317
0.0525109
-0.000985085
0.000412321
-0.00220345
0.00277622
-0.000118734
0.00360049
-0.00348175
-0.0776877
0.0755746
0.00211305
-0.00642519
0.00605677
-0.4146
0.414969
-0.00405553
0.00150206
-0.582133
0.584687
0.00253663
-0.00714085
-0.716648
0.721252
0.0123557
-0.0174932
-0.838219
0.843356
0.0231363
-0.0282085
-0.961862
0.966934
0.0337289
-0.0382771
-1.10054
1.10508
0.0429224
-0.046556
-1.25489
1.25853
0.0495306
-0.0511239
-1.42578
1.42738
0.0512847
-0.0497916
-1.61418
1.61269
0.04633
-0.0413588
-1.53299
1.52801
0.0358171
-0.0291651
-1.23309
1.22644
0.0230168
-0.0157413
-1.00536
0.998084
0.00915395
-0.00246168
-0.808328
0.801636
-0.00269408
0.00733591
-0.59285
0.588208
-0.0102412
0.0111384
-0.358778
0.357881
-0.00994451
0.00794853
-0.167878
0.169874
-0.00599098
0.00380065
-0.0531591
0.0553494
-0.00213071
0.000877666
-0.00334281
0.00459585
-0.000237508
0.00351458
-0.00327707
-0.076579
0.0749247
0.00165425
-0.00557089
0.00554777
-0.41915
0.419173
-0.00395573
0.00205296
-0.590201
0.592104
0.00169891
-0.00585646
-0.725874
0.730032
0.0107936
-0.0152039
-0.848083
0.852494
0.0201437
-0.0246203
-0.971956
0.976432
0.0298294
-0.0339281
-1.10965
1.11375
0.0380056
-0.041386
-1.26195
1.26533
0.0444319
-0.0457829
-1.42895
1.4303
0.0458799
-0.044206
-1.61076
1.60908
0.0410144
-0.0358233
-1.52281
1.51762
0.0305112
-0.0241176
-1.21961
1.21322
0.0179484
-0.0110269
-0.990636
0.983714
0.00456203
0.00201112
-0.793401
0.786828
-0.00669378
0.0107481
-0.580697
0.576643
-0.0131766
0.0135247
-0.354107
0.353759
-0.0121236
0.00978936
-0.169971
0.172306
-0.00748325
0.00489061
-0.0569265
0.0595191
-0.00283979
0.00118984
-0.0057209
0.00737085
-0.000329712
0.00311741
-0.00278769
-0.0759691
0.0746662
0.00130294
-0.00451476
0.00462655
-0.42272
0.422608
-0.003243
0.0014356
-0.597194
0.599001
0.00216517
-0.00586196
-0.734135
0.737832
0.0100778
-0.014315
-0.856833
0.86107
0.0188566
-0.0234472
-0.980695
0.985285
0.0278989
-0.0317847
-1.11792
1.12181
0.0359528
-0.0390495
-1.26857
1.27166
0.0415663
-0.0432739
-1.43153
1.43324
0.0434766
-0.042006
-1.60744
1.60597
0.0388896
-0.0341851
-1.51262
1.50792
0.0291279
-0.0230145
-1.20654
1.20043
0.0172069
-0.0105864
-0.976583
0.969963
0.00443446
0.00174406
-0.779241
0.773062
-0.00661742
0.0102188
-0.5697
0.566099
-0.0123121
0.0129906
-0.350701
0.350023
-0.0120095
0.00984684
-0.172616
0.174779
-0.00766035
0.0051223
-0.0612848
0.0638228
-0.00305366
0.00130946
-0.00871016
0.0104544
-0.000385976
0.00252979
-0.00214381
-0.075883
0.0747984
0.00108466
-0.00325441
0.00314227
-0.425899
0.426011
-0.00203634
0.000291419
-0.603595
0.60534
0.00318743
-0.00675324
-0.741784
0.74535
0.0107795
-0.0145948
-0.865073
0.868888
0.019232
-0.0230132
-0.989278
0.993059
0.0274102
-0.0310926
-1.12583
1.12952
0.0351171
-0.038379
-1.27472
1.27798
0.0411464
-0.0426002
-1.43469
1.43614
0.0430993
-0.0419832
-1.60441
1.60329
0.0394631
-0.0350413
-1.50312
1.49869
0.0304187
-0.0247291
-1.19448
1.18879
0.019345
-0.0130924
-0.963121
0.956868
0.00743024
-0.00141189
-0.76596
0.759942
-0.0033599
0.00711782
-0.559556
0.555798
-0.00924906
0.0101244
-0.34712
0.346244
-0.00981529
0.00833164
-0.174728
0.176211
-0.00665524
0.00456355
-0.0653654
0.0674571
-0.00279364
0.00125486
-0.0117214
0.0132601
-0.0003743
0.00185539
-0.00148109
-0.0760793
0.0753259
0.000753373
-0.00211126
0.00155516
-0.429153
0.429709
-0.000621486
-0.00139327
-0.609139
0.611154
0.00445163
-0.00785112
-0.748906
0.752306
0.0116929
-0.0156242
-0.872546
0.876477
0.0196277
-0.023555
-0.997028
1.00096
0.027898
-0.0313564
-1.13361
1.13707
0.0354528
-0.0386518
-1.28103
1.28423
0.0414581
-0.0434229
-1.43799
1.43996
0.0443895
-0.0435431
-1.60221
1.60136
0.0412692
-0.0375867
-1.49449
1.4908
0.0335445
-0.0282809
-1.18307
1.1778
0.0232257
-0.0176378
-0.950584
0.944996
0.0120283
-0.00651467
-0.753225
0.747711
0.00177284
0.00235391
-0.549824
0.545697
-0.00462669
0.00595631
-0.342892
0.341563
-0.00625
0.00568521
-0.175779
0.176344
-0.00469136
0.00333456
-0.0684249
0.0697817
-0.00211828
0.000988919
-0.0142183
0.0153476
-0.000302637
0.00122447
-0.00092183
-0.0766967
0.0761118
0.000584897
-0.00114361
0.000685007
-0.432628
0.433087
0.000881119
-0.00279694
-0.614872
0.616788
0.00599564
-0.00925291
-0.755486
0.758743
0.0129326
-0.0164509
-0.880057
0.883575
0.0205671
-0.0241703
-1.00487
1.00847
0.0284528
-0.0323385
-1.14096
1.14485
0.0360657
-0.0395863
-1.28746
1.29098
0.0428064
-0.0448576
-1.44181
1.44386
0.0461943
-0.0461342
-1.60074
1.60068
0.0443273
-0.0413082
-1.48703
1.48402
0.0375309
-0.0328068
-1.17266
1.16794
0.0282681
-0.022981
-0.939056
0.933769
0.0178834
-0.0125624
-0.741328
0.736007
0.00789634
-0.00337988
-0.539863
0.535346
0.000512476
0.00134673
-0.337805
0.335946
-0.00238954
0.00263484
-0.175255
0.17501
-0.0023883
0.00182037
-0.0699939
0.0705618
-0.00122591
0.000611168
-0.0158567
0.0164714
-0.000198303
0.000742022
-0.000543719
-0.0775948
0.0772
0.000394769
-0.000129044
-0.00057817
-0.436224
0.436931
0.00209193
-0.00431239
-0.620233
0.622454
0.00741681
-0.0105038
-0.76182
0.764907
0.0142658
-0.0176283
-0.887057
0.890419
0.0215803
-0.0253007
-1.01254
1.01626
0.0294823
-0.0333298
-1.14857
1.15242
0.0372766
-0.0408231
-1.29441
1.29795
0.0442298
-0.0470307
-1.44619
1.44899
0.0488158
-0.0490628
-1.60056
1.6008
0.0479632
-0.0452934
-1.48091
1.47824
0.0421104
-0.0380014
-1.16324
1.15913
0.0336332
-0.028724
-0.928275
0.923366
0.0239376
-0.0186548
-0.729992