/*--------------------------------*- C++ -*----------------------------------*\
| =========                 |                                                 |
| \\      /  F ield         | OpenFOAM: The Open Source CFD Toolbox           |
|  \\    /   O peration     | Version:  2306                                  |
|   \\  /    A nd           | Website:  www.openfoam.com                      |
|    \\/     M anipulation  |                                                 |
\*---------------------------------------------------------------------------*/
FoamFile
{
    version     2.0;
    format      ascii;
    arch        "LSB;label=32;scalar=64";
    class       volVectorField;
    location    "60";
    object      U;
}
// * * * * * * * * * * * * * * * * * * * * * * * * * * * * * * * * * * * * * //

dimensions      [0 1 -1 0 0 0 0];

internalField   nonuniform List<vector> 
8800
(
(0.984957 -0.0884522 0)
(1.00213 -0.0568256 0)
(0.99965 -0.0305588 0)
(0.999994 -0.0158665 0)
(1.00007 -0.00872663 0)
(1.00008 -0.0050917 0)
(1.00006 -0.00300262 0)
(1.00002 -0.00169106 0)
(0.999999 -0.000785867 0)
(1.00006 -8.32114e-05 0)
(0.999987 0.000629939 0)
(0.999994 0.00138907 0)
(1.00002 0.00241571 0)
(1.00004 0.0040101 0)
(1.00004 0.00671633 0)
(1.00001 0.0117401 0)
(0.999833 0.0220506 0)
(0.999166 0.0411659 0)
(1.00748 0.0768943 0)
(0.773654 0.0450713 0)
(0.361007 -0.0151711 0)
(1.04557 -0.0741999 0)
(1.0871 -0.0678882 0)
(1.04775 -0.0522998 0)
(1.02458 -0.0383975 0)
(1.0124 -0.0261209 0)
(1.0065 -0.0167722 0)
(1.00363 -0.0102499 0)
(1.00219 -0.00559576 0)
(1.00152 -0.00198092 0)
(1.00139 0.0012535 0)
(1.00173 0.00458082 0)
(1.0027 0.00848942 0)
(1.00472 0.0138241 0)
(1.00881 0.0215434 0)
(1.01734 0.0323573 0)
(1.03444 0.0456941 0)
(1.06547 0.0597994 0)
(1.09407 0.0729195 0)
(0.842199 0.0557159 0)
(0.217086 -0.00164644 0)
(1.07586 -0.0503549 0)
(1.09983 -0.048716 0)
(1.06465 -0.0401677 0)
(1.03998 -0.0330075 0)
(1.0238 -0.0257098 0)
(1.01402 -0.018316 0)
(1.00853 -0.0115734 0)
(1.00567 -0.00575519 0)
(1.00448 -0.000424702 0)
(1.00479 0.00472154 0)
(1.00663 0.0100525 0)
(1.01056 0.0160942 0)
(1.01786 0.022993 0)
(1.03049 0.0302424 0)
(1.05063 0.0372374 0)
(1.08034 0.0445731 0)
(1.10617 0.0517843 0)
(0.942793 0.0413396 0)
(0.216444 0.00166836 0)
(0.175915 -0.000645354 0)
(1.01869 -0.0354104 0)
(1.10558 -0.0414196 0)
(1.07812 -0.0362571 0)
(1.05288 -0.030234 0)
(1.03561 -0.0245079 0)
(1.02358 -0.0187683 0)
(1.01565 -0.012729 0)
(1.01099 -0.00657365 0)
(1.00893 -0.000286625 0)
(1.00945 0.00591357 0)
(1.01255 0.0118754 0)
(1.01859 0.0176815 0)
(1.02832 0.0232375 0)
(1.04264 0.028648 0)
(1.06335 0.0343003 0)
(1.09375 0.0402631 0)
(1.09409 0.0418876 0)
(0.828743 0.0227929 0)
(0.174826 0.000668554 0)
(0.15437 -0.000487223 0)
(0.957333 -0.0255551 0)
(1.1041 -0.0350922 0)
(1.08796 -0.0326517 0)
(1.06145 -0.0281039 0)
(1.04357 -0.0231079 0)
(1.03114 -0.0178337 0)
(1.02244 -0.0123113 0)
(1.01679 -0.0063876 0)
(1.01409 9.68869e-05 0)
(1.01472 0.00658384 0)
(1.01855 0.0124701 0)
(1.02543 0.01776 0)
(1.03564 0.0227058 0)
(1.0503 0.0275039 0)
(1.07198 0.0319763 0)
(1.10066 0.0358519 0)
(1.06906 0.0339898 0)
(0.741115 0.0143738 0)
(0.15273 0.000513051 0)
(0.139847 -0.000358444 0)
(0.90038 -0.0192107 0)
(1.09647 -0.0301473 0)
(1.09608 -0.0292687 0)
(1.0691 -0.0255202 0)
(1.0504 -0.0214206 0)
(1.03745 -0.0166882 0)
(1.02841 -0.0114275 0)
(1.0224 -0.0057015 0)
(1.01936 0.00066255 0)
(1.01996 0.00703856 0)
(1.02398 0.0126814 0)
(1.03105 0.0176389 0)
(1.04156 0.0220947 0)
(1.05683 0.0260419 0)
(1.07942 0.0295223 0)
(1.10291 0.0321898 0)
(1.0371 0.0281417 0)
(0.674422 0.0102607 0)
(0.137532 0.000388745 0)
(0.1292 -0.000273946 0)
(0.850637 -0.0148378 0)
(1.08409 -0.0260442 0)
(1.10176 -0.0263735 0)
(1.07594 -0.0230696 0)
(1.05673 -0.0194246 0)
(1.04333 -0.0152118 0)
(1.03393 -0.0103233 0)
(1.02766 -0.00480913 0)
(1.02441 0.00136368 0)
(1.02488 0.00751278 0)
(1.02888 0.0128747 0)
(1.03608 0.0174244 0)
(1.04688 0.0212736 0)
(1.06254 0.0245908 0)
(1.08556 0.0275851 0)
(1.10206 0.0293703 0)
(1.00227 0.0236243 0)
(0.622448 0.00788282 0)
(0.126065 0.000310485 0)
(0.121079 -0.000211303 0)
(0.808296 -0.0116684 0)
(1.06879 -0.0224485 0)
(1.10529 -0.023749 0)
(1.08219 -0.0208815 0)
(1.06254 -0.0174559 0)
(1.04886 -0.0135352 0)
(1.0392 -0.00897794 0)
(1.03266 -0.00373709 0)
(1.02917 0.00220551 0)
(1.02948 0.00808788 0)
(1.03342 0.0130989 0)
(1.04068 0.0171862 0)
(1.05158 0.0205473 0)
(1.06747 0.0234671 0)
(1.09085 0.0261559 0)
(1.09834 0.0270396 0)
(0.967053 0.0200752 0)
(0.580688 0.0063354 0)
(0.116945 0.000255549 0)
(0.114782 -0.000163181 0)
(0.772615 -0.00929617 0)
(1.05196 -0.0192831 0)
(1.10764 -0.0213213 0)
(1.08806 -0.0188331 0)
(1.068 -0.0155628 0)
(1.05408 -0.0118079 0)
(1.04422 -0.0074573 0)
(1.03745 -0.00246004 0)
(1.03369 0.00322149 0)
(1.03378 0.00879527 0)
(1.0376 0.0134264 0)
(1.04479 0.0171054 0)
(1.05571 0.0200857 0)
(1.07181 0.02268 0)
(1.09488 0.0250284 0)
(1.09179 0.0251039 0)
(0.932773 0.0173313 0)
(0.546139 0.00527573 0)
(0.109436 0.000216783 0)
(0.109867 -0.000124941 0)
(0.74266 -0.00745672 0)
(1.03467 -0.016477 0)
(1.10904 -0.0190374 0)
(1.09363 -0.0168622 0)
(1.07328 -0.0136902 0)
(1.05908 -0.0100326 0)
(1.04903 -0.00580744 0)
(1.04204 -0.000984428 0)
(1.03801 0.00444549 0)
(1.03781 0.00969524 0)
(1.0414 0.0139638 0)
(1.04846 0.0172814 0)
(1.05936 0.019915 0)
(1.07567 0.0222191 0)
(1.09763 0.0242015 0)
(1.08281 0.0235113 0)
(0.900012 0.0152427 0)
(0.516748 0.0045359 0)
(0.103049 0.000189796 0)
(0.106047 -9.33155e-05 0)
(0.717611 -0.00597486 0)
(1.01775 -0.0139586 0)
(1.1096 -0.0168309 0)
(1.09909 -0.0149385 0)
(1.07847 -0.0117839 0)
(1.06397 -0.00816376 0)
(1.05371 -0.00400793 0)
(1.04647 0.000698172 0)
(1.04211 0.00591527 0)
(1.04156 0.0108607 0)
(1.04485 0.014788 0)
(1.05173 0.01776 0)
(1.0626 0.0200561 0)
(1.07909 0.0220969 0)
(1.09903 0.0236861 0)
(1.07178 0.0222566 0)
(0.868891 0.0136936 0)
(0.491055 0.00402479 0)
(0.0974389 0.000172019 0)
(0.103131 -6.59915e-05 0)
(0.696826 -0.00473354 0)
(1.00181 -0.0116612 0)
(1.10947 -0.014665 0)
(1.10439 -0.0129751 0)
(1.08365 -0.00979174 0)
(1.06884 -0.00615263 0)
(1.0583 -0.00200641 0)
(1.05077 0.00263252 0)
(1.04602 0.00768337 0)
(1.04504 0.0123549 0)
(1.04796 0.0159553 0)
(1.05462 0.018591 0)
(1.06543 0.020551 0)
(1.08207 0.0223355 0)
(1.09944 0.0235104 0)
(1.05898 0.0213527 0)
(0.839258 0.012596 0)
(0.467969 0.00368706 0)
(0.0923464 0.000161625 0)
(0.100998 -4.08759e-05 0)
(0.679831 -0.00364474 0)
(0.98731 -0.00951427 0)
(1.10886 -0.0124536 0)
(1.10949 -0.0108875 0)
(1.08891 -0.00765472 0)
(1.07374 -0.00393991 0)
(1.06289 0.000260949 0)
(1.05499 0.00488398 0)
(1.04977 0.00981877 0)
(1.04826 0.0142447 0)
(1.05074 0.0175251 0)
(1.05713 0.019824 0)
(1.06786 0.0214459 0)
(1.08455 0.0229554 0)
(1.09885 0.0237179 0)
(1.04459 0.0208145 0)
(0.810798 0.0118786 0)
(0.446643 0.00348414 0)
(0.0875695 0.000156941 0)
(0.0995861 -1.61183e-05 0)
(0.666321 -0.00263916 0)
(0.974605 -0.00744313 0)
(1.10808 -0.010137 0)
(1.11453 -0.00861373 0)
(1.09431 -0.00529525 0)
(1.07876 -0.00144198 0)
(1.06754 0.00287124 0)
(1.05918 0.00753984 0)
(1.05337 0.0124055 0)
(1.05122 0.016607 0)
(1.05318 0.0195705 0)
(1.05925 0.0215224 0)
(1.06987 0.0227813 0)
(1.08658 0.024028 0)
(1.09703 0.0243374 0)
(1.02867 0.02062 0)
(0.783098 0.0114822 0)
(0.426385 0.00338959 0)
(0.0829462 0.000156897 0)
(0.0988772 1.03867e-05 0)
(0.656142 -0.00166283 0)
(0.96401 -0.0053761 0)
(1.10746 -0.00765212 0)
(1.11965 -0.00608064 0)
(1.09994 -0.00262766 0)
(1.08397 0.00142813 0)
(1.0723 0.00591807 0)
(1.06339 0.0106991 0)
(1.05686 0.0155421 0)
(1.05395 0.0195362 0)
(1.05528 0.022178 0)
(1.06096 0.0237662 0)
(1.07145 0.0246403 0)
(1.08808 0.0255911 0)
(1.09394 0.0253984 0)
(1.0112 0.0208063 0)
(0.755704 0.0113812 0)
(0.406624 0.00338977 0)
(0.078344 0.000160975 0)
(0.098893 3.57857e-05 0)
(0.649264 -0.000667906 0)
(0.955826 -0.00323968 0)
(1.10733 -0.00492577 0)
(1.12498 -0.00320105 0)
(1.10589 0.000446163 0)
(1.08946 0.00477546 0)
(1.07726 0.00951816 0)
(1.06767 0.014479 0)
(1.06028 0.0193462 0)
(1.05644 0.0231456 0)
(1.05702 0.02545 0)
(1.06223 0.0266499 0)
(1.07255 0.0271224 0)
(1.08882 0.0277093 0)
(1.08935 0.0269224 0)
(0.992049 0.0213969 0)
(0.728102 0.0115565 0)
(0.386835 0.00347553 0)
(0.0736414 0.000168696 0)
(0.0996666 7.22779e-05 0)
(0.645763 0.00035243 0)
(0.950368 -0.000958796 0)
(1.10805 -0.00187318 0)
(1.13075 0.000123729 0)
(1.11228 0.00404354 0)
(1.09534 0.0087332 0)
(1.08249 0.0138114 0)
(1.07207 0.0190229 0)
(1.06363 0.0239584 0)
(1.05868 0.0275665 0)
(1.05836 0.0295059 0)
(1.06302 0.0302956 0)
(1.07314 0.0303394 0)
(1.08868 0.0305054 0)
(1.08308 0.0289836 0)
(0.970967 0.0224242 0)
(0.699733 0.0119993 0)
(0.366533 0.00364004 0)
(0.0687305 0.000179599 0)
(0.101407 0.000106763 0)
(0.646017 0.00151457 0)
(0.947979 0.00154434 0)
(1.11006 0.00161625 0)
(1.13716 0.00398806 0)
(1.11925 0.00831118 0)
(1.10171 0.0134589 0)
(1.08808 0.018966 0)
(1.07665 0.0245041 0)
(1.06694 0.0295497 0)
(1.06064 0.0329669 0)
(1.05927 0.0344935 0)
(1.06327 0.0348359 0)
(1.07312 0.0344122 0)
(1.08743 0.0340916 0)
(1.07482 0.0316735 0)
(0.947597 0.023922 0)
(0.669996 0.0127065 0)
(0.345255 0.00387812 0)
(0.063514 0.000193221 0)
(0.104176 0.000156219 0)
(0.650416 0.00294494 0)
(0.949161 0.00442943 0)
(1.11383 0.0056336 0)
(1.14441 0.00856745 0)
(1.12694 0.0134355 0)
(1.10871 0.0191554 0)
(1.09413 0.0251971 0)
(1.08146 0.031141 0)
(1.07018 0.0363259 0)
(1.06229 0.0395199 0)
(1.05969 0.0405699 0)
(1.06289 0.0404201 0)
(1.07244 0.0394637 0)
(1.08487 0.0386005 0)
(1.06427 0.0350854 0)
(0.921459 0.0259318 0)
(0.638244 0.013675 0)
(0.322557 0.00418338 0)
(0.0579069 0.000208796 0)
(0.108249 0.000221749 0)
(0.659486 0.00462246 0)
(0.954373 0.00784246 0)
(1.11987 0.010379 0)
(1.15279 0.0140644 0)
(1.13556 0.0196521 0)
(1.1165 0.0260845 0)
(1.10074 0.0327804 0)
(1.08653 0.0392026 0)
(1.07337 0.0445276 0)
(1.0636 0.0474272 0)
(1.05957 0.0479313 0)
(1.06182 0.047217 0)
(1.07099 0.0456651 0)
(1.08104 0.0441921 0)
(1.05095 0.0393288 0)
(0.89193 0.0284849 0)
(0.603771 0.0148938 0)
(0.298013 0.00454533 0)
(0.0518402 0.00022528 0)
(0.113961 0.000310179 0)
(0.67396 0.00671238 0)
(0.964266 0.0119842 0)
(1.12876 0.0160886 0)
(1.16266 0.0207407 0)
(1.14537 0.0272757 0)
(1.12526 0.0345845 0)
(1.108 0.0420604 0)
(1.09188 0.0490145 0)
(1.07644 0.0544388 0)
(1.06446 0.056928 0)
(1.05875 0.0567497 0)
(1.05996 0.0554045 0)
(1.06865 0.0532013 0)
(1.07574 0.0509823 0)
(1.03431 0.0444917 0)
(0.858263 0.0315909 0)
(0.565846 0.0163333 0)
(0.271251 0.00494461 0)
(0.0452752 0.000240943 0)
(0.121827 0.000437389 0)
(0.69479 0.00945138 0)
(0.979713 0.0171618 0)
(1.14114 0.0231075 0)
(1.17449 0.0289969 0)
(1.15666 0.0367675 0)
(1.13516 0.0451379 0)
(1.11599 0.0535015 0)
(1.09748 0.0609821 0)
(1.0793 0.0663854 0)
(1.06475 0.06828 0)
(1.05711 0.0672493 0)
(1.0572 0.0651374 0)
(1.06541 0.0621902 0)
(1.06862 0.0591176 0)
(1.01359 0.0506397 0)
(0.819569 0.0352287 0)
(0.523746 0.0179353 0)
(0.241999 0.00535138 0)
(0.0382158 0.00025357 0)
(0.132565 0.000619174 0)
(0.723251 0.0132105 0)
(1.00187 0.0238451 0)
(1.15781 0.0319826 0)
(1.18888 0.0394369 0)
(1.16979 0.048805 0)
(1.14638 0.0584207 0)
(1.12469 0.0677171 0)
(1.10319 0.0756029 0)
(1.08174 0.0807236 0)
(1.06428 0.0817314 0)
(1.05454 0.0796431 0)
(1.0534 0.0765896 0)
(1.06095 0.0727529 0)
(1.05906 0.0686253 0)
(0.987861 0.0577863 0)
(0.774858 0.0393088 0)
(0.476835 0.0195956 0)
(0.21016 0.00572046 0)
(0.030729 0.000260257 0)
(0.147432 0.00091033 0)
(0.761346 0.0186162 0)
(1.0324 0.0328259 0)
(1.17971 0.0436551 0)
(1.2066 0.0531439 0)
(1.18507 0.0644227 0)
(1.15895 0.0753848 0)
(1.13395 0.0854839 0)
(1.10877 0.0934395 0)
(1.08351 0.0978175 0)
(1.06282 0.0975079 0)
(1.05086 0.0940704 0)
(1.04844 0.089919 0)
(1.05489 0.0851596 0)
(1.04637 0.0796187 0)
(0.95592 0.0658248 0)
(0.723134 0.0436444 0)
(0.424728 0.0211513 0)
(0.17593 0.00599039 0)
(0.0229672 0.000257529 0)
(0.168616 0.0014127 0)
(0.812317 0.0268109 0)
(1.07384 0.0456447 0)
(1.20796 0.059964 0)
(1.22826 0.0722241 0)
(1.20257 0.0852327 0)
(1.17261 0.0973431 0)
(1.14334 0.107736 0)
(1.11373 0.11509 0)
(1.08418 0.118011 0)
(1.06005 0.115791 0)
(1.04584 0.110632 0)
(1.04217 0.105194 0)
(1.0472 0.0994945 0)
(1.02961 0.0920021 0)
(0.916302 0.0744746 0)
(0.663604 0.0479227 0)
(0.367596 0.0223856 0)
(0.139979 0.00608943 0)
(0.0151919 0.000241472 0)
(0.199486 0.0025245 0)
(0.881882 0.040452 0)
(1.12988 0.0661305 0)
(1.243 0.0845079 0)
(1.25358 0.0993932 0)
(1.22169 0.113585 0)
(1.18653 0.125893 0)
(1.15202 0.135451 0)
(1.11737 0.141087 0)
(1.08322 0.141548 0)
(1.05562 0.136666 0)
(1.03927 0.129345 0)
(1.03447 0.122374 0)
(1.03753 0.115537 0)
(1.00746 0.105572 0)
(0.867299 0.0831873 0)
(0.596168 0.0516588 0)
(0.306883 0.0231054 0)
(0.103873 0.00598164 0)
(0.00787687 0.00020797 0)
(0.241581 0.00873706 7.36326e-20)
(0.974099 0.067574 6.60927e-20)
(1.19822 0.100572 -2.3361e-20)
(1.28169 0.120969 0)
(1.27977 0.138239 -6.19863e-34)
(1.24027 0.151789 9.11949e-21)
(1.19917 0.162535 -1.672e-20)
(1.1589 0.169856 0)
(1.11884 0.172698 3.49542e-34)
(1.07982 0.169889 -2.12425e-20)
(1.04852 0.161844 0)
(1.02985 0.152148 -2.54382e-20)
(1.024 0.143727 -7.51463e-20)
(1.02455 0.136501 -3.55087e-20)
(0.976367 0.122932 -1.06918e-20)
(0.803346 0.0936492 -6.35552e-21)
(0.515457 0.055382 0)
(0.240824 0.0236988 4.43319e-21)
(0.0677245 0.00599929 5.21338e-21)
(0.00103852 0.000190534 9.2519e-20)
(0.270945 0.0240193 4.99672e-20)
(1.05032 0.110144 1.0496e-21)
(1.25463 0.14964 6.02641e-21)
(1.31622 0.170152 0)
(1.30268 0.18735 -3.08506e-20)
(1.25613 0.198697 -3.54793e-20)
(1.20912 0.20711 -1.67392e-20)
(1.16301 0.211913 -6.05604e-20)
(1.1173 0.211926 0)
(1.07292 0.205916 9.05788e-20)
(1.03733 0.194786 9.02835e-20)
(1.01595 0.18271 2.69173e-20)
(1.00801 0.172366 9.85607e-20)
(1.001 0.16261 1.38888e-19)
(0.928149 0.14368 0)
(0.717932 0.105342 1.95385e-19)
(0.42125 0.0592908 2.79747e-19)
(0.172308 0.0238044 3.09742e-19)
(0.0321142 0.0048875 -3.52466e-19)
(-0.00578178 -0.000457034 -6.53405e-21)
(0.272185 0.0400028 0)
(1.09853 0.165435 7.89421e-21)
(1.29256 0.209945 0)
(1.343 0.229967 -3.71795e-20)
(1.3206 0.244156 0)
(1.26812 0.251616 -6.85575e-20)
(1.21555 0.256304 3.39463e-20)
(1.16387 0.25751 -1.20854e-19)
(1.11275 0.253861 -3.14945e-21)
(1.06323 0.244036 4.67022e-20)
(1.02353 0.229443 1.99097e-19)
(0.999471 0.21476 -4.88011e-22)
(0.989138 0.20235 -7.17378e-20)
(0.974841 0.189821 -1.31107e-19)
(0.884688 0.165001 1.54938e-19)
(0.657844 0.1171 -2.7401e-19)
(0.367984 0.0632683 -3.61382e-20)
(0.138774 0.0239047 0)
(0.0157477 0.00326282 -1.94893e-23)
(-0.00908307 -0.00128498 0)
(0.265837 0.0537425 7.51826e-20)
(1.12452 0.223955 -4.1278e-20)
(1.31585 0.274778 -3.75112e-20)
(1.36067 0.295004 1.68477e-20)
(1.33213 0.305306 -2.88222e-20)
(1.27519 0.308249 1.43059e-19)
(1.21803 0.308532 7.05557e-20)
(1.16154 0.305502 0)
(1.10557 0.297647 -2.31672e-19)
(1.05132 0.283577 0)
(1.00773 0.265224 -1.04335e-19)
(0.981025 0.24774 -1.29739e-19)
(0.968289 0.233124 -7.82729e-20)
(0.948157 0.217495 -9.5384e-20)
(0.848753 0.186859 0)
(0.619411 0.130771 0)
(0.341373 0.070126 -2.34869e-19)
(0.124552 0.0255741 4.63543e-20)
(0.00836777 0.0019382 -2.70418e-20)
(-0.011087 -0.00219536 -3.11513e-20)
(0.258248 0.0658297 -1.01e-20)
(1.13586 0.282333 0)
(1.32855 0.340515 6.60615e-20)
(1.3702 0.36144 4.49405e-20)
(1.33735 0.367933 6.84629e-20)
(1.27716 0.366362 0)
(1.21641 0.362133 6.79108e-20)
(1.15593 0.354692 1.33096e-19)
(1.09576 0.342427 1.18006e-19)
(1.03723 0.323906 2.20885e-19)
(0.990004 0.301605 0)
(0.960729 0.281182 -2.80172e-19)
(0.945626 0.264202 -1.69364e-19)
(0.921209 0.245633 -1.0023e-19)
(0.818522 0.20983 6.14424e-19)
(0.595073 0.146561 7.28129e-20)
(0.330263 0.0796837 3.4046e-19)
(0.12307 0.0291181 -1.61298e-18)
(0.00781762 0.00151869 9.51422e-19)
(-0.0118036 -0.00294495 -1.12897e-18)
(0.250983 0.0767495 2.01627e-20)
(1.13789 0.338738 1.10581e-21)
(1.33359 0.405273 -4.49261e-21)
(1.37319 0.427379 -3.7019e-20)
(1.33721 0.430299 -5.28137e-20)
(1.27459 0.424398 3.58963e-21)
(1.21099 0.415825 -7.37873e-20)
(1.14723 0.404063 1.36967e-19)
(1.08346 0.387423 -2.54281e-19)
(1.02114 0.364442 0)
(0.970564 0.338173 -1.26532e-19)
(0.938786 0.31477 -3.22073e-21)
(0.921362 0.295437 -1.85805e-19)
(0.89391 0.274074 0)
(0.791978 0.233651 -1.33377e-19)
(0.57862 0.164402 -3.15686e-19)
(0.328115 0.0915778 8.3715e-19)
(0.128219 0.0346527 -8.25648e-19)
(0.0122631 0.00259485 1.16992e-18)
(-0.0111154 -0.00332862 -1.19726e-18)
(0.244869 0.0868359 -8.12802e-22)
(1.13414 0.392503 7.40819e-21)
(1.33311 0.468057 1.47157e-21)
(1.37106 0.49162 1.08143e-20)
(1.33278 0.491363 -2.58554e-20)
(1.2683 0.481417 0)
(1.20241 0.468758 -6.6645e-20)
(1.13592 0.452881 -1.4296e-19)
(1.06903 0.432038 -1.31669e-19)
(1.00331 0.40472 0)
(0.949638 0.374537 -1.31022e-19)
(0.915461 0.348163 -1.63602e-19)
(0.895844 0.326531 2.01985e-19)
(0.866102 0.30248 -1.22972e-19)
(0.767098 0.257889 -5.85515e-19)
(0.565236 0.183706 3.4637e-19)
(0.32923 0.104918 1.02467e-19)
(0.136283 0.0419058 0)
(0.019436 0.00514645 -1.13505e-18)
(-0.00947481 -0.00330814 -4.10422e-20)
(0.240009 0.0964141 9.07725e-21)
(1.12691 0.443438 -1.3328e-20)
(1.32861 0.528402 -3.40629e-21)
(1.36505 0.553458 4.47434e-20)
(1.325 0.550457 -8.76906e-20)
(1.25912 0.536837 1.24172e-19)
(1.19136 0.520397 1.43878e-19)
(1.12253 0.500673 -2.28341e-19)
(1.05289 0.475862 8.28696e-20)
(0.984093 0.444386 -5.44031e-19)
(0.927551 0.410392 -1.49063e-19)
(0.891131 0.38112 0)
(0.869512 0.357281 2.19576e-19)
(0.83806 0.330661 2.63875e-19)
(0.742412 0.282212 3.16027e-19)
(0.551974 0.203704 -3.77839e-19)
(0.329989 0.119102 -1.11628e-19)
(0.144286 0.0505453 1.30957e-19)
(0.027386 0.00884166 0)
(-0.00734824 -0.00292967 -8.93706e-20)
(0.23631 0.105634 -1.4049e-19)
(1.11784 0.491644 7.9463e-20)
(1.32135 0.586189 6.93275e-21)
(1.3562 0.612566 2.14743e-20)
(1.31468 0.607189 -3.47165e-20)
(1.24772 0.590261 -8.12144e-21)
(1.17843 0.570392 -1.5812e-19)
(1.10759 0.547134 -8.28555e-20)
(1.0355 0.518621 -2.29336e-19)
(0.963861 0.483207 6.24767e-22)
(0.90464 0.445543 -4.66017e-19)
(0.866138 0.413488 3.97115e-19)
(0.842677 0.387467 -2.42102e-19)
(0.809753 0.358347 2.91897e-19)
(0.716876 0.306323 0)
(0.537405 0.223699 -2.0595e-19)
(0.328128 0.133578 2.31558e-22)
(0.15038 0.059778 -5.733e-19)
(0.0346224 0.0131492 -8.37242e-20)
(-0.00512425 -0.00229297 0)
(0.233653 0.11464 0)
(1.10784 0.537352 9.16842e-20)
(1.31218 0.641585 3.74808e-20)
(1.3453 0.668809 -1.35864e-20)
(1.3025 0.66135 -5.0269e-20)
(1.23469 0.641467 0)
(1.16415 0.618517 -6.88319e-20)
(1.09157 0.592052 -2.1097e-21)
(1.01724 0.560141 4.91812e-19)
(0.942942 0.521031 -7.44052e-20)
(0.881177 0.479855 -3.36962e-19)
(0.840739 0.445086 2.05992e-19)
(0.815582 0.416835 -4.43812e-21)
(0.781287 0.385136 3.10468e-19)
(0.690556 0.329461 1.91949e-19)
(0.521002 0.242608 -4.458e-19)
(0.323012 0.147518 5.26587e-19)
(0.153174 0.068662 1.55766e-19)
(0.0398156 0.017391 6.38857e-19)
(-0.00321173 -0.00158411 -1.68019e-18)
(0.231965 0.123591 -4.71327e-20)
(1.09761 0.580748 6.45403e-20)
(1.30181 0.694028 -4.41137e-20)
(1.33294 0.722155 -1.53588e-21)
(1.28902 0.712838 0)
(1.22056 0.690321 -5.03698e-20)
(1.14896 0.664635 2.34528e-19)
(1.07483 0.635299 1.8039e-19)
(0.998455 0.600303 0)
(0.921615 0.557766 -1.07634e-18)
(0.857393 0.513227 9.12831e-19)
(0.815096 0.475712 0)
(0.788387 0.445177 2.83602e-19)
(0.752796 0.410724 -4.4451e-21)
(0.663678 0.351069 -6.14322e-19)
(0.5024 0.259742 2.39766e-19)
(0.31474 0.159935 0)
(0.152195 0.0763185 8.39834e-19)
(0.0423644 0.0208781 0)
(-0.0018638 -0.000992652 -7.96254e-19)
(0.231086 0.132537 5.66997e-20)
(1.08758 0.622007 8.43677e-20)
(1.29062 0.743627 -4.36007e-20)
(1.3196 0.772607 0)
(1.2747 0.761628 -3.3143e-20)
(1.20572 0.736781 0)
(1.13324 0.708675 -2.26185e-19)
(1.05773 0.676795 -8.14398e-20)
(0.979432 0.639045 8.57655e-20)
(0.900134 0.593366 -5.32499e-19)
(0.833461 0.545593 9.39151e-20)
(0.789338 0.505273 0)
(0.761183 0.472345 -6.0558e-19)
(0.724222 0.434906 4.36528e-21)
(0.636064 0.370765 0)
(0.481779 0.274637 2.70925e-21)
(0.303264 0.170149 7.71397e-19)
(0.148001 0.0819904 -7.25974e-19)
(0.0423049 0.0231198 2.13046e-19)
(-0.00115327 -0.00063865 0)
(0.230701 0.141377 0)
(1.07807 0.661191 1.02113e-19)
(1.27887 0.790541 6.47779e-20)
(1.3057 0.820213 -4.95208e-21)
(1.2599 0.807743 -3.45779e-21)
(1.19052 0.780844 -1.12586e-19)
(1.11728 0.750618 8.61497e-20)
(1.04053 0.716509 -9.8118e-20)
(0.960429 0.676326 3.85321e-19)
(0.878703 0.627817 -8.5098e-19)
(0.809519 0.576936 -7.85268e-21)
(0.763546 0.533789 -2.63774e-19)
(0.733974 0.498304 9.83447e-19)
(0.695552 0.457434 -5.15182e-21)
(0.607883 0.388283 -4.77267e-19)
(0.459293 0.28686 -8.49266e-19)
(0.289057 0.177796 0)
(0.140886 0.0855069 0)
(0.0402775 0.0240136 2.29884e-19)
(-0.000981554 -0.000575145 -1.33125e-19)
(0.230944 0.150254 8.00398e-20)
(1.06908 0.69819 -2.3293e-19)
(1.26686 0.834855 -6.95444e-20)
(1.29155 0.865071 0)
(1.24492 0.851243 -3.01873e-21)
(1.17522 0.822539 -9.35764e-20)
(1.10136 0.790472 2.01692e-19)
(1.02348 0.754433 3.79839e-19)
(0.941657 0.712143 4.98619e-19)
(0.857513 0.661125 -6.93587e-19)
(0.785707 0.60731 -7.84582e-19)
(0.737766 0.561345 7.05305e-19)
(0.706703 0.523023 0)
(0.666661 0.47808 -2.16958e-19)
(0.579024 0.403268 -5.16216e-19)
(0.434913 0.296166 -6.10324e-19)
(0.272524 0.182547 -7.19722e-19)
(0.131299 0.0866553 2.11974e-19)
(0.036618 0.0236919 -1.23788e-19)
(-0.00116436 -0.00072508 5.54021e-22)
(0.231345 0.159036 0)
(1.06077 0.733504 0)
(1.25483 0.876666 4.93355e-21)
(1.27735 0.90729 0)
(1.22998 0.892216 -1.61943e-20)
(1.16004 0.861924 5.53718e-20)
(1.08566 0.828263 0)
(1.00676 0.790576 4.3894e-20)
(0.923305 0.746498 8.28764e-19)
(0.836741 0.693314 -1.59473e-18)
(0.762155 0.636807 0)
(0.712032 0.58804 -4.53956e-19)
(0.679265 0.54645 -6.07552e-21)
(0.637445 0.496688 -4.75176e-21)
(0.54956 0.415478 5.5186e-19)
(0.409388 0.30239 -3.11593e-22)
(0.254124 0.184322 -1.55038e-18)
(0.119827 0.0855074 4.55968e-19)
(0.031722 0.0221944 1.34155e-19)
(-0.00157795 -0.0010287 0)
(0.23183 0.167686 -3.19754e-19)
(1.05289 0.767165 -1.57862e-19)
(1.24285 0.916056 -2.06579e-19)
(1.26329 0.946987 2.00316e-19)
(1.21525 0.930738 -5.93914e-20)
(1.14515 0.899064 0)
(1.07034 0.864039 1.16867e-19)
(0.990521 0.824965 -9.87538e-20)
(0.905521 0.779409 7.7448e-21)
(0.816543 0.724417 1.17899e-19)
(0.738996 0.665532 1.01433e-18)
(0.686376 0.613976 -1.5896e-19)
(0.65157 0.568607 -6.05699e-19)
(0.607752 0.513151 -2.52743e-19)
(0.519482 0.424671 2.99752e-19)
(0.383173 0.305334 5.9399e-23)
(0.234435 0.183039 4.17399e-19)
(0.10729 0.0821984 -9.8056e-19)
(0.0263622 0.0198033 1.15383e-18)
(-0.00210333 -0.00144228 1.65709e-19)
(0.232202 0.176079 1.21729e-19)
(1.04544 0.799268 -8.90986e-20)
(1.23107 0.953126 1.22093e-20)
(1.24946 0.984287 1.30119e-19)
(1.20087 0.966921 2.60286e-20)
(1.13068 0.934033 -8.81311e-20)
(1.05553 0.897851 3.0873e-20)
(0.974889 0.857621 -4.0898e-19)
(0.888435 0.810877 -9.07324e-19)
(0.797054 0.754449 -9.47038e-19)
(0.716372 0.693574 0)
(0.660844 0.639263 -6.99253e-19)
(0.623534 0.589626 8.73244e-19)
(0.577333 0.527418 0)
(0.488717 0.430493 -6.41623e-19)
(0.356737 0.30456 3.81651e-19)
(0.214694 0.178506 -4.48476e-19)
(0.0949714 0.0770739 -5.27271e-19)
(0.0212214 0.0169138 -9.28716e-19)
(-0.00262188 -0.00188488 -7.13331e-19)
(0.232916 0.184337 -1.37297e-19)
(1.03826 0.829799 9.52e-20)
(1.21953 0.987944 2.18419e-19)
(1.23599 1.01924 1.90961e-19)
(1.18693 1.00086 -4.74043e-20)
(1.11671 0.966919 -3.6738e-20)
(1.04131 0.929749 1.05163e-19)
(0.959946 0.888586 -4.15874e-19)
(0.872129 0.840926 -5.35739e-19)
(0.778394 0.783432 9.88156e-19)
(0.694409 0.720996 2.22353e-18)
(0.635514 0.664033 0)
(0.595092 0.609757 0)
(0.545831 0.539547 -2.9069e-19)
(0.456912 0.432568 0)
(0.330229 0.299255 8.19874e-19)
(0.196155 0.169953 9.63593e-19)
(0.0848355 0.0701294 0)
(0.017528 0.0139258 0)
(-0.00301718 -0.00227001 7.65784e-19)
(0.233289 0.192159 1.56459e-19)
(1.03138 0.858746 1.29255e-19)
(1.20831 1.02063 1.58613e-19)
(1.22293 1.05199 -1.85191e-19)
(1.17349 1.03266 -6.48208e-20)
(1.10331 0.997799 2.22091e-20)
(1.02774 0.959795 -1.41552e-19)
(0.945757 0.91789 -7.73105e-22)
(0.856685 0.869563 -1.00292e-20)
(0.76066 0.81137 -9.55997e-21)
(0.67325 0.747835 1.14381e-18)
(0.610507 0.68844 0)
(0.566228 0.629323 8.8371e-19)
(0.512856 0.549746 6.19739e-19)
(0.423353 0.430782 1.49575e-18)
(0.303108 0.288237 4.41327e-19)
(0.1801 0.154908 -5.18234e-19)
(0.0809143 0.0586433 -3.03365e-19)
(0.0208335 0.00971617 0)
(-0.00146822 -0.00194058 8.22382e-19)
(0.233959 0.199992 -3.51889e-19)
(1.02477 0.886202 0)
(1.19739 1.05124 1.8713e-19)
(1.2103 1.08261 -1.57411e-19)
(1.16062 1.06242 9.11341e-20)
(1.09051 1.02676 3.79162e-21)
(1.01487 0.988048 2.5976e-19)
(0.932359 0.945569 -3.4948e-20)
(0.842144 0.8968 0)
(0.743929 0.83824 -1.08352e-18)
(0.653031 0.774093 -2.48027e-18)
(0.585986 0.712646 1.02627e-19)
(0.537019 0.648656 1.21855e-18)
(0.478153 0.558424 0)
(0.386973 0.425715 1.00896e-18)
(0.273123 0.270608 0)
(0.164828 0.128003 0)
(0.0877663 0.0289395 -3.2784e-19)
(0.0522949 -0.00639604 0)
(0.0274736 0.0108453 2.20111e-19)
(0.234264 0.207225 -3.93815e-19)
(1.01838 0.912506 0)
(1.18676 1.07998 3.11284e-19)
(1.19807 1.11134 0)
(1.14826 1.09041 -5.6246e-20)
(1.07826 1.05409 0)
(1.00263 1.01482 1.03252e-20)
(0.919656 0.97196 5.61594e-20)
(0.828385 0.922998 6.66513e-20)
(0.728033 0.864427 -1.18258e-18)
(0.633567 0.800201 7.38357e-20)
(0.561712 0.737324 8.26612e-19)
(0.507053 0.668533 1.18695e-18)
(0.440868 0.566213 1.6063e-19)
(0.345935 0.419015 7.90452e-19)
(0.235507 0.247365 0)
(0.138514 0.0853374 1.0919e-18)
(0.075709 -0.0170716 -6.33536e-19)
(0.0414121 0.0463744 7.29104e-19)
(-0.0595567 0.435449 -8.6468e-19)
(0.234542 0.214261 3.26578e-19)
(1.01194 0.937432 5.14071e-19)
(1.17635 1.10716 0)
(1.18609 1.13864 9.7787e-21)
(1.13623 1.1172 1.67796e-19)
(1.06629 1.08047 -8.33573e-20)
(0.990706 1.0409 8.09526e-20)
(0.907236 0.998 0)
(0.814875 0.949248 4.35172e-19)
(0.7123 0.891236 -6.10086e-20)
(0.613946 0.827646 0)
(0.536444 0.764215 0)
(0.4744 0.690434 1.06388e-18)
(0.398712 0.573709 -4.97542e-19)
(0.297133 0.412841 -8.01496e-19)
(0.18555 0.222085 0)
(0.0803186 0.0912483 5.45195e-19)
(0.00627968 0.441508 -6.24352e-19)
(0.031694 1.89445 -3.42077e-19)
(0.0625011 2.81072 -4.5204e-19)
(0.234589 0.220533 -2.44381e-19)
(1.00557 0.961144 -6.58481e-19)
(1.16617 1.13276 1.84629e-19)
(1.17436 1.16436 1.53697e-19)
(1.12455 1.14258 0)
(1.05469 1.10561 -7.98171e-20)
(0.979305 1.06599 9.69476e-20)
(0.895291 1.02326 -2.63752e-20)
(0.801885 0.975034 6.51326e-20)
(0.697111 0.918056 1.12196e-18)
(0.594763 0.855774 1.24701e-18)
(0.51111 0.792993 9.2448e-19)
(0.439867 0.714245 1.07008e-18)
(0.353311 0.579941 -1.16884e-18)
(0.246469 0.411107 -1.21028e-18)
(0.123885 0.263501 0)
(0.0443589 0.832922 0)
(0.0987934 2.55402 2.98964e-19)
(0.101563 3.20227 0)
(0.104142 3.38821 6.56071e-19)
(0.237671 0.226341 0)
(0.99985 0.983911 0)
(1.15596 1.15665 0)
(1.16266 1.18836 4.64131e-20)
(1.11288 1.16629 1.53857e-19)
(1.04322 1.12939 -8.41336e-20)
(0.968323 1.08998 5.69159e-20)
(0.883764 1.04763 -2.52408e-20)
(0.789367 1.00021 5.33689e-19)
(0.682477 0.944737 -1.8091e-20)
(0.576147 0.884471 2.45636e-18)
(0.48602 0.823525 -1.06908e-19)
(0.40355 0.74071 1.29184e-19)
(0.307199 0.583022 1.69318e-19)
(0.185425 0.424523 -6.93867e-21)
(0.100465 0.964987 3.55968e-21)
(0.139181 2.72525 -1.58409e-18)
(0.146506 3.29363 -5.86021e-19)
(0.135672 3.42592 2.9335e-19)
(0.123334 3.44781 -3.21107e-19)
(0.157347 0.178264 1.39177e-19)
(0.989619 1.00864 0)
(1.14541 1.17898 -3.61665e-19)
(1.15142 1.21105 -4.12845e-19)
(1.10195 1.18902 3.64921e-19)
(1.03274 1.1524 9.84065e-20)
(0.95767 1.11289 -5.10057e-20)
(0.872744 1.07119 2.57992e-19)
(0.777458 1.02491 -4.30086e-19)
(0.668668 0.971434 0)
(0.558476 0.913948 1.1982e-18)
(0.461684 0.855542 -7.51335e-19)
(0.366582 0.772489 0)
(0.253865 0.585346 1.52158e-19)
(0.144736 0.753915 3.71493e-19)
(0.154632 2.50008 -4.33756e-19)
(0.210059 3.32339 4.7846e-19)
(0.190744 3.43838 2.57264e-19)
(0.158347 3.45987 2.82895e-19)
(0.136999 3.47009 4.50038e-19)
(0.277893 0.264853 -2.46314e-19)
(0.973647 1.01853 0)
(1.12744 1.20466 3.98361e-19)
(1.13692 1.24181 4.5239e-19)
(1.08484 1.22223 -4.01825e-19)
(1.01493 1.18604 -1.43454e-19)
(0.938851 1.14811 1.15014e-20)
(0.853432 1.10768 2.05352e-20)
(0.756861 1.06362 4.01006e-19)
(0.645387 1.01414 9.49584e-19)
(0.530073 0.963139 6.6944e-20)
(0.422958 0.910334 6.64903e-19)
(0.299594 0.812322 1.19472e-19)
(0.213629 0.931342 -1.53306e-19)
(0.22805 2.35203 -3.43302e-19)
(0.287611 3.32644 3.18207e-19)
(0.271226 3.46696 -3.561e-19)
(0.235808 3.48887 -2.06235e-19)
(0.199287 3.51621 -1.61771e-19)
(0.148689 3.50997 -1.56813e-20)
(0.267087 0.262453 0)
(0.971591 1.04163 1.1519e-19)
(1.11922 1.22829 -8.26069e-20)
(1.12648 1.26559 -5.422e-20)
(1.07414 1.24549 -2.79475e-19)
(1.00419 1.2095 1.49308e-19)
(0.927815 1.17176 8.57774e-21)
(0.842202 1.13215 1.7765e-20)
(0.745112 1.08958 -4.12232e-19)
(0.632353 1.04295 -2.73057e-20)
(0.51428 0.996895 -2.15271e-18)
(0.402072 0.948073 9.50222e-20)
(0.282987 0.87857 -1.11813e-19)
(0.253843 1.48855 -1.41741e-19)
(0.327316 3.10375 3.48345e-20)
(0.346933 3.46534 1.04196e-21)
(0.306231 3.52044 5.01803e-19)
(0.269332 3.54701 2.37302e-19)
(0.220946 3.57007 -4.4504e-20)
(0.163647 3.5659 -6.93678e-20)
(0.251428 0.260559 2.89958e-19)
(0.968072 1.06731 7.90993e-19)
(1.11058 1.25398 -2.37911e-19)
(1.11541 1.29071 -2.05613e-19)
(1.06283 1.27012 0)
(0.993025 1.23418 2.69515e-19)
(0.916641 1.19669 4.19893e-20)
(0.831105 1.15787 1.47699e-20)
(0.733813 1.11687 -4.63126e-20)
(0.6203 1.07336 -8.4209e-19)
(0.500323 1.0327 -9.85074e-19)
(0.384645 0.987374 -7.67872e-19)
(0.285536 1.00832 -8.49428e-19)
(0.323047 2.21057 8.72652e-19)
(0.41336 3.37705 7.05191e-19)
(0.390867 3.52273 0)
(0.344729 3.56703 0)
(0.306648 3.60685 -3.35988e-20)
(0.256746 3.66515 0)
(0.175868 3.64155 -1.95865e-20)
(0.240994 0.2625 -4.36619e-19)
(0.962444 1.09392 -6.75076e-19)
(1.1005 1.2809 0)
(1.10299 1.31657 1.16197e-20)
(1.05027 1.29537 -3.0439e-19)
(0.980761 1.25936 4.37676e-19)
(0.904694 1.22216 4.44321e-20)
(0.819446 1.18405 5.11993e-21)
(0.722196 1.14457 -2.76102e-19)