0.490941 	1.72442 	0.00541836 	3.00065 	-5.32808e-20
0.561075 	1.72442 	0.00541836 	3.00065 	-5.32808e-20
0.63121 	1.72442 	0.00541836 	3.00065 	-5.32808e-20
0.701344 	1.72442 	0.00541836 	3.00065 	-5.32808e-20
0.771478 	1.72442 	0.00541836 	3.00065 	-5.32808e-20
0.841613 	1.72442 	0.00541836 	3.00065 	-5.32808e-20
0.911747 	1.72442 	0.00541836 	3.00065 	-5.32808e-20
0.981881 	1.72442 	0.00541836 	3.00065 	-5.32808e-20
1.05202 	1.72442 	0.00541836 	3.00065 	-5.32808e-20
1.12215 	1.72442 	0.00541836 	3.00065 	-5.32808e-20
1.19228 	1.72442 	0.00541836 	3.00065 	-5.32808e-20
1.26242 	1.72442 	0.00541836 	3.00065 	-5.32808e-20
1.33255 	1.68498 	0.0144989 	3.01422 	-5.45412e-20
1.40269 	1.68498 	0.0144989 	3.01422 	-5.45412e-20
1.47282 	1.68498 	0.0144989 	3.01422 	-5.45412e-20
1.54296 	1.68498 	0.0144989 	3.01422 	-5.45412e-20
1.61309 	1.68498 	0.0144989 	3.01422 	-5.45412e-20
1.68323 	1.68498 	0.0144989 	3.01422 	-5.45412e-20
1.75336 	1.68498 	0.0144989 	3.01422 	-5.45412e-20
1.82349 	1.68498 	0.0144989 	3.01422 	-5.45412e-20
1.89363 	1.68498 	0.0144989 	3.01422 	-5.45412e-20
1.96376 	1.68498 	0.0144989 	3.01422 	-5.45412e-20
2.0339 	1.68498 	0.0144989 	3.01422 	-5.45412e-20
2.10403 	1.68498 	0.0144989 	3.01422 	-5.45412e-20
2.17417 	1.62425 	0.0137842 	3.0321 	1.13639e-19
2.2443 	1.62425 	0.0137842 	3.0321 	1.13639e-19
2.31443 	1.62425 	0.0137842 	3.0321 	1.13639e-19
2.38457 	1.62425 	0.0137842 	3.0321 	1.13639e-19
2.4547 	1.62425 	0.0137842 	3.0321 	1.13639e-19
2.52484 	1.62425 	0.0137842 	3.0321 	1.13639e-19
2.59497 	1.62425 	0.0137842 	3.0321 	1.13639e-19
2.66511 	1.62425 	0.0137842 	3.0321 	1.13639e-19
2.73524 	1.62425 	0.0137842 	3.0321 	1.13639e-19
2.80538 	1.62425 	0.0137842 	3.0321 	1.13639e-19
2.87551 	1.62425 	0.0137842 	3.0321 	1.13639e-19
2.94564 	1.62425 	0.0137842 	3.0321 	1.13639e-19
3.01578 	1.55029 	0.0168337 	3.05867 	-1.32018e-20
3.08591 	1.55029 	0.0168337 	3.05867 	-1.32018e-20
3.15605 	1.55029 	0.0168337 	3.05867 	-1.32018e-20
3.22618 	1.55029 	0.0168337 	3.05867 	-1.32018e-20
3.29632 	1.55029 	0.0168337 	3.05867 	-1.32018e-20
3.36645 	1.55029 	0.0168337 	3.05867 	-1.32018e-20
3.43659 	1.55029 	0.0168337 	3.05867 	-1.32018e-20
3.50672 	1.55029 	0.0168337 	3.05867 	-1.32018e-20
3.57685 	1.55029 	0.0168337 	3.05867 	-1.32018e-20
3.64699 	1.55029 	0.0168337 	3.05867 	-1.32018e-20
3.71712 	1.55029 	0.0168337 	3.05867 	-1.32018e-20
3.78726 	1.5431 	0.00710613 	3.05563 	2.58627e-20
3.85739 	1.46411 	-0.000758638 	3.08407 	-1.90538e-19
3.92753 	1.46411 	-0.000758638 	3.08407 	-1.90538e-19
3.99766 	1.46411 	-0.000758638 	3.08407 	-1.90538e-19
4.06779 	1.46411 	-0.000758638 	3.08407 	-1.90538e-19
4.13793 	1.46411 	-0.000758638 	3.08407 	-1.90538e-19
4.20806 	1.46411 	-0.000758638 	3.08407 	-1.90538e-19
4.2782 	1.46411 	-0.000758638 	3.08407 	-1.90538e-19
4.34833 	1.46411 	-0.000758638 	3.08407 	-1.90538e-19
4.41847 	1.46411 	-0.000758638 	3.08407 	-1.90538e-19
4.4886 	1.46411 	-0.000758638 	3.08407 	-1.90538e-19
4.55874 	1.46411 	-0.000758638 	3.08407 	-1.90538e-19
4.62887 	1.46411 	-0.000758638 	3.08407 	-1.90538e-19
4.699 	1.46411 	-0.000758638 	3.08407 	-1.90538e-19
4.76914 	1.38541 	0.00554871 	3.10676 	3.70719e-19
4.83927 	1.38541 	0.00554871 	3.10676 	3.70719e-19
4.90941 	1.38541 	0.00554871 	3.10676 	3.70719e-19
4.97954 	1.38541 	0.00554871 	3.10676 	3.70719e-19
5.04968 	1.38541 	0.00554871 	3.10676 	3.70719e-19
5.11981 	1.38541 	0.00554871 	3.10676 	3.70719e-19
5.18994 	1.38541 	0.00554871 	3.10676 	3.70719e-19
5.26008 	1.38541 	0.00554871 	3.10676 	3.70719e-19
5.33021 	1.38541 	0.00554871 	3.10676 	3.70719e-19
5.40035 	1.38541 	0.00554871 	3.10676 	3.70719e-19
5.47048 	1.38541 	0.00554871 	3.10676 	3.70719e-19
5.54062 	1.38541 	0.00554871 	3.10676 	3.70719e-19
5.61075 	1.31081 	-0.00207869 	3.13347 	-1.79955e-19
5.68089 	1.31081 	-0.00207869 	3.13347 	-1.79955e-19
5.75102 	1.31081 	-0.00207869 	3.13347 	-1.79955e-19
5.82115 	1.31081 	-0.00207869 	3.13347 	-1.79955e-19
5.89129 	1.31081 	-0.00207869 	3.13347 	-1.79955e-19
5.96142 	1.31081 	-0.00207869 	3.13347 	-1.79955e-19
6.03156 	1.31081 	-0.00207869 	3.13347 	-1.79955e-19
6.10169 	1.31081 	-0.00207869 	3.13347 	-1.79955e-19
6.17183 	1.31081 	-0.00207869 	3.13347 	-1.79955e-19
6.24196 	1.31081 	-0.00207869 	3.13347 	-1.79955e-19
6.3121 	1.31081 	-0.00207869 	3.13347 	-1.79955e-19
6.38223 	1.31081 	-0.00207869 	3.13347 	-1.79955e-19
6.45236 	1.2396 	0.00524677 	3.15339 	0
6.5225 	1.2396 	0.00524677 	3.15339 	0
6.59263 	1.2396 	0.00524677 	3.15339 	0
6.66277 	1.2396 	0.00524677 	3.15339 	0
6.7329 	1.2396 	0.00524677 	3.15339 	0
6.80304 	1.2396 	0.00524677 	3.15339 	0
6.87317 	1.2396 	0.00524677 	3.15339 	0
6.9433 	1.2396 	0.00524677 	3.15339 	0
7.01344 	1.2396 	0.00524677 	3.15339 	0
7.08357 	1.2396 	0.00524677 	3.15339 	0
7.15371 	1.2396 	0.00524677 	3.15339 	0
7.22384 	1.2396 	0.00524677 	3.15339 	0
7.29398 	1.17164 	-0.00134618 	3.17773 	0
7.36411 	1.17164 	-0.00134618 	3.17773 	0
7.43425 	1.17164 	-0.00134618 	3.17773 	0
7.50438 	1.17164 	-0.00134618 	3.17773 	0
7.57451 	1.17164 	-0.00134618 	3.17773 	0
7.64465 	1.17164 	-0.00134618 	3.17773 	0
7.71478 	1.17164 	-0.00134618 	3.17773 	0
7.78492 	1.17164 	-0.00134618 	3.17773 	0
7.85505 	1.17164 	-0.00134618 	3.17773 	0
7.92519 	1.17164 	-0.00134618 	3.17773 	0
7.99532 	1.17164 	-0.00134618 	3.17773 	0
8.06545 	1.17164 	-0.00134618 	3.17773 	0
8.13559 	1.17164 	-0.00134618 	3.17773 	0
8.20572 	1.10448 	0.00741695 	3.19606 	3.64514e-22
8.27586 	1.10448 	0.00741695 	3.19606 	3.64514e-22
8.34599 	1.10448 	0.00741695 	3.19606 	3.64514e-22
8.41613 	1.10448 	0.00741695 	3.19606 	3.64514e-22
8.48626 	1.10448 	0.00741695 	3.19606 	3.64514e-22
8.5564 	1.10448 	0.00741695 	3.19606 	3.64514e-22
8.62653 	1.10448 	0.00741695 	3.19606 	3.64514e-22
8.69666 	1.10448 	0.00741695 	3.19606 	3.64514e-22
8.7668 	1.10448 	0.00741695 	3.19606 	3.64514e-22
8.83693 	1.10448 	0.00741695 	3.19606 	3.64514e-22
8.90707 	1.10448 	0.00741695 	3.19606 	3.64514e-22
8.9772 	1.10448 	0.00741695 	3.19606 	3.64514e-22
9.04734 	1.03801 	0.00311356 	3.21966 	2.68139e-19
9.11747 	1.03801 	0.00311356 	3.21966 	2.68139e-19
9.18761 	1.03801 	0.00311356 	3.21966 	2.68139e-19
9.25774 	1.03801 	0.00311356 	3.21966 	2.68139e-19
9.32787 	1.03801 	0.00311356 	3.21966 	2.68139e-19
9.39801 	1.03801 	0.00311356 	3.21966 	2.68139e-19
9.46814 	1.03801 	0.00311356 	3.21966 	2.68139e-19
9.53828 	1.03801 	0.00311356 	3.21966 	2.68139e-19
9.60841 	1.03801 	0.00311356 	3.21966 	2.68139e-19
9.67855 	1.03801 	0.00311356 	3.21966 	2.68139e-19
9.74868 	1.03801 	0.00311356 	3.21966 	2.68139e-19
9.81881 	1.03801 	0.00311356 	3.21966 	2.68139e-19
9.88895 	1.03801 	0.00311356 	3.21966 	2.68139e-19
9.95908 	0.970725 	0.0164722 	3.23781 	-2.17878e-21
10.0292 	0.970725 	0.0164722 	3.23781 	-2.17878e-21
10.0994 	0.970725 	0.0164722 	3.23781 	-2.17878e-21
10.1695 	0.970725 	0.0164722 	3.23781 	-2.17878e-21
10.2396 	0.970725 	0.0164722 	3.23781 	-2.17878e-21
10.3098 	0.970725 	0.0164722 	3.23781 	-2.17878e-21
10.3799 	0.970725 	0.0164722 	3.23781 	-2.17878e-21
10.45 	0.970725 	0.0164722 	3.23781 	-2.17878e-21
10.5202 	0.970725 	0.0164722 	3.23781 	-2.17878e-21
10.5903 	0.970725 	0.0164722 	3.23781 	-2.17878e-21
10.6604 	0.970725 	0.0164722 	3.23781 	-2.17878e-21
10.7306 	0.970725 	0.0164722 	3.23781 	-2.17878e-21
10.8007 	0.902904 	0.021575 	3.26144 	-2.63775e-19
10.8708 	0.902904 	0.021575 	3.26144 	-2.63775e-19
10.941 	0.902904 	0.021575 	3.26144 	-2.63775e-19
11.0111 	0.902904 	0.021575 	3.26144 	-2.63775e-19
11.0812 	0.902904 	0.021575 	3.26144 	-2.63775e-19
11.1514 	0.902904 	0.021575 	3.26144 	-2.63775e-19
11.2215 	0.902904 	0.021575 	3.26144 	-2.63775e-19
11.2916 	0.902904 	0.021575 	3.26144 	-2.63775e-19
11.3618 	0.902904 	0.021575 	3.26144 	-2.63775e-19
11.4319 	0.902904 	0.021575 	3.26144 	-2.63775e-19
11.502 	0.902904 	0.021575 	3.26144 	-2.63775e-19
11.5722 	0.902904 	0.021575 	3.26144 	-2.63775e-19
11.6423 	0.902904 	0.021575 	3.26144 	-2.63775e-19
11.7124 	0.830237 	0.0513825 	3.28154 	-4.06926e-19
11.7826 	0.830237 	0.0513825 	3.28154 	-4.06926e-19
11.8527 	0.830237 	0.0513825 	3.28154 	-4.06926e-19
11.9228 	0.830237 	0.0513825 	3.28154 	-4.06926e-19
11.993 	0.830237 	0.0513825 	3.28154 	-4.06926e-19
12.0631 	0.830237 	0.0513825 	3.28154 	-4.06926e-19
12.1332 	0.830237 	0.0513825 	3.28154 	-4.06926e-19
12.2034 	0.830237 	0.0513825 	3.28154 	-4.06926e-19
12.2735 	0.830237 	0.0513825 	3.28154 	-4.06926e-19
12.3437 	0.830237 	0.0513825 	3.28154 	-4.06926e-19
12.4138 	0.830237 	0.0513825 	3.28154 	-4.06926e-19
12.4839 	0.830237 	0.0513825 	3.28154 	-4.06926e-19
12.5541 	0.830237 	0.0513825 	3.28154 	-4.06926e-19
12.6242 	0.749202 	0.0763538 	3.30718 	7.82412e-19
12.6943 	0.749202 	0.0763538 	3.30718 	7.82412e-19
12.7645 	0.749202 	0.0763538 	3.30718 	7.82412e-19
12.8346 	0.749202 	0.0763538 	3.30718 	7.82412e-19
12.9047 	0.749202 	0.0763538 	3.30718 	7.82412e-19
12.9749 	0.749202 	0.0763538 	3.30718 	7.82412e-19
13.045 	0.749202 	0.0763538 	3.30718 	7.82412e-19
13.1151 	0.749202 	0.0763538 	3.30718 	7.82412e-19
13.1853 	0.749202 	0.0763538 	3.30718 	7.82412e-19
13.2554 	0.749202 	0.0763538 	3.30718 	7.82412e-19
13.3255 	0.749202 	0.0763538 	3.30718 	7.82412e-19
13.3957 	0.749202 	0.0763538 	3.30718 	7.82412e-19
13.4658 	0.749202 	0.0763538 	3.30718 	7.82412e-19
13.5359 	0.646726 	0.149591 	3.34131 	-3.77243e-19
13.6061 	0.646726 	0.149591 	3.34131 	-3.77243e-19
13.6762 	0.646726 	0.149591 	3.34131 	-3.77243e-19
13.7463 	0.646726 	0.149591 	3.34131 	-3.77243e-19
13.8165 	0.646726 	0.149591 	3.34131 	-3.77243e-19
13.8866 	0.646726 	0.149591 	3.34131 	-3.77243e-19
13.9567 	0.646726 	0.149591 	3.34131 	-3.77243e-19
14.0269 	0.646726 	0.149591 	3.34131 	-3.77243e-19
14.097 	0.646726 	0.149591 	3.34131 	-3.77243e-19
14.1671 	0.646726 	0.149591 	3.34131 	-3.77243e-19
14.2373 	0.646726 	0.149591 	3.34131 	-3.77243e-19
14.3074 	0.646726 	0.149591 	3.34131 	-3.77243e-19
14.3776 	0.551114 	0.173482 	3.35989 	0
14.4477 	0.350955 	0.172533 	3.41782 	3.5212e-19
14.5178 	0.350955 	0.172533 	3.41782 	3.5212e-19
14.588 	0.350955 	0.172533 	3.41782 	3.5212e-19
14.6581 	0.350955 	0.172533 	3.41782 	3.5212e-19
14.7282 	0.350955 	0.172533 	3.41782 	3.5212e-19
14.7984 	0.350955 	0.172533 	3.41782 	3.5212e-19
14.8685 	0.378451 	0.19714 	3.40804 	-7.11348e-19
14.9386 	0.378451 	0.19714 	3.40804 	-7.11348e-19
15.0088 	0.378451 	0.19714 	3.40804 	-7.11348e-19
15.0789 	0.378451 	0.19714 	3.40804 	-7.11348e-19
15.149 	0.378451 	0.19714 	3.40804 	-7.11348e-19
15.2192 	0.141609 	0.261781 	3.47447 	3.42159e-19
15.2893 	0.141609 	0.261781 	3.47447 	3.42159e-19
15.3594 	0.141609 	0.261781 	3.47447 	3.42159e-19
15.4296 	0.27121 	0.330684 	3.42943 	4.97349e-20
15.4997 	0.27121 	0.330684 	3.42943 	4.97349e-20
15.5698 	0.27121 	0.330684 	3.42943 	4.97349e-20
15.64 	0.27121 	0.330684 	3.42943 	4.97349e-20
15.7101 	0.27121 	0.330684 	3.42943 	4.97349e-20
15.7802 	0.27121 	0.330684 	3.42943 	4.97349e-20
15.8504 	0.27121 	0.330684 	3.42943 	4.97349e-20
15.9205 	0.0178271 	0.334882 	3.52872 	9.14604e-20
15.9906 	0.0178271 	0.334882 	3.52872 	9.14604e-20
16.0608 	0.0178271 	0.334882 	3.52872 	9.14604e-20
16.1309 	0.230357 	0.420436 	3.44011 	2.05775e-19
16.201 	0.230357 	0.420436 	3.44011 	2.05775e-19
16.2712 	0.230357 	0.420436 	3.44011 	2.05775e-19
16.3413 	0.230357 	0.420436 	3.44011 	2.05775e-19
16.4114 	0.230357 	0.420436 	3.44011 	2.05775e-19
16.4816 	0.230357 	0.420436 	3.44011 	2.05775e-19
16.5517 	0.230357 	0.420436 	3.44011 	2.05775e-19
16.6219 	0.0469725 	0.519504 	3.51647 	0
16.692 	0.0469725 	0.519504 	3.51647 	0
16.7621 	0.0469725 	0.519504 	3.51647 	0
16.8323 	0.0469725 	0.519504 	3.51647 	0
16.9024 	0.0469725 	0.519504 	3.51647 	0
16.9725 	0.27776 	0.527973 	3.4206 	1.93281e-19
17.0427 	0.27776 	0.527973 	3.4206 	1.93281e-19
17.1128 	0.27776 	0.527973 	3.4206 	1.93281e-19
17.1829 	0.27776 	0.527973 	3.4206 	1.93281e-19
17.2531 	0.127131 	0.610845 	3.47179 	1.40241e-19
17.3232 	0.127131 	0.610845 	3.47179 	1.40241e-19
17.3933 	0.127131 	0.610845 	3.47179 	1.40241e-19
17.4635 	0.127131 	0.610845 	3.47179 	1.40241e-19
17.5336 	0.127131 	0.610845 	3.47179 	1.40241e-19
17.6037 	0.127131 	0.610845 	3.47179 	1.40241e-19
17.6739 	0.127131 	0.610845 	3.47179 	1.40241e-19
17.744 	0.127131 	0.610845 	3.47179 	1.40241e-19
17.8141 	0.127131 	0.610845 	3.47179 	1.40241e-19
17.8843 	0.127131 	0.610845 	3.47179 	1.40241e-19
17.9544 	0.203308 	0.626919 	3.39266 	0
18.0245 	0.203308 	0.626919 	3.39266 	0
18.0947 	0.203308 	0.626919 	3.39266 	0
18.1648 	0.203308 	0.626919 	3.39266 	0
18.2349 	0.203308 	0.626919 	3.39266 	0
18.3051 	0.203308 	0.626919 	3.39266 	0
18.3752 	0.203308 	0.626919 	3.39266 	0
18.4453 	0.203308 	0.626919 	3.39266 	0
18.5155 	0.203308 	0.626919 	3.39266 	0
18.5856 	0.11053 	0.717703 	3.4352 	0
18.6557 	0.11053 	0.717703 	3.4352 	0
18.7259 	0.11053 	0.717703 	3.4352 	0
18.796 	0.11053 	0.717703 	3.4352 	0
18.8662 	0.11053 	0.717703 	3.4352 	0
18.9363 	0.11053 	0.717703 	3.4352 	0
19.0064 	0.11053 	0.717703 	3.4352 	0
19.0766 	0.11053 	0.717703 	3.4352 	0
19.1467 	0.11053 	0.717703 	3.4352 	0
19.2168 	0.0608302 	0.762074 	3.41406 	2.8933e-20
19.287 	0.286832 	0.687654 	3.21524 	-5.5434e-20
19.3571 	0.286832 	0.687654 	3.21524 	-5.5434e-20
19.4272 	0.286832 	0.687654 	3.21524 	-5.5434e-20
19.4974 	0.286832 	0.687654 	3.21524 	-5.5434e-20
19.5675 	0.286832 	0.687654 	3.21524 	-5.5434e-20
19.6376 	0.286832 	0.687654 	3.21524 	-5.5434e-20
19.7078 	0.286832 	0.687654 	3.21524 	-5.5434e-20
19.7779 	0.286832 	0.687654 	3.21524 	-5.5434e-20
19.848 	0.286832 	0.687654 	3.21524 	-5.5434e-20
19.9182 	0.233674 	0.751781 	3.29089 	-2.12308e-19
19.9883 	0.233674 	0.751781 	3.29089 	-2.12308e-19
20.0584 	0.233674 	0.751781 	3.29089 	-2.12308e-19
20.1286 	0.233674 	0.751781 	3.29089 	-2.12308e-19
20.1987 	0.233674 	0.751781 	3.29089 	-2.12308e-19
20.2688 	0.233674 	0.751781 	3.29089 	-2.12308e-19
20.339 	0.233674 	0.751781 	3.29089 	-2.12308e-19
20.4091 	0.233674 	0.751781 	3.29089 	-2.12308e-19
20.4792 	0.233674 	0.751781 	3.29089 	-2.12308e-19
20.5494 	0.233674 	0.751781 	3.29089 	-2.12308e-19
20.6195 	0.173224 	0.799657 	3.31705 	1.40621e-20
20.6896 	0.173224 	0.799657 	3.31705 	1.40621e-20
20.7598 	0.173224 	0.799657 	3.31705 	1.40621e-20
20.8299 	0.173224 	0.799657 	3.31705 	1.40621e-20
20.9 	0.254599 	0.695408 	2.76763 	-2.93399e-19
20.9702 	0.254599 	0.695408 	2.76763 	-2.93399e-19
21.0403 	0.254599 	0.695408 	2.76763 	-2.93399e-19
21.1105 	0.254599 	0.695408 	2.76763 	-2.93399e-19
21.1806 	0.254599 	0.695408 	2.76763 	-2.93399e-19
21.2507 	0.254599 	0.695408 	2.76763 	-2.93399e-19
21.3209 	0.213925 	0.749033 	2.95422 	0
21.391 	0.213925 	0.749033 	2.95422 	0
21.4611 	0.213925 	0.749033 	2.95422 	0
21.5313 	0.213925 	0.749033 	2.95422 	0
21.6014 	0.213925 	0.749033 	2.95422 	0
21.6715 	0.213925 	0.749033 	2.95422 	0
21.7417 	0.213925 	0.749033 	2.95422 	0
21.8118 	0.213925 	0.749033 	2.95422 	0
21.8819 	0.213925 	0.749033 	2.95422 	0
21.9521 	0.213925 	0.749033 	2.95422 	0
22.0222 	0.213925 	0.749033 	2.95422 	0
22.0923 	0.171466 	0.795659 	3.07438 	-1.10316e-19
22.1625 	0.171466 	0.795659 	3.07438 	-1.10316e-19
22.2326 	0.171466 	0.795659 	3.07438 	-1.10316e-19
22.3027 	0.171466 	0.795659 	3.07438 	-1.10316e-19
22.3729 	0.171466 	0.795659 	3.07438 	-1.10316e-19
22.443 	0.171466 	0.795659 	3.07438 	-1.10316e-19
22.5131 	0.171466 	0.795659 	3.07438 	-1.10316e-19
22.5833 	0.171466 	0.795659 	3.07438 	-1.10316e-19
22.6534 	0.171466 	0.795659 	3.07438 	-1.10316e-19
22.7235 	0.171466 	0.795659 	3.07438 	-1.10316e-19
22.7937 	0.171466 	0.795659 	3.07438 	-1.10316e-19
22.8638 	0.11963 	0.837452 	3.14444 	1.73637e-19
22.9339 	0.11963 	0.837452 	3.14444 	1.73637e-19
23.0041 	0.11963 	0.837452 	3.14444 	1.73637e-19
23.0742 	0.128944 	0.682535 	2.26757 	7.03524e-20
23.1443 	0.128944 	0.682535 	2.26757 	7.03524e-20
23.2145 	0.128944 	0.682535 	2.26757 	7.03524e-20
23.2846 	0.128944 	0.682535 	2.26757 	7.03524e-20
23.3548 	0.128944 	0.682535 	2.26757 	7.03524e-20
23.4249 	0.128944 	0.682535 	2.26757 	7.03524e-20
23.495 	0.128944 	0.682535 	2.26757 	7.03524e-20
23.5652 	0.128944 	0.682535 	2.26757 	7.03524e-20
23.6353 	0.128944 	0.682535 	2.26757 	7.03524e-20
23.7054 	0.0812233 	0.723618 	2.44848 	-2.99094e-21
23.7756 	0.0812233 	0.723618 	2.44848 	-2.99094e-21
23.8457 	0.0812233 	0.723618 	2.44848 	-2.99094e-21
23.9158 	0.0812233 	0.723618 	2.44848 	-2.99094e-21
23.986 	0.0812233 	0.723618 	2.44848 	-2.99094e-21
24.0561 	0.0812233 	0.723618 	2.44848 	-2.99094e-21
24.1262 	0.0812233 	0.723618 	2.44848 	-2.99094e-21
24.1964 	0.0812233 	0.723618 	2.44848 	-2.99094e-21
24.2665 	0.0812233 	0.723618 	2.44848 	-2.99094e-21
24.3366 	0.0812233 	0.723618 	2.44848 	-2.99094e-21
24.4068 	0.0812233 	0.723618 	2.44848 	-2.99094e-21
24.4769 	0.0812233 	0.723618 	2.44848 	-2.99094e-21
24.547 	0.0812233 	0.723618 	2.44848 	-2.99094e-21
24.6172 	0.0381275 	0.764843 	2.60372 	4.61157e-20
24.6873 	0.0381275 	0.764843 	2.60372 	4.61157e-20
24.7574 	0.0381275 	0.764843 	2.60372 	4.61157e-20
24.8276 	0.0381275 	0.764843 	2.60372 	4.61157e-20
24.8977 	0.0381275 	0.764843 	2.60372 	4.61157e-20
24.9678 	0.0381275 	0.764843 	2.60372 	4.61157e-20
25.038 	0.0381275 	0.764843 	2.60372 	4.61157e-20
25.1081 	0.0381275 	0.764843 	2.60372 	4.61157e-20
25.1782 	0.0381275 	0.764843 	2.60372 	4.61157e-20
25.2484 	0.0381275 	0.764843 	2.60372 	4.61157e-20
25.3185 	0.0381275 	0.764843 	2.60372 	4.61157e-20
25.3886 	0.0381275 	0.764843 	2.60372 	4.61157e-20
25.4588 	-0.00288496 	0.800369 	2.72396 	-3.09363e-21
25.5289 	-0.00288496 	0.800369 	2.72396 	-3.09363e-21
25.5991 	-0.00288496 	0.800369 	2.72396 	-3.09363e-21
25.6692 	-0.00288496 	0.800369 	2.72396 	-3.09363e-21
25.7393 	-0.00288496 	0.800369 	2.72396 	-3.09363e-21
25.8095 	-0.00288496 	0.800369 	2.72396 	-3.09363e-21
25.8796 	-0.00288496 	0.800369 	2.72396 	-3.09363e-21
25.9497 	-0.00288496 	0.800369 	2.72396 	-3.09363e-21
26.0199 	-0.00288496 	0.800369 	2.72396 	-3.09363e-21
26.09 	-0.00497059 	0.608718 	1.76806 	-1.11862e-20
26.1601 	-0.00497059 	0.608718 	1.76806 	-1.11862e-20
26.2303 	-0.00497059 	0.608718 	1.76806 	-1.11862e-20
26.3004 	-0.00497059 	0.608718 	1.76806 	-1.11862e-20
26.3705 	-0.00497059 	0.608718 	1.76806 	-1.11862e-20
26.4407 	-0.0501646 	0.620549 	1.85336 	-2.08138e-20
26.5108 	-0.0501646 	0.620549 	1.85336 	-2.08138e-20
26.5809 	-0.0501646 	0.620549 	1.85336 	-2.08138e-20
26.6511 	-0.0501646 	0.620549 	1.85336 	-2.08138e-20
26.7212 	-0.0501646 	0.620549 	1.85336 	-2.08138e-20
26.7913 	-0.0501646 	0.620549 	1.85336 	-2.08138e-20
26.8615 	-0.0501646 	0.620549 	1.85336 	-2.08138e-20
26.9316 	-0.0501646 	0.620549 	1.85336 	-2.08138e-20
27.0017 	-0.0501646 	0.620549 	1.85336 	-2.08138e-20
27.0719 	-0.0501646 	0.620549 	1.85336 	-2.08138e-20
27.142 	-0.0501646 	0.620549 	1.85336 	-2.08138e-20
27.2121 	-0.0501646 	0.620549 	1.85336 	-2.08138e-20
27.2823 	-0.0501646 	0.620549 	1.85336 	-2.08138e-20
27.3524 	-0.0943373 	0.632262 	1.92421 	0
27.4225 	-0.0943373 	0.632262 	1.92421 	0
27.4927 	-0.0943373 	0.632262 	1.92421 	0
27.5628 	-0.0943373 	0.632262 	1.92421 	0
27.6329 	-0.0943373 	0.632262 	1.92421 	0
27.7031 	-0.0943373 	0.632262 	1.92421 	0
27.7732 	-0.0943373 	0.632262 	1.92421 	0
27.8434 	-0.0943373 	0.632262 	1.92421 	0
27.9135 	-0.0943373 	0.632262 	1.92421 	0
27.9836 	-0.0943373 	0.632262 	1.92421 	0
28.0538 	-0.0943373 	0.632262 	1.92421 	0
28.1239 	-0.0943373 	0.632262 	1.92421 	0
28.194 	-0.0943373 	0.632262 	1.92421 	0
28.2642 	-0.0943373 	0.632262 	1.92421 	0
28.3343 	-0.0943373 	0.632262 	1.92421 	0
28.4044 	-0.135225 	0.635536 	1.98703 	0
28.4746 	-0.135225 	0.635536 	1.98703 	0
28.5447 	-0.135225 	0.635536 	1.98703 	0
28.6148 	-0.135225 	0.635536 	1.98703 	0
28.685 	-0.135225 	0.635536 	1.98703 	0
28.7551 	-0.135225 	0.635536 	1.98703 	0
28.8252 	-0.135225 	0.635536 	1.98703 	0
28.8954 	-0.135225 	0.635536 	1.98703 	0
28.9655 	-0.135225 	0.635536 	1.98703 	0
29.0356 	-0.135225 	0.635536 	1.98703 	0
29.1058 	-0.135225 	0.635536 	1.98703 	0
29.1759 	-0.135225 	0.635536 	1.98703 	0
29.246 	-0.135225 	0.635536 	1.98703 	0
29.3162 	-0.135225 	0.635536 	1.98703 	0
29.3863 	-0.135225 	0.635536 	1.98703 	0
29.4564 	-0.171041 	0.634447 	2.01465 	-7.84526e-20
29.5266 	-0.171041 	0.634447 	2.01465 	-7.84526e-20
29.5967 	-0.171041 	0.634447 	2.01465 	-7.84526e-20
29.6668 	-0.171041 	0.634447 	2.01465 	-7.84526e-20
29.737 	-0.171041 	0.634447 	2.01465 	-7.84526e-20
29.8071 	-0.171041 	0.634447 	2.01465 	-7.84526e-20
29.8773 	-0.171041 	0.634447 	2.01465 	-7.84526e-20
29.9474 	-0.171041 	0.634447 	2.01465 	-7.84526e-20
30.0175 	-0.171041 	0.634447 	2.01465 	-7.84526e-20
30.0877 	-0.171041 	0.634447 	2.01465 	-7.84526e-20
30.1578 	-0.171041 	0.634447 	2.01465 	-7.84526e-20
30.2279 	-0.171041 	0.634447 	2.01465 	-7.84526e-20
30.2981 	-0.171041 	0.634447 	2.01465 	-7.84526e-20
30.3682 	-0.171041 	0.634447 	2.01465 	-7.84526e-20
30.4383 	-0.171041 	0.634447 	2.01465 	-7.84526e-20
30.5085 	-0.171041 	0.634447 	2.01465 	-7.84526e-20
30.5786 	-0.200714 	0.621182 	2.01722 	-3.54623e-21
30.6487 	-0.200714 	0.621182 	2.01722 	-3.54623e-21
30.7189 	-0.200714 	0.621182 	2.01722 	-3.54623e-21
30.789 	-0.200714 	0.621182 	2.01722 	-3.54623e-21
30.8591 	-0.200714 	0.621182 	2.01722 	-3.54623e-21
30.9293 	-0.200714 	0.621182 	2.01722 	-3.54623e-21
30.9994 	-0.200714 	0.621182 	2.01722 	-3.54623e-21
31.0695 	-0.200714 	0.621182 	2.01722 	-3.54623e-21
31.1397 	-0.200714 	0.621182 	2.01722 	-3.54623e-21
31.2098 	-0.200714 	0.621182 	2.01722 	-3.54623e-21
31.2799 	-0.200714 	0.621182 	2.01722 	-3.54623e-21
31.3501 	-0.200714 	0.621182 	2.01722 	-3.54623e-21
31.4202 	-0.200714 	0.621182 	2.01722 	-3.54623e-21
31.4903 	-0.200714 	0.621182 	2.01722 	-3.54623e-21
31.5605 	-0.25077 	0.514485 	1.65428 	-1.56388e-19
31.6306 	-0.25077 	0.514485 	1.65428 	-1.56388e-19
31.7007 	-0.266808 	0.497395 	1.6627 	9.67993e-20
31.7709 	-0.266808 	0.497395 	1.6627 	9.67993e-20
31.841 	-0.266808 	0.497395 	1.6627 	9.67993e-20
31.9111 	-0.266808 	0.497395 	1.6627 	9.67993e-20
31.9813 	-0.266808 	0.497395 	1.6627 	9.67993e-20
32.0514 	-0.266808 	0.497395 	1.6627 	9.67993e-20
32.1216 	-0.266808 	0.497395 	1.6627 	9.67993e-20
32.1917 	-0.266808 	0.497395 	1.6627 	9.67993e-20
32.2618 	-0.266808 	0.497395 	1.6627 	9.67993e-20
32.332 	-0.266808 	0.497395 	1.6627 	9.67993e-20
32.4021 	-0.266808 	0.497395 	1.6627 	9.67993e-20
32.4722 	-0.266808 	0.497395 	1.6627 	9.67993e-20
32.5424 	-0.266808 	0.497395 	1.6627 	9.67993e-20
32.6125 	-0.266808 	0.497395 	1.6627 	9.67993e-20
32.6826 	-0.266808 	0.497395 	1.6627 	9.67993e-20
32.7528 	-0.266808 	0.497395 	1.6627 	9.67993e-20
32.8229 	-0.266808 	0.497395 	1.6627 	9.67993e-20
32.893 	-0.266808 	0.497395 	1.6627 	9.67993e-20
32.9632 	-0.269109 	0.478102 	1.66176 	2.64755e-20
33.0333 	-0.269109 	0.478102 	1.66176 	2.64755e-20
33.1034 	-0.269109 	0.478102 	1.66176 	2.64755e-20
33.1736 	-0.269109 	0.478102 	1.66176 	2.64755e-20
33.2437 	-0.269109 	0.478102 	1.66176 	2.64755e-20
33.3138 	-0.269109 	0.478102 	1.66176 	2.64755e-20
33.384 	-0.269109 	0.478102 	1.66176 	2.64755e-20
33.4541 	-0.269109 	0.478102 	1.66176 	2.64755e-20
33.5242 	-0.269109 	0.478102 	1.66176 	2.64755e-20
33.5944 	-0.269109 	0.478102 	1.66176 	2.64755e-20
33.6645 	-0.269109 	0.478102 	1.66176 	2.64755e-20
33.7346 	-0.269109 	0.478102 	1.66176 	2.64755e-20
33.8048 	-0.269109 	0.478102 	1.66176 	2.64755e-20
33.8749 	-0.269109 	0.478102 	1.66176 	2.64755e-20
33.945 	-0.269109 	0.478102 	1.66176 	2.64755e-20
34.0152 	-0.269109 	0.478102 	1.66176 	2.64755e-20
34.0853 	-0.269109 	0.478102 	1.66176 	2.64755e-20
34.1554 	-0.269109 	0.478102 	1.66176 	2.64755e-20
34.2256 	-0.254366 	0.45271 	1.64868 	-1.95343e-20
34.2957 	-0.254366 	0.45271 	1.64868 	-1.95343e-20
34.3659 	-0.254366 	0.45271 	1.64868 	-1.95343e-20
34.436 	-0.254366 	0.45271 	1.64868 	-1.95343e-20
34.5061 	-0.254366 	0.45271 	1.64868 	-1.95343e-20
34.5763 	-0.254366 	0.45271 	1.64868 	-1.95343e-20
34.6464 	-0.254366 	0.45271 	1.64868 	-1.95343e-20
34.7165 	-0.254366 	0.45271 	1.64868 	-1.95343e-20
34.7867 	-0.254366 	0.45271 	1.64868 	-1.95343e-20
34.8568 	-0.254366 	0.45271 	1.64868 	-1.95343e-20
34.9269 	-0.254366 	0.45271 	1.64868 	-1.95343e-20
34.9971 	-0.254366 	0.45271 	1.64868 	-1.95343e-20
35.0672 	-0.254366 	0.45271 	1.64868 	-1.95343e-20
35.1373 	-0.254366 	0.45271 	1.64868 	-1.95343e-20
35.2075 	-0.254366 	0.45271 	1.64868 	-1.95343e-20
35.2776 	-0.254366 	0.45271 	1.64868 	-1.95343e-20
35.3477 	-0.254366 	0.45271 	1.64868 	-1.95343e-20
35.4179 	-0.254366 	0.45271 	1.64868 	-1.95343e-20
35.488 	-0.254366 	0.45271 	1.64868 	-1.95343e-20
35.5581 	-0.254366 	0.45271 	1.64868 	-1.95343e-20
35.6283 	-0.219536 	0.418698 	1.62752 	-5.19371e-21
35.6984 	-0.219536 	0.418698 	1.62752 	-5.19371e-21
35.7685 	-0.219536 	0.418698 	1.62752 	-5.19371e-21
35.8387 	-0.219536 	0.418698 	1.62752 	-5.19371e-21
35.9088 	-0.219536 	0.418698 	1.62752 	-5.19371e-21
35.9789 	-0.219536 	0.418698 	1.62752 	-5.19371e-21
36.0491 	-0.219536 	0.418698 	1.62752 	-5.19371e-21
36.1192 	-0.219536 	0.418698 	1.62752 	-5.19371e-21
36.1893 	-0.219536 	0.418698 	1.62752 	-5.19371e-21
36.2595 	-0.219536 	0.418698 	1.62752 	-5.19371e-21
36.3296 	-0.219536 	0.418698 	1.62752 	-5.19371e-21
36.3997 	-0.219536 	0.418698 	1.62752 	-5.19371e-21
36.4699 	-0.219536 	0.418698 	1.62752 	-5.19371e-21
36.54 	-0.219536 	0.418698 	1.62752 	-5.19371e-21
36.6102 	-0.219536 	0.418698 	1.62752 	-5.19371e-21
36.6803 	-0.219536 	0.418698 	1.62752 	-5.19371e-21
36.7504 	-0.219536 	0.418698 	1.62752 	-5.19371e-21
36.8206 	-0.219536 	0.418698 	1.62752 	-5.19371e-21
36.8907 	-0.219536 	0.418698 	1.62752 	-5.19371e-21
36.9608 	-0.219536 	0.418698 	1.62752 	-5.19371e-21
37.031 	-0.219536 	0.418698 	1.62752 	-5.19371e-21
37.1011 	-0.180466 	0.371679 	1.6022 	0
37.1712 	-0.180466 	0.371679 	1.6022 	0
37.2414 	-0.180466 	0.371679 	1.6022 	0
37.3115 	-0.180466 	0.371679 	1.6022 	0
37.3816 	-0.180466 	0.371679 	1.6022 	0
37.4518 	-0.180466 	0.371679 	1.6022 	0
37.5219 	-0.180466 	0.371679 	1.6022 	0
37.592 	-0.180466 	0.371679 	1.6022 	0
37.6622 	-0.180466 	0.371679 	1.6022 	0
37.7323 	-0.180466 	0.371679 	1.6022 	0
37.8024 	-0.180466 	0.371679 	1.6022 	0
37.8726 	-0.180466 	0.371679 	1.6022 	0
37.9427 	-0.180466 	0.371679 	1.6022 	0
38.0128 	-0.180466 	0.371679 	1.6022 	0
38.083 	-0.180466 	0.371679 	1.6022 	0
38.1531 	-0.180466 	0.371679 	1.6022 	0
38.2232 	-0.180466 	0.371679 	1.6022 	0
38.2934 	-0.151995 	0.317325 	1.58497 	0
38.3635 	-0.151995 	0.317325 	1.58497 	0
38.4336 	-0.151995 	0.317325 	1.58497 	0
38.5038 	-0.151995 	0.317325 	1.58497 	0
38.5739 	-0.151995 	0.317325 	1.58497 	0
38.644 	-0.151995 	0.317325 	1.58497 	0
38.7142 	-0.151995 	0.317325 	1.58497 	0
38.7843 	-0.151995 	0.317325 	1.58497 	0
38.8545 	-0.151995 	0.317325 	1.58497 	0
38.9246 	-0.151995 	0.317325 	1.58497 	0
38.9947 	-0.151995 	0.317325 	1.58497 	0
39.0649 	-0.151995 	0.317325 	1.58497 	0
39.135 	-0.151995 	0.317325 	1.58497 	0
39.2051 	-0.151995 	0.317325 	1.58497 	0
39.2753 	-0.151995 	0.317325 	1.58497 	0
39.3454 	-0.151995 	0.317325 	1.58497 	0
39.4155 	-0.151995 	0.317325 	1.58497 	0
39.4857 	-0.151995 	0.317325 	1.58497 	0
39.5558 	-0.137065 	0.259533 	1.57633 	0
39.6259 	-0.137065 	0.259533 	1.57633 	0
39.6961 	-0.137065 	0.259533 	1.57633 	0
39.7662 	-0.137065 	0.259533 	1.57633 	0
39.8363 	-0.137065 	0.259533 	1.57633 	0
39.9065 	-0.137065 	0.259533 	1.57633 	0
39.9766 	-0.137065 	0.259533 	1.57633 	0
40.0467 	-0.137065 	0.259533 	1.57633 	0
40.1169 	-0.137065 	0.259533 	1.57633 	0
40.187 	-0.137065 	0.259533 	1.57633 	0
40.2571 	-0.137065 	0.259533 	1.57633 	0
40.3273 	-0.137065 	0.259533 	1.57633 	0
40.3974 	-0.137065 	0.259533 	1.57633 	0
40.4675 	-0.137065 	0.259533 	1.57633 	0
40.5377 	-0.137065 	0.259533 	1.57633 	0
40.6078 	-0.137065 	0.259533 	1.57633 	0
40.6779 	-0.137065 	0.259533 	1.57633 	0
40.7481 	-0.137382 	0.202783 	1.57795 	0
40.8182 	-0.137382 	0.202783 	1.57795 	0
40.8883 	-0.137382 	0.202783 	1.57795 	0
40.9585 	-0.137382 	0.202783 	1.57795 	0
41.0286 	-0.137382 	0.202783 	1.57795 	0
41.0988 	-0.137382 	0.202783 	1.57795 	0
41.1689 	-0.137382 	0.202783 	1.57795 	0
41.239 	-0.137382 	0.202783 	1.57795 	0
41.3092 	-0.137382 	0.202783 	1.57795 	0
41.3793 	-0.137382 	0.202783 	1.57795 	0
41.4494 	-0.137382 	0.202783 	1.57795 	0
41.5196 	-0.137382 	0.202783 	1.57795 	0
41.5897 	-0.137382 	0.202783 	1.57795 	0
41.6598 	-0.137382 	0.202783 	1.57795 	0
41.73 	-0.137382 	0.202783 	1.57795 	0
41.8001 	-0.137382 	0.202783 	1.57795 	0
41.8702 	-0.137382 	0.202783 	1.57795 	0
41.9404 	-0.137382 	0.202783 	1.57795 	0
42.0105 	-0.147308 	0.150282 	1.58411 	0
42.0806 	-0.147308 	0.150282 	1.58411 	0
42.1508 	-0.147308 	0.150282 	1.58411 	0
42.2209 	-0.147308 	0.150282 	1.58411 	0
42.291 	-0.147308 	0.150282 	1.58411 	0
42.3612 	-0.147308 	0.150282 	1.58411 	0
42.4313 	-0.147308 	0.150282 	1.58411 	0
42.5014 	-0.147308 	0.150282 	1.58411 	0
42.5716 	-0.147308 	0.150282 	1.58411 	0
42.6417 	-0.147308 	0.150282 	1.58411 	0
42.7118 	-0.147308 	0.150282 	1.58411 	0
42.782 	-0.147308 	0.150282 	1.58411 	0
42.8521 	-0.147308 	0.150282 	1.58411 	0
42.9222 	-0.147308 	0.150282 	1.58411 	0
42.9924 	-0.147308 	0.150282 	1.58411 	0
43.0625 	-0.147308 	0.150282 	1.58411 	0
43.1327 	-0.147308 	0.150282 	1.58411 	0
43.2028 	-0.158362 	0.103016 	1.59073 	0
43.2729 	-0.158362 	0.103016 	1.59073 	0
43.3431 	-0.158362 	0.103016 	1.59073 	0
43.4132 	-0.158362 	0.103016 	1.59073 	0
43.4833 	-0.158362 	0.103016 	1.59073 	0
43.5535 	-0.158362 	0.103016 	1.59073 	0
43.6236 	-0.158362 	0.103016 	1.59073 	0
43.6937 	-0.158362 	0.103016 	1.59073 	0
43.7639 	-0.158362 	0.103016 	1.59073 	0
43.834 	-0.158362 	0.103016 	1.59073 	0
43.9041 	-0.158362 	0.103016 	1.59073 	0
43.9743 	-0.158362 	0.103016 	1.59073 	0
44.0444 	-0.158362 	0.103016 	1.59073 	0
44.1145 	-0.158362 	0.103016 	1.59073 	0
44.1847 	-0.158362 	0.103016 	1.59073 	0
44.2548 	-0.158362 	0.103016 	1.59073 	0
44.3249 	-0.158362 	0.103016 	1.59073 	0