/*--------------------------------*- C++ -*----------------------------------*\
| =========                 |                                                 |
| \\      /  F ield         | OpenFOAM: The Open Source CFD Toolbox           |
|  \\    /   O peration     | Version:  2306                                  |
|   \\  /    A nd           | Website:  www.openfoam.com                      |
|    \\/     M anipulation  |                                                 |
\*---------------------------------------------------------------------------*/
FoamFile
{
    version     2.0;
    format      ascii;
    arch        "LSB;label=32;scalar=64";
    class       volScalarField;
    location    "49";
    object      p;
}
// * * * * * * * * * * * * * * * * * * * * * * * * * * * * * * * * * * * * * //

dimensions      [0 2 -2 0 0 0 0];

internalField   nonuniform List<scalar> 
8800
(
0.875757
0.827705
0.789327
0.760682
0.740052
0.72529
0.714677
0.70716
0.702304
0.700219
0.701479
0.705676
0.712341
0.721677
0.734431
0.752018
0.776461
0.810074
0.85252
0.909645
0.708292
0.715497
0.723934
0.727346
0.725426
0.719897
0.713175
0.706999
0.702224
0.699348
0.699049
0.701553
0.706061
0.712055
0.718964
0.725583
0.729714
0.729201
0.723138
0.71416
0.685006
0.691181
0.695377
0.698733
0.701227
0.702016
0.700894
0.698732
0.696674
0.695741
0.696689
0.699076
0.701903
0.704117
0.704648
0.703116
0.700268
0.696629
0.692095
0.688311
0.679881
0.68258
0.685297
0.687602
0.68924
0.690555
0.691449
0.691634
0.691346
0.691283
0.692015
0.693158
0.693939
0.693871
0.693072
0.691874
0.690123
0.687622
0.685196
0.683665
0.674701
0.676122
0.677917
0.679965
0.681708
0.683001
0.684011
0.684862
0.685513
0.686078
0.686699
0.687136
0.687153
0.686792
0.686089
0.684881
0.68318
0.681297
0.679974
0.679151
0.669709
0.670622
0.671853
0.673427
0.675069
0.676579
0.677832
0.678884
0.67985
0.680735
0.68139
0.681668
0.681588
0.68114
0.680258
0.679034
0.677676
0.676404
0.675581
0.675037
0.664861
0.665526
0.666478
0.667769
0.669172
0.670629
0.672055
0.67335
0.67452
0.675597
0.676382
0.676715
0.676607
0.676075
0.675237
0.674261
0.673235
0.672303
0.671715
0.671315
0.660133
0.660645
0.66142
0.662537
0.6638
0.665161
0.666593
0.668043
0.669436
0.670728
0.67169
0.67212
0.672056
0.67163
0.670992
0.670243
0.669452
0.668756
0.668319
0.668007
0.655462
0.655869
0.656517
0.657509
0.658698
0.660006
0.661428
0.662957
0.664541
0.666088
0.667275
0.667873
0.667981
0.667762
0.66734
0.666793
0.666198
0.665688
0.665361
0.665107
0.650766
0.651098
0.651657
0.65257
0.653708
0.654997
0.656448
0.658064
0.659824
0.661644
0.663126
0.663994
0.664358
0.664376
0.664169
0.663832
0.66342
0.663064
0.66282
0.662608
0.645962
0.646238
0.646735
0.6476
0.648719
0.650029
0.651546
0.65329
0.655261
0.657393
0.659248
0.66047
0.661145
0.66143
0.661455
0.661325
0.661093
0.660871
0.660693
0.660512
0.640967
0.641198
0.641656
0.642504
0.643642
0.645015
0.646641
0.648566
0.650811
0.65333
0.655645
0.657292
0.658326
0.658917
0.659198
0.659281
0.659225
0.659124
0.659
0.65884
0.635692
0.635889
0.636328
0.637189
0.638387
0.639867
0.641656
0.643831
0.646431
0.649441
0.652314
0.654463
0.655914
0.656847
0.657414
0.657715
0.657848
0.657859
0.657782
0.657637
0.630045
0.630213
0.630649
0.631552
0.632853
0.634491
0.636511
0.639015
0.642072
0.645698
0.649247
0.651992
0.653929
0.655255
0.656142
0.656708
0.657023
0.657139
0.6571
0.656966
0.623915
0.624058
0.624506
0.625481
0.626929
0.628786
0.631111
0.634034
0.637663
0.642045
0.646418
0.649882
0.652399
0.654186
0.655436
0.656286
0.656808
0.657034
0.657033
0.656904
0.617171
0.617289
0.617764
0.618841
0.62049
0.622632
0.625348
0.628802
0.633146
0.638454
0.643828
0.648157
0.651366
0.653699
0.655374
0.656547
0.6573
0.657641
0.657674
0.657548
0.609649
0.609743
0.610259
0.611474
0.613378
0.615885
0.619102
0.623233
0.628467
0.634912
0.6415
0.646866
0.650893
0.653865
0.656049
0.6576
0.658609
0.65907
0.659136
0.65901
0.601121
0.60122
0.601788
0.603157
0.60539
0.60837
0.612231
0.617219
0.623574
0.631427
0.639475
0.646066
0.651055
0.654777
0.657566
0.659556
0.660855
0.661445
0.661544
0.661413
0.591303
0.591381
0.592037
0.593627
0.596285
0.599873
0.604546
0.610608
0.618347
0.62792
0.637732
0.645788
0.651921
0.656538
0.660029
0.66254
0.664171
0.664902
0.665031
0.664894
0.579827
0.579887
0.58064
0.582543
0.585747
0.590114
0.595828
0.603254
0.612725
0.624402
0.636334
0.646121
0.653595
0.659262
0.663565
0.666691
0.668696
0.669577
0.669736
0.669587
0.566162
0.56621
0.567108
0.569417
0.573344
0.578737
0.585811
0.594999
0.606658
0.620914
0.635368
0.647172
0.656188
0.66307
0.668325
0.672151
0.674566
0.675601
0.675785
0.675621
0.549551
0.549588
0.550698
0.553584
0.558503
0.56529
0.574182
0.58567
0.600096
0.617496
0.634908
0.649034
0.659817
0.668081
0.674419
0.679038
0.681896
0.683081
0.68328
0.683098
0.528883
0.528916
0.530361
0.534105
0.540447
0.549189
0.56057
0.575088
0.592988
0.614167
0.635026
0.65179
0.664568
0.674389
0.681932
0.687441
0.690756
0.692073
0.692274
0.692069
0.502408
0.502461
0.504487
0.509624
0.51817
0.529804
0.544711
0.563288
0.585582
0.61126
0.636004
0.655637
0.670566
0.682095
0.690943
0.697393
0.70114
0.702548
0.702727
0.702497
0.467097
0.467253
0.470476
0.478196
0.490486
0.506546
0.526477
0.55037
0.578013
0.608872
0.63792
0.660657
0.677864
0.691175
0.701446
0.708818
0.712913
0.714336
0.714463
0.714206
0.417203
0.418176
0.424616
0.437654
0.456458
0.479365
0.506229
0.536849
0.570815
0.60746
0.641062
0.666977
0.686493
0.701608
0.713298
0.721488
0.725771
0.727103
0.727147
0.726862
0.344007
0.351243
0.366123
0.389041
0.417577
0.449655
0.484995
0.523365
0.564369
0.607328
0.645877
0.675271
0.697347
0.714508
0.72771
0.736677
0.741105
0.742355
0.742352
0.742101
0.265397
0.282064
0.306193
0.339742
0.378472
0.419877
0.463788
0.510147
0.558649
0.608695
0.653225
0.687073
0.712485
0.732193
0.747315
0.757094
0.761483
0.76256
0.762589
0.762452
0.19928
0.219104
0.251008
0.29359
0.341347
0.391556
0.443807
0.498021
0.553882
0.61081
0.661043
0.69905
0.727539
0.749554
0.766146
0.776356
0.780602
0.781648
0.781769
0.781701
0.145084
0.166773
0.204148
0.253163
0.308007
0.365631
0.425272
0.486705
0.549493
0.61298
0.668622
0.71052
0.741803
0.765823
0.783729
0.794621
0.799376
0.800465
0.800577
0.800555
0.0999897
0.122921
0.16408
0.218196
0.278733
0.342472
0.408438
0.476281
0.545406
0.61502
0.675755
0.721298
0.755196
0.781147
0.800433
0.812253
0.817415
0.818552
0.818715
0.818728
0.0615765
0.0852337
0.129253
0.187434
0.252762
0.321709
0.393157
0.466682
0.541556
0.616832
0.682319
0.731261
0.767592
0.795362
0.815844
0.828521
0.834148
0.835484
0.835703
0.835741
0.0278455
0.0519976
0.098311
0.159814
0.229199
0.302673
0.378984
0.457624
0.537758
0.618289
0.688219
0.74032
0.778872
0.808179
0.829731
0.843041
0.849067
0.850702
0.850994
0.851035
-0.00266896
0.0219169
0.0701127
0.134457
0.207335
0.284774
0.365449
0.448753
0.53376
0.61923
0.693356
0.748408
0.788958
0.819616
0.842021
0.855862
0.862197
0.864069
0.864403
0.864436
-0.0309096
-0.00592267
0.0439213
0.110671
0.186631
0.267584
0.352181
0.439759
0.529323
0.619491
0.697657
0.75552
0.797924
0.829821
0.852898
0.867054
0.873643
0.875663
0.876001
0.876011
-0.0576448
-0.0322201
0.0191553
0.0879813
0.166689
0.250775
0.338916
0.430426
0.524268
0.618952
0.70107
0.761693
0.805894
0.838896
0.862454
0.876812
0.883501
0.885622
0.885948
0.885927
-0.0832244
-0.0573467
-0.00483178
0.0660827
0.147231
0.234125
0.325479
0.42061
0.518476
0.617523
0.703562
0.766982
0.812994
0.847017
0.870983
0.885425
0.892179
0.894329
0.894644
0.894597
-0.108046
-0.0815671
-0.0280136
0.0447509
0.128068
0.217485
0.311757
0.410219
0.511862
0.615127
0.705116
0.771449
0.819352
0.854397
0.87871
0.893213
0.899961
0.902061
0.902371
0.9023
-0.132232
-0.105308
-0.0505443
0.0238402
0.109096
0.200779
0.297689
0.39921
0.504381
0.611726
0.705718
0.775143
0.825081
0.861174
0.885818
0.900339
0.907027
0.909056
0.90929
0.909179
-0.1559
-0.128402
-0.072577
0.00327295
0.0902748
0.183984
0.283265
0.387567
0.496019
0.607284
0.705341
0.778087
0.830257
0.867485
0.892467
0.906945
0.91345
0.915335
0.915491
0.915337
-0.179139
-0.151024
-0.0941791
-0.016972
0.0715891
0.167108
0.268508
0.375323
0.486788
0.601782
0.703941
0.780259
0.834944
0.873476
0.898802
0.913116
0.919313
0.920968
0.921034
0.920854
-0.201958
-0.173148
-0.115339
-0.0368854
0.0530772
0.150187
0.253473
0.362527
0.476724
0.595213
0.701464
0.781597
0.839157
0.879294
0.905026
0.918991
0.924669
0.926007
0.925978
0.925782
-0.224195
-0.19473
-0.135993
-0.0564306
0.0347771
0.133291
0.238223
0.349258
0.465894
0.587607
0.69785
0.782001
0.84285
0.885074
0.911422
0.924819
0.929624
0.93048
0.930346
0.93015
-0.245817
-0.215733
-0.156124
-0.0755517
0.0167506
0.116483
0.222855
0.3356
0.454382
0.578999
0.693054
0.781341
0.845909
0.890865
0.918352
0.931107
0.934498
0.93447
0.934163
0.934018
-0.266891
-0.236113
-0.175702
-0.0942128
-0.000936895
0.0998511
0.207457
0.321657
0.442284
0.569458
0.68703
0.779477
0.848132
0.896528
0.926104
0.938718
0.940252
0.938418
0.937518
0.937593
-0.287238
-0.255853
-0.194662
-0.112348
-0.0182246
0.0834791
0.192128
0.307544
0.429718
0.559085
0.679769
0.776252
0.849244
0.901666
0.93454
0.948581
0.948974
0.94449
0.941363
0.940665
-0.306948
-0.274947
-0.213018
-0.129984
-0.0351453
0.0673242
0.176811
0.2932
0.416614
0.547805
0.671128
0.771396
0.848934
0.905698
0.942852
0.960767
0.962874
0.957082
0.947692
0.938216
-0.325946
-0.293379
-0.230898
-0.14732
-0.0519928
0.0510483
0.161088
0.278136
0.402425
0.534972
0.660448
0.764103
0.846607
0.907787
0.949058
0.972505
0.977411
0.966738
0.946837
0.939849
-0.344049
-0.311158
-0.248121
-0.164144
-0.0684642
0.0349822
0.14518
0.262682
0.387465
0.520852
0.647832
0.753902
0.841578
0.906818
0.948681
0.972032
0.980337
0.956749
0.89066
0.861514
-0.360788
-0.329523
-0.264297
-0.179901
-0.0837825
0.0196475
0.129392
0.247092
0.371982
0.505598
0.633282
0.740473
0.832722
0.902162
0.937323
0.954257
0.94662
0.893986
0.825866
0.784562
-0.411559
-0.346689
-0.279091
-0.195457
-0.0992473
0.00377638
0.113751
0.231145
0.355666
0.488798
0.61626
0.723362
0.816334
0.892197
0.905792
0.905093
0.85965
0.792357
0.717014
0.675418
-0.378382
-0.361297
-0.301222
-0.217231
-0.122323
-0.0194658
0.0896388
0.206365
0.329878
0.46147
0.586813
0.691839
0.77592
0.856541
0.847244
0.738085
0.637765
0.567089
0.495728
0.528349
-0.41043
-0.379833
-0.31839
-0.235194
-0.140181
-0.037532
0.0717869
0.187887
0.310371
0.440213
0.56275
0.663743
0.739014
0.782124
0.736493
0.592256
0.469815
0.381837
0.28618
0.337264
-0.434812
-0.401787
-0.338537
-0.255146
-0.160069
-0.0574755
0.0517772
0.16708
0.288213
0.415697
0.534482
0.62945
0.695535
0.703854
0.600903
0.434598
0.288611
0.174315
0.0486226
0.0842812
-0.458748
-0.424312
-0.359719
-0.27547
-0.180231
-0.0777398
0.0310482
0.145427
0.265019
0.389771
0.503928
0.591692
0.642266
0.619994
0.465113
0.275572
0.0945824
-0.066084
-0.247977
-0.256912
-0.482202
-0.447291
-0.381757
-0.296756
-0.201282
-0.0989526
0.00924517
0.122586
0.240394
0.362052
0.470912
0.551361
0.582946
0.524925
0.336022
0.130534
-0.0762797
-0.251522
-0.495117
-0.756343
-0.50601
-0.471045
-0.404954
-0.319426
-0.223698
-0.121467
-0.0137833
0.0985011
0.214436
0.332781
0.436072
0.508209
0.519443
0.411033
0.222974
0.0153698
-0.184832
-0.34606
-0.421419
-0.528161
-0.531138
-0.496057
-0.429655
-0.343832
-0.24799
-0.145944
-0.0388574
0.0722138
0.185971
0.300509
0.397841
0.459213
0.446182
0.303661
0.121687
-0.0694091
-0.233598
-0.322881
-0.34551
-0.361759
-0.55787
-0.52265
-0.456032
-0.37007
-0.274296
-0.172598
-0.0663388
0.0432313
0.154407
0.264499
0.355406
0.402952
0.372143
0.203488
0.0295236
-0.136985
-0.262205
-0.299731
-0.311617
-0.312821
-0.586423
-0.550993
-0.484145
-0.398138
-0.302567
-0.201434
-0.0962484
0.0115007
0.119672
0.224726
0.308369
0.341309
0.290127
0.111161
-0.0539107
-0.201485
-0.275623
-0.292812
-0.293742
-0.293504
-0.616862
-0.581136
-0.514015
-0.428034
-0.332819
-0.232444
-0.128593
-0.0229971
0.0817736
0.181252
0.256668
0.277568
0.191334
0.0267193
-0.130158
-0.249949
-0.286552
-0.28377
-0.282929
-0.282308
-0.648893
-0.612939
-0.545544
-0.459672
-0.364964
-0.265576
-0.163346
-0.0602417
0.0407444
0.134175
0.201161
0.205311
0.100711
-0.052162
-0.190179
-0.26273
-0.273317
-0.276062
-0.276442
-0.276045
-0.68196
-0.64588
-0.57849
-0.492828
-0.398817
-0.300674
-0.200359
-0.100111
-0.00323936
0.0838407
0.142347
0.131632
0.0175167
-0.12008
-0.231342
-0.269049
-0.272658
-0.273005
-0.27274
-0.272389
-0.715593
-0.679403
-0.612391
-0.527099
-0.434034
-0.337418
-0.239354
-0.142329
-0.0499197
0.0309762
0.0790701
0.0607462
-0.0601756
-0.17736
-0.260499
-0.268676
-0.268838
-0.269238
-0.269378
-0.269277
-0.748916
-0.712849
-0.646327
-0.561888
-0.470069
-0.375335
-0.279884
-0.186424
-0.0988827
-0.0237387
0.0143485
-0.00503397
-0.130269
-0.228162
-0.268186
-0.278914
-0.273048
-0.268186
-0.266434
-0.266045
-0.780326
-0.745079
-0.679362
-0.596244
-0.506149
-0.413719
-0.321295
-0.231714
-0.149365
-0.0797839
-0.0455453
-0.07622
-0.18811
-0.286869
-0.290979
-0.288458
-0.277884
-0.268517
-0.264301
-0.262641
-0.808221
-0.774041
-0.710419
-0.628993
-0.541223
-0.451627
-0.362712
-0.277356
-0.200221
-0.136393
-0.102511
-0.140168
-0.227654
-0.332882
-0.36361
-0.320997
-0.287964
-0.273125
-0.267267
-0.264926
-0.830483
-0.798076
-0.737214
-0.658744
-0.57398
-0.487883
-0.403034
-0.322311
-0.250289
-0.192336
-0.160341
-0.189373
-0.23163
-0.316808
-0.380968
-0.334658
-0.312002
-0.303296
-0.29857
-0.294946
-0.844882
-0.815213
-0.758034
-0.683492
-0.60286
-0.521119
-0.441003
-0.365334
-0.298544
-0.246381
-0.214552
-0.23175
-0.195715
-0.176628
-0.217699
-0.315502
-0.378286
-0.392257
-0.386129
-0.384938
-0.848696
-0.823088
-0.770835
-0.701415
-0.626099
-0.549853
-0.475197
-0.4051
-0.343807
-0.298358
-0.2603
-0.29324
-0.244129
-0.0626675
-0.18694
-0.345697
-0.423212
-0.440683
-0.443589
-0.445622
-0.839879
-0.81913
-0.773388
-0.710836
-0.642144
-0.572403
-0.504063
-0.440104
-0.384997
-0.346565
-0.307236
-0.398994
-0.537628
-0.576046
-0.585236
-0.566428
-0.544467
-0.529467
-0.523377
-0.523173
-0.816032
-0.800357
-0.763814
-0.710448
-0.649857
-0.587523
-0.526073
-0.468409
-0.42017
-0.387808
-0.375606
-0.533094
-0.84807
-1.27254
-1.19331
-0.801429
-0.617182
-0.569471
-0.562253
-0.560212
-0.77956
-0.76938
-0.742695
-0.700219
-0.648943
-0.594674
-0.539967
-0.488228
-0.444928
-0.420009
-0.416486
-0.523087
-0.56639
-0.574538
-0.483693
-0.422153
-0.48353
-0.50445
-0.497422
-0.489397
-0.736779
-0.731016
-0.714571
-0.682743
-0.64109
-0.594195
-0.545436
-0.497754
-0.456269
-0.430142
-0.420458
-0.39006
-0.220546
0.0393097
0.0436095
-0.218219
-0.364595
-0.426259
-0.409215
-0.41821
-0.696902
-0.693549
-0.685312
-0.663149
-0.629083
-0.587996
-0.543317
-0.496996
-0.453759
-0.421225
-0.42265
-0.416991
-0.516157
-0.804464
-1.11961
-1.37051
-1.38152
-1.20788
-1.02015
-0.924257
-0.666758
-0.664727
-0.660562
-0.645874
-0.617561
-0.579369
-0.535861
-0.48803
-0.438623
-0.39794
-0.384469
-0.422509
-0.508645
-0.652954
-0.780394
-0.840342
-0.801033
-0.716548
-0.610396
-0.557549
-0.642402
-0.641626
-0.640369
-0.632548
-0.609133
-0.572035
-0.525974
-0.47323
-0.416586
-0.354982
-0.305792
-0.259008
-0.20863
-0.106173
-0.0261215
0.0835436
0.228526
0.371129
0.480676
0.524539
-0.626923
-0.626486
-0.625968
-0.622501
-0.604099
-0.566476
-0.515667
-0.455669
-0.385345
-0.302002
-0.211296
-0.0666625
0.137269
0.413138
0.701918
0.976695
1.21694
1.40322
1.51181
1.55137
-0.616685
-0.616483
-0.616071
-0.615219
-0.601454
-0.563528
-0.507883
-0.438304
-0.354462
-0.253616
-0.132411
0.000966339
0.293493
0.660707
1.06831
1.46564
1.78519
1.98929
2.08963
2.12055
-0.609599
-0.609236
-0.60802
-0.607078
-0.598869
-0.564905
-0.505285
-0.427233
-0.332594
-0.223372
-0.0988666
0.022719
0.247046
0.628011
1.07253
1.47831
1.7897
1.97661
2.06179
2.08511
-0.612383
-0.609819
-0.603344
-0.599249
-0.600554
-0.575085
-0.509943
-0.422504
-0.320333
-0.20677
-0.0854333
0.0417357
0.20067
0.539077
0.914127
1.23914
1.48862
1.63446
1.69891
1.71594
-0.645007
-0.641218
-0.63599
-0.636637
-0.640029
-0.605878
-0.522176
-0.419567
-0.310601
-0.194547
-0.0807664
0.0336916
0.151962
0.37749
0.674254
0.919205
1.10794
1.21388
1.25829
1.26876
-0.709417
-0.712824
-0.727591
-0.736517
-0.726365
-0.654177
-0.533666
-0.41125
-0.297174
-0.184519
-0.0829749
0.00923149
0.0896324
0.244142
0.451716
0.626844
0.760363
0.834433
0.865477
0.870951
-0.740419
-0.755367
-0.779002
-0.789392
-0.762896
-0.659404
-0.516438
-0.386853
-0.276006
-0.174763
-0.0902895
-0.0194334
0.0361486
0.142228
0.288112
0.406582
0.493244
0.539702
0.55772
0.559638
-0.628264
-0.643368
-0.664194
-0.672503
-0.642801
-0.551947
-0.439496
-0.333732
-0.241449
-0.159653
-0.0934201
-0.0409867
0.00163824
0.0679398
0.161658
0.240329
0.296076
0.32485
0.335253
0.336242
-0.387311
-0.396668
-0.410624
-0.419953
-0.408024
-0.365033
-0.309758
-0.250545
-0.192155
-0.135021
-0.0876054
-0.0536431
-0.0253378
0.022765
0.0812521
0.128051
0.159899
0.176265
0.182365
0.182096
-0.140208
-0.14439
-0.153603
-0.167451
-0.179017
-0.183464
-0.177343
-0.160882
-0.13632
-0.106013
-0.0802253
-0.0635422
-0.0496178
-0.0175498
0.0222891
0.0533191
0.0717982
0.0795177
0.0817079
0.0809979
0.0228868
0.0206506
0.0128544
-0.00449119
-0.0313134
-0.0584829
-0.0780565
-0.0874743
-0.0864748
-0.0770495
-0.0674727
-0.0635151
-0.060168
-0.0382052
-0.0131449
0.00522496
0.0153565
0.0194191
0.0204344
0.0197302
0.0982026
0.0965689
0.0897436
0.0729093
0.045379
0.0140004
-0.014183
-0.0348198
-0.0460185
-0.048967
-0.0501498
-0.054732
-0.0568044
-0.0401881
-0.0218776
-0.0131752
-0.0101886
-0.0103572
-0.010969
-0.0116932
0.119505
0.118272
0.112966
0.0995963
0.0771862
0.0501885
0.0234873
0.000826307
-0.0153688
-0.024783
-0.0308526
-0.0372528
-0.0410666
-0.0288636
-0.0199417
-0.0164783
-0.0167978
-0.0182106
-0.019097
-0.0197336
0.116032
0.11517
0.11145
0.101951
0.0856647
0.0650171
0.0430609
0.0229008
0.00690389
-0.00341842
-0.00904716
-0.0125607
-0.0129524
-0.00516377
-0.00267952
-0.00419291
-0.00735538
-0.00974385
-0.0108626
-0.0114778
0.103563
0.103026
0.100601
0.094261
0.0830829
0.0682963
0.0517333
0.035784
0.0226248
0.0144659
0.0126722
0.0151971
0.0207095
0.0247053
0.0213355
0.0162334
0.0116837
0.00905148
0.00788686
0.00723145
0.0888445
0.0885473
0.0870591
0.0830227
0.075659
0.0655599
0.0538247
0.0421618
0.0325192
0.0275131
0.0304205
0.0402146
0.0514543
0.0521642
0.0444578
0.0376808
0.0334907
0.0316406
0.0306755
0.029885
0.0742921
0.0741752
0.0733305
0.0708959
0.0662497
0.0596384
0.051751
0.0438342
0.0375445
0.035707
0.0422571
0.0560869
0.0695767
0.0675756
0.05936
0.0537115
0.0514939
0.0501274
0.0495999
0.0487516
0.0608137
0.0607482
0.0602971
0.0589727
0.0562247
0.0521462
0.0471495
0.0420879
0.0383301
0.0385344
0.0463911
0.060458
0.0726096
0.0692512
0.0626885
0.059809
0.059524
0.0602767
0.0596596
0.0586606
0.0485153
0.0484991
0.0483062
0.047666
0.0462236
0.0439094
0.0409418
0.0378886
0.0357179
0.0365373
0.0431162
0.0540979
0.0620007
0.0580412
0.0549324
0.0551235
0.0567705
0.0576767
0.0573166
0.056467
0.0375171
0.0375167
0.0374575
0.0372532
0.0366707
0.0355309
0.0338882
0.0320696
0.0306421
0.0308903
0.0343315
0.0399013
0.0430818
0.0398299
0.0393503
0.0426056
0.0457745
0.0471491
0.0469948
0.0462606
0.0278905
0.0278782
0.0278906
0.0279302
0.0278428
0.0274136
0.0265898
0.0254332
0.0241824
0.0231495
0.0224746
0.0211699
0.0179098
0.0147703
0.0194087
0.0256364
0.0301227
0.0317977
0.0317382
0.0311451
0.0196283
0.0196026
0.0196248
0.0197612
0.0199085
0.0198611
0.0194885
0.0186904
0.0173616
0.0150284
0.0105442
0.00290046
-0.00490719
-0.00559493
0.00183435
0.00935031
0.0137135
0.0153256
0.0154746
0.0150858
0.0125937
0.0125601
0.0125733
0.0127115
0.0129215
0.0130444
0.0128893
0.0123606
0.0111576
0.00816114
0.00157227
-0.00925483
-0.0197994
-0.0179928
-0.00900726
-0.00145671
0.00219133
0.0033327
0.0034635
0.00316407
0.00653352
0.00648926
0.00647979
0.00658632
0.00675589
0.00688478
0.00683689
0.00648837
0.00563502
0.00348867
-0.00227847
-0.0129457
-0.022631
-0.0187486
-0.0104523
-0.00519077
-0.00263271
-0.00198951
-0.00205958
-0.00235752
0.00133887
0.00132107
0.00131013
0.00127688
0.00127409
0.00137425
0.0014373
0.00144115
0.00131456
0.0010045
0.000109062
-0.00218825
-0.00548735
-0.00521986
-0.00432035
-0.0039271
-0.00471378
-0.00468406
-0.00331496
-0.00243004
-0.0603384
0.127224
0.327692
0.496065
0.630624
0.736921
0.82541
0.899775
0.930187
0.913973
0.264835
0.388058
0.517062
0.628521
0.722461
0.800376
0.863108
0.907058
0.929863
0.942709
0.484432
0.568005
0.655768
0.733858
0.800884
0.85689
0.901249
0.933911
0.957898
0.975784
0.644239
0.703648
0.765189
0.822226
0.871651
0.91353
0.947946
0.975757
0.998355
1.01663
0.769435
0.812017
0.85908
0.90228
0.940847
0.974531
1.0034
1.02774
1.04758
1.06553
0.873241
0.906305
0.944781
0.980199
1.01268
1.0419
1.06751
1.08923
1.1063
1.1239
0.96578
0.994662
1.0287
1.06088
1.09079
1.11798
1.14183
1.16169
1.17631
1.19376
1.05435
1.08377
1.11773
1.14987
1.17948
1.20608
1.229
1.24745
1.2601
1.27756
1.14966
1.18323
1.21964
1.25334
1.28337
1.30951
1.33141
1.3485
1.35994
1.37774
1.26453
1.30309
1.3413
1.3755
1.40474
1.42939
1.44967
1.46536
1.47669
1.49503
1.40923
1.4487
1.48424
1.51463
1.54019
1.56223
1.58123
1.59674
1.60939
1.62751
1.58395
1.61599
1.64177
1.6641
1.68414
1.70287
1.72049
1.73704
1.75277
1.77097
1.77154
1.78909
1.80461
1.8212
1.83735
1.85189
1.86491
1.87888
1.89596
1.91564
1.95312
1.96409
1.97623
1.98702
1.99627
2.00583
2.0167
2.02829
2.03824
2.05341
2.16414
2.16615
2.15099
2.13576
2.12938
2.13504
2.15364
2.18406
2.21619
2.24694
2.47005
2.333
2.2567
2.2146
2.19716
2.20119
2.22854
2.28469
2.38814
2.60343
0.77205
0.768674
0.762746
0.752938
0.739993
0.727567
0.71725
0.709299
0.703636
0.700345
0.699963
0.702691
0.707804
0.71505
0.724485
0.736171
0.749301
0.761291
0.768747
0.773467
0.690066
0.695951
0.702853
0.70809
0.710933
0.7106
0.70769
0.703761
0.700186
0.697885
0.697709
0.699896
0.703573
0.707922
0.711864
0.713862
0.712746
0.708653
0.702759
0.695714
0.682413
0.68476
0.688108
0.691012
0.693224
0.695018
0.69597
0.695705
0.694661
0.693749
0.693895
0.6953
0.697101
0.698369
0.698407
0.697229
0.695416
0.69307
0.689912
0.686947
0.677275
0.678362
0.680225
0.682602
0.684556
0.68594
0.687025
0.687872
0.688324
0.68855
0.689014
0.689774
0.690298
0.690251
0.689716
0.688834
0.687423
0.68536
0.683245
0.681829
0.672186
0.672841
0.673947
0.675662
0.67746
0.679066
0.68032
0.68133
0.682231
0.683027
0.683727
0.684217
0.684337
0.684113
0.683536
0.682494
0.681045
0.679465
0.678136
0.677352
0.667271
0.667726
0.668506
0.669795
0.671279
0.6728
0.674251
0.675517
0.676625
0.677655
0.67853
0.679041
0.67914
0.67884
0.678123
0.677099
0.675943
0.674795
0.673876
0.673355
0.662488
0.662829
0.663435
0.664493
0.665772
0.667135
0.668565
0.66999
0.671326
0.672559
0.673614
0.674249
0.67438
0.674062
0.67342
0.672607
0.671732
0.670852
0.670173
0.66979
0.657798
0.658063
0.658551
0.65945
0.660604
0.661882
0.663257
0.664722
0.666226
0.667692
0.668971
0.669769
0.670005
0.669826
0.669384
0.668786
0.668109
0.667449
0.666948
0.666655
0.653125
0.653336
0.653742
0.65453
0.655603
0.65683
0.658189
0.659691
0.661319
0.663013
0.664563
0.665598
0.666051
0.666097
0.665874
0.665486
0.665004
0.664529
0.664164
0.663935
0.648386
0.648556
0.648904
0.649618
0.650643
0.651846
0.653228
0.654806
0.656578
0.65851
0.66038
0.661746
0.662499
0.662813
0.662825
0.66265
0.662366
0.662055
0.661803
0.66162
0.643498
0.643635
0.643941
0.64461
0.645616
0.646841
0.648283
0.649977
0.651943
0.654164
0.656425
0.658207
0.659323
0.659945
0.660221
0.660271
0.660182
0.660026
0.659868
0.659721
0.638374
0.638485
0.638763
0.639412
0.640435
0.641724
0.643273
0.645137
0.647366
0.649957
0.652703
0.654983
0.656522
0.657498
0.658069
0.658358
0.658466
0.658466
0.65839
0.658271
0.632926
0.633014
0.633275
0.633929
0.635005
0.636402
0.63811
0.640213
0.642784
0.64585
0.649194
0.652071
0.654107
0.655489
0.65639
0.656958
0.65728
0.657422
0.657418
0.657321
0.627052
0.627119
0.627373
0.628055
0.629222
0.630774
0.632705
0.635126
0.638134
0.641797
0.645876
0.64947
0.652096
0.653953
0.655231
0.656107
0.656663
0.656958
0.657022
0.656942
0.620631
0.620678
0.620934
0.621665
0.622962
0.624724
0.62695
0.629774
0.633333
0.637731
0.642706
0.647174
0.650509
0.652932
0.65465
0.655869
0.656696
0.657154
0.657285
0.657221
0.613518
0.613547
0.613807
0.614611
0.616083
0.618119
0.620723
0.624064
0.628317
0.633623
0.639692
0.645211
0.649394
0.652485
0.654723
0.656345
0.65748
0.658115
0.658313
0.658262
0.605532
0.605548
0.605809
0.606713
0.60841
0.610786
0.613877
0.61788
0.623009
0.629446
0.636851
0.64363
0.648813
0.652686
0.655539
0.657647
0.659129
0.659957
0.660225
0.660184
0.596372
0.596357
0.59668
0.597715
0.599693
0.602519
0.606238
0.611076
0.617304
0.625143
0.634172
0.642457
0.648826
0.653623
0.657202
0.659883
0.661765
0.662808
0.663148
0.663116
0.585767
0.585727
0.586093
0.587318
0.58966
0.593062
0.597574
0.603467
0.611067
0.620633
0.631636
0.641725
0.6495
0.655394
0.65983
0.663176
0.665524
0.666807
0.667221
0.667194
0.573246
0.57318
0.573621
0.575091
0.577911
0.582066
0.587608
0.594862
0.604207
0.615912
0.629299
0.64153
0.650945
0.658114
0.663553
0.667668
0.670548
0.672091
0.67258
0.672555
0.558175
0.55808
0.558643
0.560458
0.563917
0.569079
0.575991
0.585031
0.596621
0.611004
0.627257
0.641972
0.653271
0.661897
0.668499
0.673493
0.676966
0.678783
0.679342
0.679312
0.539631
0.53951
0.540267
0.542585
0.546943
0.553506
0.562292
0.573712
0.588176
0.605845
0.625503
0.643107
0.656565
0.666849
0.674762
0.680753
0.68488
0.686974
0.687588
0.687547
0.516227
0.516091
0.517176
0.520272
0.525979
0.534589
0.546029
0.560695
0.578899
0.600623
0.62427
0.645119
0.660953
0.673067
0.68242
0.689529
0.694337
0.696687
0.697333
0.697271
0.485645
0.485533
0.48722
0.491668
0.499645
0.511454
0.526809
0.545948
0.568947
0.595554
0.623752
0.648173
0.666564
0.680641
0.691539
0.699834
0.705291
0.707836
0.708471
0.708376
0.443759
0.443813
0.446828
0.454106
0.466301
0.483341
0.504484
0.529639
0.558596
0.590898
0.624145
0.652379
0.673445
0.689549
0.702067
0.711561
0.717549
0.720157
0.720722
0.720585
0.382887
0.384068
0.391448
0.405114
0.425036
0.450407
0.479705
0.512527
0.54855
0.587222
0.625826
0.657941
0.68167
0.699757
0.71382
0.724344
0.730685
0.733143
0.733537
0.733363
0.310135
0.312176
0.326432
0.350002
0.380668
0.415881
0.454083
0.495097
0.538725
0.584476
0.629379
0.666409
0.693722
0.714506
0.730552
0.742347
0.74904
0.751471
0.751869
0.751793
0.235164
0.241505
0.262725
0.29639
0.337397
0.382205
0.429303
0.478591
0.529947
0.582917
0.634323
0.676458
0.70747
0.731135
0.749402
0.762313
0.769062
0.771221
0.771489
0.771483
0.173975
0.182436
0.208201
0.248911
0.29798
0.350959
0.406102
0.46315
0.521886
0.58181
0.639438
0.686386
0.72081
0.746979
0.767005
0.780877
0.787713
0.789798
0.790317
0.79039
0.124046
0.133118
0.162424
0.208353
0.263519
0.323067
0.385002
0.448899
0.514377
0.580814
0.64433
0.695808
0.733407
0.761894
0.783553
0.798432
0.805801
0.808417
0.809047
0.809156
0.0821469
0.0914961
0.123251
0.173196
0.233357
0.298363
0.366044
0.435909
0.507435
0.579856
0.648869
0.704592
0.745153
0.775837
0.799168
0.8151
0.823263
0.826235
0.826964
0.827076
0.0458978
0.055369
0.0889774
0.14214
0.206429
0.276099
0.348784
0.423929
0.500906
0.578818
0.652944
0.712624
0.75594
0.788595
0.813342
0.830262
0.839156
0.8424
0.843222
0.843326
0.0136509
0.0231795
0.0582201
0.114102
0.181856
0.255542
0.332656
0.412553
0.494514
0.577519
0.656441
0.719826
0.765666
0.800073
0.826008
0.843699
0.853162
0.856752
0.857623
0.857732
-0.0158386
-0.00624186
0.029973
0.0882027
0.158938
0.236139
0.317192
0.401399
0.487958
0.575746
0.659228
0.726134
0.774314
0.810308
0.837253
0.855545
0.86542
0.869229
0.870153
0.87025
-0.0434078
-0.0337437
0.00354059
0.0637678
0.137161
0.217478
0.302049
0.390175
0.481001
0.573319
0.661206
0.731529
0.781958
0.819417
0.847246
0.865924
0.875993
0.879973
0.880941
0.881013
-0.0696102
-0.059845
-0.0215553
0.0403443
0.116159
0.199248
0.286988
0.378689
0.473481
0.570112
0.662294
0.736013
0.788681
0.827547
0.856107
0.875039
0.885191
0.88924
0.890219
0.890283
-0.0949015
-0.0849369
-0.0458044
0.0177202
0.0956801
0.181243
0.271846
0.366811
0.465294
0.566028
0.662431
0.739604
0.794584
0.834867
0.864084
0.883224
0.893428
0.897462
0.898407
0.898409
-0.119512
-0.109314
-0.0694067
-0.00427911
0.0755649
0.163338
0.256525
0.35447
0.456371
0.561011
0.661583
0.74232
0.799761
0.841521
0.871375
0.890669
0.900876
0.904848
0.905737
0.905725
-0.143532
-0.133107
-0.0923373
-0.0258165
0.0557209
0.145482
0.240985
0.341633
0.446686
0.555015
0.659711
0.744172
0.804276
0.847622
0.878134
0.89756
0.907707
0.911548
0.912343
0.912293
-0.167077
-0.156341
-0.114788
-0.0469534
0.0361149
0.127652
0.225226
0.32831
0.436246
0.548037
0.656779
0.745137
0.808166
0.853284
0.884517
0.904019
0.913986
0.917613
0.918273
0.918174
-0.190127
-0.179094
-0.136763
-0.0677086
0.0167516
0.109871
0.209287
0.314545
0.425085
0.54008
0.652758
0.745158
0.811424
0.858603
0.89069
0.91019
0.919793
0.923069
0.923562
0.923422
-0.212719
-0.201351
-0.1582
-0.0880491
-0.00233855
0.0921771
0.193218
0.300406
0.413268
0.53118
0.64762
0.744159
0.813984
0.863645
0.896867
0.916298
0.925256
0.927975
0.928259
0.928085
-0.234656
-0.223035
-0.179083
-0.107926
-0.0210997
0.0746479
0.177093
0.28597
0.400872
0.521403
0.641354
0.742049
0.815738
0.868407
0.903275
0.922719
0.930654
0.932429
0.932385
0.932186
-0.256073
-0.244093
-0.199389
-0.127313
-0.0394945
0.0573284
0.161008
0.271322
0.387992
0.510835
0.633972
0.738725
0.816525
0.872761
0.910054
0.930017
0.936668
0.9368
0.936013
0.935785
-0.276806
-0.264494
-0.219085
-0.146158
-0.0574407
0.040307
0.145048
0.256588
0.374741
0.499551
0.625519
0.734095
0.81615
0.876437
0.917063
0.938741
0.944638
0.942432
0.939738
0.938739
-0.296902
-0.28428
-0.238112
-0.164402
-0.0748982
0.0236551
0.129301
0.24185
0.361233
0.487689
0.616071
0.728069
0.814402
0.87903
0.923695
0.948771
0.956031
0.952607
0.946024
0.93683
-0.316283
-0.303415
-0.256553
-0.182204
-0.0920824
0.00708914
0.113425
0.226698
0.347009
0.474732
0.605083
0.72005
0.810759
0.880091
0.929096
0.959069
0.970916
0.968479
0.958241
0.95355
-0.334892
-0.321886
-0.274404
-0.199518