/*--------------------------------*- C++ -*----------------------------------*\
| =========                 |                                                 |
| \\      /  F ield         | OpenFOAM: The Open Source CFD Toolbox           |
|  \\    /   O peration     | Version:  2306                                  |
|   \\  /    A nd           | Website:  www.openfoam.com                      |
|    \\/     M anipulation  |                                                 |
\*---------------------------------------------------------------------------*/
FoamFile
{
    version     2.0;
    format      ascii;
    arch        "LSB;label=32;scalar=64";
    class       surfaceScalarField;
    location    "49";
    object      phi;
}
// * * * * * * * * * * * * * * * * * * * * * * * * * * * * * * * * * * * * * //

dimensions      [0 3 -1 0 0 0 0];

oriented        oriented;

internalField   nonuniform List<scalar> 
17370
(
-0.0910992
0.0935457
0.286564
-0.0749554
0.0569557
0.364775
-0.0409393
0.0299555
0.427152
-0.0212008
0.0156006
0.504852
-0.0113506
0.00865106
0.602102
-0.00651888
0.00506712
0.720509
-0.00385003
0.00298021
0.863776
-0.00221354
0.00163844
1.03603
-0.00110889
0.000689353
1.24292
-0.000279983
-0.000111864
1.49158
0.000496518
-0.000907681
1.4916
0.00130933
-0.00181096
1.24319
0.0023589
-0.00309866
1.03638
0.00395009
-0.00515475
0.864111
0.00660003
-0.00872638
0.721184
0.0114191
-0.0156596
0.603455
0.0212503
-0.0299946
0.508184
0.0409688
-0.056977
0.432176
0.074972
-0.0935553
0.365359
0.0911116
0.197899
-0.127346
0.0881418
0.0392039
-0.364736
0.353787
-0.0726325
0.0835813
-0.446565
0.454367
-0.0817172
0.073915
-0.520971
0.529523
-0.065807
0.0572547
-0.61285
0.621015
-0.0495044
0.0413389
-0.727
0.733788
-0.034412
0.0276244
-0.867514
0.872448
-0.0222836
0.0173493
-1.03855
1.0419
-0.0136311
0.0102787
-1.24471
1.24712
-0.00772316
0.0053116
-1.49284
1.49485
-0.00334477
0.00132881
-1.49269
1.49451
0.000491076
-0.00231083
-1.2441
1.24602
0.0042855
-0.00619901
-1.0376
1.04008
0.00854059
-0.0110264
-0.866159
0.869814
0.0143017
-0.0179561
-0.72448
0.729777
0.0228321
-0.0281291
-0.608888
0.615776
0.0348737
-0.0417611
-0.51499
0.522698
0.0498819
-0.0575901
-0.439772
0.447832
0.0660914
-0.074151
-0.375157
0.377
0.0818953
-0.083738
-0.256918
0.223423
0.0727416
-0.039246
-0.0686497
0.0589181
0.00973168
-0.0520858
0.0587846
-0.374539
0.36784
-0.0579009
0.0540761
-0.453827
0.457652
-0.0487199
0.0443826
-0.527742
0.532079
-0.0401613
0.0363804
-0.621102
0.624883
-0.0321583
0.0280881
-0.734876
0.738946
-0.0236164
0.0196237
-0.874046
0.878039
-0.0154862
0.011969
-1.0434
1.04691
-0.00840109
0.00533672
-1.24866
1.25173
-0.00210165
-0.000899118
-1.49695
1.49995
0.00387869
-0.00705311
-1.49743
1.5006
0.0100299
-0.0134804
-1.2501
1.25355
0.0168805
-0.0208865
-1.04573
1.04973
0.0247657
-0.0291269
-0.877321
0.881682
0.0331089
-0.037244
-0.739315
0.74345
0.04095
-0.0450946
-0.626346
0.630491
0.0493669
-0.05466
-0.534939
0.540232
0.0584164
-0.0592134
-0.457923
0.45872
0.0524066
-0.0320347
-0.336401
0.316029
0.0097854
-0.0685064
0.058721
-0.0531582
0.049107
0.00405115
-0.0331782
0.043676
-0.358366
0.347869
-0.0473976
0.046814
-0.459508
0.460092
-0.0438404
0.0405733
-0.536022
0.539289
-0.036865
0.0335309
-0.628442
0.631776
-0.0299665
0.0268157
-0.742255
0.745405
-0.0234651
0.0202962
-0.881572
0.884741
-0.0166971
0.0133172
-1.05039
1.05377
-0.00958129
0.00614192
-1.25502
1.25846
-0.00231487
-0.00133538
-1.50333
1.50698
0.00495507
-0.0086935
-1.50414
1.50788
0.0120122
-0.0155858
-1.25717
1.26074
0.0188019
-0.0222139
-1.0535
1.05692
0.025218
-0.028405
-0.885292
0.888479
0.0314243
-0.0348604
-0.746942
0.750378
0.0380859
-0.0416815
-0.634508
0.638104
0.0448511
-0.0477149
-0.544464
0.547327
0.0481842
-0.0443018
-0.456891
0.453009
0.0336112
-0.0162564
-0.296664
0.279309
0.00411629
-0.0529026
0.0487863
-0.0459842
0.0434572
0.00252706
-0.0229398
0.0333134
-0.337225
0.326851
-0.0391016
0.0400917
-0.459802
0.458812
-0.0388791
0.0365825
-0.541962
0.544258
-0.0339442
0.0313833
-0.63477
0.637331
-0.0283782
0.0255209
-0.748467
0.751325
-0.0222881
0.0192934
-0.887739
0.890734
-0.0159769
0.0128684
-1.05694
1.06005
-0.00932392
0.00591879
-1.26188
1.26528
-0.00199182
-0.0018282
-1.51074
1.51456
0.00560945
-0.00941855
-1.51169
1.5155
0.0126654
-0.0159982
-1.26422
1.26755
0.0188937
-0.0219668
-1.06008
1.06315
0.0247432
-0.0277533
-0.891625
0.894636
0.0304281
-0.033255
-0.753567
0.756394
0.0356668
-0.0381539
-0.64111
0.643597
0.0403216
-0.0413635
-0.549149
0.550191
0.0401967
-0.0341499
-0.447818
0.441771
0.0234937
-0.0102826
-0.264134
0.250923
0.00260707
-0.0455911
0.042984
-0.0413575
0.0395691
0.00178843
-0.0168761
0.0261616
-0.316978
0.307692
-0.0327814
0.0349245
-0.457226
0.455083
-0.0345079
0.0328295
-0.54626
0.547938
-0.0306314
0.0285284
-0.639627
0.64173
-0.026107
0.0237299
-0.753935
0.756312
-0.0209045
0.0181509
-0.893587
0.89634
-0.0149638
0.0119347
-1.06307
1.0661
-0.00848041
0.00517548
-1.2686
1.2719
-0.00134377
-0.00240268
-1.51834
1.52208
0.00609906
-0.00978313
-1.51925
1.52294
0.0128884
-0.0160754
-1.27081
1.274
0.0188349
-0.0217124
-1.06617
1.06905
0.0241851
-0.0267205
-0.897438
0.899974
0.0288598
-0.0310504
-0.758847
0.761038
0.0329632
-0.0349674
-0.645795
0.647799
0.0364578
-0.0366425
-0.550754
0.550939
0.0342276
-0.0272304
-0.435161
0.428164
0.0175661
-0.00742232
-0.239393
0.229249
0.00188617
-0.0407962
0.03891
-0.0380282
0.0366821
0.00134608
-0.0129055
0.0208996
-0.299058
0.291064
-0.0276827
0.0306232
-0.452514
0.449573
-0.0308447
0.0297339
-0.549365
0.550476
-0.0277475
0.0258347
-0.643768
0.645681
-0.0236392
0.0215121
-0.758537
0.760664
-0.0190172
0.016556
-0.898887
0.901348
-0.0136394
0.0107877
-1.069
1.07185
-0.00746272
0.00425329
-1.27513
1.27834
-0.00053095
-0.00308818
-1.52574
1.52936
0.00664526
-0.0101829
-1.52655
1.53009
0.0131438
-0.0161363
-1.27712
1.28011
0.0186511
-0.0211797
-1.07178
1.07431
0.0232888
-0.0254184
-0.902289
0.904419
0.027243
-0.0291429
-0.763065
0.764965
0.030815
-0.0325697
-0.649655
0.65141
0.0334067
-0.0328607
-0.550765
0.550219
0.0295317
-0.022233
-0.420961
0.413662
0.0137534
-0.00573613
-0.22027
0.212253
0.00146493
-0.0372619
0.035797
-0.0355057
0.0344669
0.00103877
-0.0100996
0.0168696
-0.283709
0.276939
-0.0233996
0.0268026
-0.446385
0.442982
-0.0276066
0.0269269
-0.551366
0.552045
-0.0251786
0.0234082
-0.647562
0.649333
-0.0213582
0.019363
-0.76272
0.764715
-0.0170158
0.0147126
-0.903659
0.905963
-0.0120025
0.00934234
-1.07454
1.0772
-0.00620882
0.00314764
-1.28143
1.28449
0.000431361
-0.00391278
-1.53289
1.53637
0.00731903
-0.0106693
-1.53353
1.53688
0.0134228
-0.0161443
-1.28299
1.28571
0.0183888
-0.0206211
-1.0767
1.07893
0.022489
-0.0243824
-0.90644
0.908333
0.0260007
-0.0276824
-0.766753
0.768434
0.0291537
-0.0305805
-0.653016
0.654443
0.030916
-0.0296577
-0.549328
0.54807
0.0257206
-0.0185142
-0.406387
0.39918
0.0111364
-0.00461316
-0.205054
0.198531
0.00118315
-0.0344903
0.0333072
-0.0335537
0.0327426
0.000811141
-0.00802035
0.0137204
-0.270735
0.265035
-0.0197746
0.0233841
-0.439469
0.43586
-0.0246742
0.0242474
-0.552634
0.553061
-0.0227752
0.0211201
-0.651095
0.65275
-0.0191723
0.0172709
-0.766656
0.768557
-0.0150278
0.0128229
-0.908148
0.910353
-0.0102264
0.00768797
-1.07972
1.08226
-0.00471232
0.00180454
-1.28743
1.29033
0.00159932
-0.00491137
-1.53974
1.54305
0.00813117
-0.0112568
-1.54011
1.54324
0.0137884
-0.0162612
-1.28832
1.2908
0.0182901
-0.0202993
-1.08107
1.08308
0.0219688
-0.0236524
-0.910141
0.911825
0.0250877
-0.0265787
-0.770023
0.771514
0.0278605
-0.0289206
-0.655662
0.656722
0.0288949
-0.0269807
-0.546488
0.544574
0.0226615
-0.0157421
-0.392113
0.385194
0.00928801
-0.00383219
-0.192592
0.187137
0.00098699
-0.0322357
0.0312487
-0.0320286
0.0313933
0.00063528
-0.00641854
0.0112047
-0.259821
0.255034
-0.0166763
0.0202955
-0.432247
0.428627
-0.0219193
0.021726
-0.553411
0.553604
-0.020496
0.0189077
-0.654423
0.656011
-0.0170244
0.0151809
-0.770422
0.772266
-0.013007
0.0108712
-0.912445
0.91458
-0.00835654
0.00590094
-1.08468
1.08713
-0.00303108
0.000245741
-1.29313
1.29591
0.00299686
-0.00612718
-1.54624
1.54937
0.00914339
-0.012044
-1.54624
1.54914
0.0143754
-0.0166341
-1.29318
1.29544
0.0184684
-0.0202657
-1.08501
1.08681
0.0217455
-0.0232335
-0.913435
0.914923
0.024505
-0.0258249
-0.772932
0.774252
0.026964
-0.0276232
-0.657561
0.65822
0.0272391
-0.0247848
-0.542404
0.53995
0.0202422
-0.0136805
-0.378464
0.371902
0.00796482
-0.00328048
-0.182107
0.177422
0.00084903
-0.0303428
0.0294938
-0.0308369
0.0303435
0.000493398
-0.00513144
0.00912981
-0.250669
0.24667
-0.0139735
0.017454
-0.425086
0.421605
-0.0192739
0.0192832
-0.553744
0.553735
-0.0182616
0.0167186
-0.657649
0.659192
-0.0148691
0.013051
-0.774086
0.775904
-0.0109071
0.00880626
-0.916608
0.918709
-0.00634168
0.00394466
-1.08947
1.09186
-0.001153
-0.00153946
-1.29858
1.30128
0.00464442
-0.00761093
-1.55237
1.55534
0.0104393
-0.0131315
-1.55192
1.55461
0.0152713
-0.0173187
-1.29762
1.29966
0.018961
-0.020552
-1.08854
1.09013
0.0218516
-0.0231589
-0.916349
0.917657
0.024281
-0.0254409
-0.775508
0.776668
0.0263913
-0.0266896
-0.658671
0.658969
0.0259286
-0.0230263
-0.537282
0.53438
0.0183658
-0.0121615
-0.36554
0.359335
0.00701978
-0.00289319
-0.173052
0.168925
0.000753687
-0.0287043
0.0279506
-0.0299174
0.0295435
0.000373864
-0.00405509
0.0073619
-0.243041
0.239734
-0.0115664
0.0147994
-0.418264
0.415031
-0.0166905
0.0168665
-0.5537
0.553524
-0.0159382
0.0144782
-0.660775
0.662235
-0.0126345
0.0108102
-0.777709
0.779534
-0.00866116
0.00656426
-0.920705
0.922802
-0.00411811
0.00175234
-1.09414
1.09651
0.000979945
-0.00360137
-1.30386
1.30648
0.00659657
-0.00942267
-1.55819
1.56102
0.0120815
-0.0145744
-1.55718
1.55968
0.016523
-0.0183572
-1.30162
1.30346
0.0198075
-0.0211945
-1.09167
1.09306
0.0223168
-0.0234469
-0.918914
0.920044
0.0244231
-0.025419
-0.777773
0.778769
0.0261231
-0.0261286
-0.659121
0.659127
0.0249749
-0.0216875
-0.531293
0.528006
0.0169631
-0.0110712
-0.353316
0.347424
0.00636058
-0.00262965
-0.165029
0.161299
0.00069082
-0.0272408
0.02655
-0.0292299
0.0289626
0.00026728
-0.00311189
0.00579473
-0.23676
0.234078
-0.00936066
0.0122638
-0.411986
0.409083
-0.0141143
0.0143869
-0.553367
0.553095
-0.0135162
0.0121128
-0.663757
0.66516
-0.0102566
0.00840139
-0.78135
0.783205
-0.00621597
0.0040915
-0.924794
0.926919
-0.00162622
-0.000735187
-1.09876
1.10112
0.00345138
-0.00602716
-1.309
1.31158
0.00893507
-0.0116394
-1.56373
1.56643
0.0141407
-0.01644
-1.56205
1.56435
0.0182007
-0.0198231
-1.30521
1.30683
0.0210806
-0.0222593
-1.0944
1.09558
0.0231978
-0.024146
-0.92113
0.922078
0.0249748
-0.0258029
-0.779691
0.780519
0.0262466
-0.0259965
-0.658995
0.658745
0.024419
-0.0207643
-0.524557
0.520902
0.0159847
-0.0103325
-0.341693
0.33604
0.00592777
-0.00246363
-0.157735
0.154271
0.000653749
-0.0258917
0.0252379
-0.0287521
0.0285861
0.000166023
-0.0022387
0.00433591
-0.231708
0.22961
-0.00725751
0.00975934
-0.406409
0.403907
-0.0114601
0.011751
-0.552892
0.552601
-0.0109067
0.00952506
-0.666657
0.668039
-0.00763279
0.00572014
-0.785054
0.786967
-0.003466
0.00128345
-0.928936
0.931119
0.0012311
-0.00362788
-1.10338
1.10578
0.00635124
-0.00890654
-1.31405
1.31661
0.0117505
-0.0143483
-1.56902
1.57162
0.0166997
-0.0188066
-1.56652
1.56862
0.0203772
-0.021783
-1.30837
1.30977
0.0228402
-0.0237968
-1.09673
1.09768
0.0245344
-0.0252792
-0.922985
0.92373
0.0259422
-0.0266154
-0.781259
0.781932
0.026764
-0.0261772
-0.65827
0.657683
0.0241941
-0.0202039
-0.517126
0.513136
0.0153639
-0.00987507
-0.330521
0.325033
0.00567163
-0.00237296
-0.150927
0.147628
0.000636448
-0.0246084
0.0239719
-0.0284762
0.0284122
6.39538e-05
-0.00138722
0.00291201
-0.227819
0.226294
-0.00517266
0.00720773
-0.40167
0.399635
-0.00865486
0.00888288
-0.552437
0.552209
-0.00801966
0.00662465
-0.66955
0.670945
-0.00465887
0.00265879
-0.788875
0.790876
-0.000301006
-0.00197242
-0.93319
0.935464
0.004574
-0.0070336
-1.10807
1.11053
0.00979962
-0.0123596
-1.31907
1.32163
0.0151584
-0.017656
-1.5741
1.5766
0.0198553
-0.0217614
-1.5706
1.5725
0.0231311
-0.0243055
-1.31108
1.31226
0.025147
-0.0258626
-1.09861
1.09933
0.0263791
-0.0269049
-0.924446
0.924972
0.0274001
-0.0278816
-0.782461
0.782943
0.0277465
-0.0267706
-0.656833
0.655857
0.0243642
-0.020021
-0.509041
0.504697
0.0150814
-0.00966701
-0.319646
0.314232
0.00556856
-0.00234788
-0.144411
0.14119
0.000636773
-0.023353
0.0227162
-0.0284051
0.0284498
-4.47504e-05
-0.00050917
0.00145374
-0.225077
0.224132
-0.00302411
0.00452757
-0.397899
0.396396
-0.00562058
0.00570502
-0.55217
0.552086
-0.00477195
0.00331474
-0.672516
0.673974
-0.00125037
-0.000870942
-0.792872
0.794993
0.00337389
-0.00577476
-0.937625
0.940026
0.00850672
-0.011066
-1.11289
1.11545
0.0139113
-0.0165046
-1.32409
1.32668
0.0192832
-0.0216957
-1.57898
1.58139
0.0237468
-0.0254455
-1.57426
1.57596
0.0266016
-0.0275268
-1.31332
1.31425
0.0281345
-0.0285896
-1.10003
1.10048
0.0288671
-0.0291498
-0.925475
0.925758
0.0294501
-0.029661
-0.78316
0.783371
0.0292639
-0.0278138
-0.654594
0.653144
0.0249465
-0.0202201
-0.500272
0.495545
0.015127
-0.00969232
-0.308887
0.303452
0.00560685
-0.00238337
-0.138016
0.134793
0.000653443
-0.0220909
0.0214374
-0.0285503
0.0287109
-0.000160514
0.000417237
-8.53872e-05
-0.223509
0.223177
-0.00074445
0.00163262
-0.395224
0.394336
-0.00226368
0.00211901
-0.552263
0.552407
-0.00105762
-0.00052689
-0.675661
0.677245
0.00274267
-0.00503112
-0.797113
0.799402
0.00772505
-0.0102951
-0.942313
0.944883
0.0131986
-0.0158937
-1.11791
1.12061
0.018854
-0.0215086
-1.32919
1.33184
0.0242892
-0.0266249
-1.58369
1.58602
0.0285226
-0.0299932
-1.5775
1.57897
0.0309142
-0.0315552
-1.31504
1.31568
0.0318993
-0.0320729
-1.10091
1.10108
0.0320948
-0.0321108
-0.926012
0.926028
0.032191
-0.0320779
-0.783226
0.783113
0.0313508
-0.029349
-0.651432
0.649431
0.0259771
-0.020816
-0.490749
0.485588
0.0154968
-0.0099393
-0.29805
0.292493
0.00577673
-0.00247454
-0.131584
0.128281
0.000684931
-0.0207904
0.0201055
-0.0289506
0.0292515
-0.000300945
0.00142083
-0.00174138
-0.223203
0.223524
0.00175995
-0.00159415
-0.393774
0.393609
0.0015561
-0.00203626
-0.552933
0.553413
0.00330963
-0.00507373
-0.67912
0.680884
0.00750088
-0.0100027
-0.801681
0.804183
0.0129388
-0.0157245
-0.947339
0.950125
0.01885
-0.0217243
-1.12321
1.12608
0.0248411
-0.0275848
-1.33441
1.33715
0.030381
-0.0326359
-1.58823
1.59049
0.0343599
-0.0355666
-1.58026
1.58146
0.0362236
-0.0365404
-1.31616
1.31648
0.0365875
-0.0364462
-1.10118
1.10104
0.036182
-0.035901
-0.925988
0.925707
0.0357538
-0.0352192
-0.782546
0.782011
0.0340838
-0.0314493
-0.647231
0.644596
0.027508
-0.0218336
-0.480362
0.474688
0.0161976
-0.0104064
-0.28693
0.281139
0.0060755
-0.00261988
-0.124964
0.121508
0.000730835
-0.0194224
0.0186915
-0.0296255
0.0301029
-0.000477438
0.00270966
-0.00378252
-0.224232
0.225305
0.00467615
-0.00530845
-0.393784
0.394416
0.00598662
-0.00691048
-0.554413
0.555337
0.00847384
-0.0104808
-0.682991
0.684998
0.0131925
-0.0159712
-0.806675
0.809454
0.019218
-0.0222816
-0.952803
0.955866
0.0256938
-0.0287987
-1.12887
1.13197
0.0321142
-0.034971
-1.3398
1.34266
0.0377926
-0.039956
-1.5926
1.59476
0.0414782
-0.0423826
-1.58246
1.58336
0.0427128
-0.0426673
-1.3166
1.31656
0.0423765
-0.0418774
-1.10076
1.10026
0.0412898
-0.0406705
-0.925312
0.924693
0.0402108
-0.0392077
-0.780963
0.779959
0.0375492
-0.0341936
-0.641827
0.638472
0.0295917
-0.0232999
-0.468947
0.462655
0.0172397
-0.0110938
-0.275303
0.269157
0.00650032
-0.00281673
-0.118008
0.114325
0.000789853
-0.017959
0.0171691
-0.0306539
0.0313478
-0.000693968
0.00419641
-0.00615611
-0.226806
0.228766
0.00812678
-0.0096556
-0.395461
0.39699
0.0111582
-0.0126562
-0.556946
0.558444
0.0146503
-0.016996
-0.687422
0.689767
0.0200904
-0.0232288
-0.812225
0.815363
0.0268712
-0.030283
-0.958832
0.962244
0.0340489
-0.0374336
-1.135
1.13838
0.0409864
-0.0439726
-1.34541
1.3484
0.0468139
-0.0488561
-1.59675
1.59879
0.0501284
-0.0506761
-1.58402
1.58457
0.0506121
-0.0501515
-1.31627
1.31581
0.0494682
-0.0485538
-1.09954
1.09862
0.047598
-0.0465913
-0.923887
0.92288
0.0456958
-0.044189
-0.778409
0.776902
0.041875
-0.0376846
-0.635024
0.630834
0.0323079
-0.0252633
-0.456287
0.449242
0.018648
-0.012011
-0.262922
0.256285
0.00705344
-0.00306439
-0.110568
0.106579
0.000861295
-0.0163741
0.0155128
-0.0321138
0.0330936
-0.000979821
0.00607271
-0.00910439
-0.231168
0.234199
0.0123134
-0.0148998
-0.39907
0.401657
0.0173754
-0.0195802
-0.560816
0.563021
0.0221574
-0.0249666
-0.692621
0.69543
0.0285687
-0.0321666
-0.818498
0.822096
0.0362998
-0.0401353
-0.965567
0.969402
0.0443226
-0.0480312
-1.14169
1.14539
0.0518456
-0.0549586
-1.35126
1.35438
0.0577839
-0.0596448
-1.60062
1.60248
0.0605905
-0.0606883
-1.58482
1.58491
0.0601742
-0.0591986
-1.31502
1.31404
0.0580575
-0.0566587
-1.09739
1.09599
0.0552791
-0.0538293
-0.921595
0.920145
0.0524169
-0.0503105
-0.774812
0.772706
0.0472218
-0.0420393
-0.62657
0.621388
0.0357316
-0.0277602
-0.442106
0.434134
0.0204346
-0.013155
-0.249515
0.242235
0.00772666
-0.00335617
-0.102489
0.0981187
0.000942366
-0.0146447
0.0137023
-0.0341342
0.0355051
-0.00137088
0.00853213
-0.0129043
-0.23766
0.242032
0.017597
-0.0214128
-0.404977
0.408793
0.0250166
-0.0280691
-0.566353
0.569406
0.0313995
-0.0348279
-0.698852
0.702281
0.0390951
-0.0432778
-0.825696
0.829879
0.048021
-0.0523717
-0.973164
0.977514
0.057055
-0.0611242
-1.14902
1.15309
0.0651986
-0.0683962
-1.35734
1.36053
0.0711167
-0.0726801
-1.60406
1.60563
0.0731701
-0.0726825
-1.58463
1.58415
0.0716181
-0.0700155
-1.31262
1.31102
0.0683462
-0.0663937
-1.09415
1.0922
0.0645316
-0.0625903
-0.918324
0.916382
0.0605523
-0.0577413
-0.769959
0.767148
0.0537212
-0.0473452
-0.616145
0.609769
0.0399145
-0.0308062
-0.42606
0.416952
0.0225902
-0.0145022
-0.234781
0.226693
0.00849602
-0.00367669
-0.0936272
0.0888079
0.00102731
-0.0127544
0.0117271
-0.036912
0.038848
-0.00193593
0.0119505
-0.0180264
-0.246782
0.252858
0.0245106
-0.0297622
-0.41366
0.418912
0.0346959
-0.03878
-0.573928
0.578013
0.0430753
-0.0473236
-0.706439
0.710687
0.0524538
-0.0573639
-0.834068
0.838978
0.0628346
-0.0677664
-0.981803
0.986734
0.0729676
-0.0773679
-1.15704
1.16144
0.0816215
-0.0847927
-1.3635
1.36668
0.0872573
-0.0883623
-1.60682
1.60792
0.0882304
-0.0869897
-1.58319
1.58195
0.08522
-0.0828763
-1.30887
1.30653
0.0805822
-0.0780186
-1.08966
1.0871
0.0756459
-0.0730937
-0.913925
0.911373
0.0703992
-0.0666712
-0.763588
0.75986
0.0615183
-0.0537042
-0.603328
0.595514
0.0449096
-0.0344042
-0.407736
0.397231
0.0250855
-0.0160079
-0.218399
0.209322
0.00932014
-0.00400059
-0.0838595
0.07854
0.00110679
-0.0107003
0.00959352
-0.0407744
0.0435822
-0.00280779
0.0168877
-0.025204
-0.259249
0.267565
0.033898
-0.0408749
-0.425779
0.432756
0.0474184
-0.0527729
-0.584017
0.589372
0.0583083
-0.0636414
-0.7158
0.721133
0.0698655
-0.0756337
-0.843887
0.849655
0.0818923
-0.087389
-0.991583
0.99708
0.0930187
-0.0976139
-1.16564
1.17024
0.101844
-0.104766
-1.3695
1.37242
0.106695
-0.107071
-1.60851
1.60889
0.106069
-0.103857
-1.58013
1.57792
0.101222
-0.0979836
-1.30354
1.3003
0.0949545
-0.0916906
-1.08377
1.0805
0.0887455
-0.0854798
-0.908093
0.904827
0.0820949
-0.0772463
-0.755253
0.750404
0.070717
-0.0611621
-0.587598
0.578043
0.0507166
-0.0385103
-0.386628
0.374422
0.027848
-0.0175911
-0.200035
0.189778
0.0101317
-0.00429008
-0.0731061
0.0672645
0.00116759
-0.00849955
0.00733196
-0.0462853
0.0505597
-0.00427432
0.024526
-0.035879
-0.276206
0.287559
0.0474255
-0.0566911
-0.442343
0.451609
0.0652243
-0.0720531
-0.597228
0.604057
0.0791195
-0.0859197
-0.727364
0.734164
0.0932994
-0.0998541
-0.855367
0.861922
0.10674
-0.112589
-1.00239
1.00824
0.118343
-0.122806
-1.17447
1.17893
0.126613
-0.1289
-1.37478
1.37707
0.129862
-0.129126
-1.60853
1.60779
0.126923
-0.123464
-1.57497
1.57151
0.119779
-0.115494
-1.29633
1.29205
0.111623
-0.107584
-1.0763
1.07226
0.104021
-0.0999647
-0.900604
0.896548
0.095766
-0.0895275
-0.744485
0.738247
0.0813132
-0.069655
-0.568288
0.55663
0.0572396
-0.0430077
-0.362149
0.347917
0.0307463
-0.0191283
-0.179376
0.167758
0.0108369
-0.00449692
-0.0613691
0.0550291
0.00119362
-0.00619643
0.00500281
-0.0545005
0.0618375
-0.00733701
0.0379394
-0.0537311
-0.29977
0.315562
0.0692735
-0.0816716
-0.464972
0.47737
0.0923176
-0.100501
-0.613997
0.622181
0.109088
-0.117124
-0.741496
0.749532
0.125386
-0.132321
-0.86823
0.875165
0.139275
-0.144901
-1.01365
1.01927
0.150132
-0.15385
-1.18272
1.18644
0.156587
-0.157644
-1.37849
1.37955
0.157065
-0.154743
-1.60605
1.60373
0.150963
-0.145967
-1.56715
1.56215
0.141014
-0.135512
-1.28695
1.28145
0.130675
-0.12577
-1.06709
1.06219
0.121551
-0.116721
-0.891239
0.886409
0.1114
-0.103409
-0.73069
0.7227
0.093116
-0.0788851
-0.544552
0.530321
0.0641269
-0.0476086
-0.333642
0.317124
0.0335633
-0.020494
-0.156212
0.143142
0.0113648
-0.00459172
-0.0488016
0.0420285
0.00116918
-0.00386693
0.00269775
-0.0686928
0.0727609
-0.00406806
0.0289864
-0.0426922
-0.333896
0.347602
0.0564843
-0.06782
-0.495043
0.506379
0.0779058
-0.0873209
-0.633914
0.64333
0.0977866
-0.107255
-0.757071
0.766539
0.117689
-0.126912
-0.881213
0.890436
0.136647
-0.145196
-1.02396
1.03251
0.153956
-0.161254
-1.18904
1.19634
0.168187
-0.173313
-1.37939
1.38451
0.177229
-0.178866
-1.60012
1.60176
0.178169
-0.175669
-1.55604
1.55354
0.17217
-0.167549
-1.27503
1.27041
0.163267
-0.158268
-1.05597
1.05097
0.154022
-0.148842
-0.879717
0.874537
0.142151
-0.130868
-0.712983
0.7017
0.115953
-0.096019
-0.51537
0.495435
0.0761461
-0.0545126
-0.300388
0.278754
0.0370507
-0.0216819
-0.130608
0.115239
0.0115249
-0.00445866
-0.0358204
0.0287541
0.00108134
-0.00161644
0.000535103
-0.080029
0.0780577
0.00197137
0.00737123
-0.0164082
-0.364093
0.37313
0.0268957
-0.0349258
-0.522408
0.530438
0.0429714
-0.0509262
-0.65514
0.663095
0.0605677
-0.0694471
-0.775617
0.784497
0.0788212
-0.0873197
-0.899116
0.907614
0.0962485
-0.103742
-1.04076
1.04825
0.111586
-0.11774
-1.20341
1.20956
0.123487
-0.127384
-1.38926
1.39316
0.129654
-0.129803
-1.60244
1.60258
0.127611
-0.123577
-1.55009
1.54606
0.118533
-0.112288
-1.26509
1.25884
0.106457
-0.0999807
-1.04454
1.03806
0.0940311
-0.087222
-0.865036
0.858227
0.080114
-0.0703355
-0.68651
0.676731
0.0592621
-0.0459216
-0.473929
0.460589
0.0339171
-0.0224613
-0.257171
0.245715
0.0142558
-0.0078574
-0.100603
0.0942045
0.00401795
-0.00153243
-0.0220587
0.0195732
0.000363598
0.000576332
-0.00093993
-0.0814364
0.0785345
0.00290187
-0.00169995
-0.00352365
-0.384507
0.389731
0.0106392
-0.0165214
-0.542591
0.548473
0.0225535
-0.0294738
-0.673133
0.680053
0.0378323
-0.04555
-0.79247
0.800187
0.0539157
-0.0613385
-0.915376
0.922799
0.068888
-0.0755769
-1.05557
1.06225
0.082358
-0.0877433
-1.21526
1.22065
0.0922874
-0.0950757
-1.39634
1.39912
0.0964466
-0.0955635
-1.60193
1.60105
0.0923631
-0.0873312
-1.54128
1.53624
0.0815096
-0.0746383
-1.25227
1.2454
0.0678232
-0.0604393
-1.03043
1.02305
0.0535997
-0.0459612
-0.848716
0.841077
0.0390392
-0.0307702
-0.663327
0.655058
0.0226525
-0.0141764
-0.445384
0.436908
0.00818867
-0.00390785
-0.233498
0.229217
0.00169919
-0.000587959
-0.0874432
0.086332
0.00020533
-8.6803e-05
-0.0167892
0.0166707
-1.56237e-05
0.00146323
-0.00144761
-0.0802031
0.077476
0.00272713
-0.00523903
0.00271839
-0.39815
0.40067
0.00185053
-0.00634463
-0.557588
0.562082
0.0114898
-0.0173063
-0.688007
0.693823
0.024485
-0.0311208
-0.807254
0.81389
0.0382896
-0.0446731
-0.929704
0.936087
0.0515435
-0.0572278
-1.06852
1.0742
0.0631655
-0.0674146
-1.22562
1.22987
0.0712417
-0.0734264
-1.40167
1.40385
0.0740108
-0.0722549
-1.59966
1.59791
0.0686265
-0.0632175
-1.53056
1.52516
0.0570813
-0.0495491
-1.23816
1.23063
0.0424928
-0.0348236
-1.01488
1.00721
0.0275722
-0.0199675
-0.831474
0.823869
0.0130738
-0.00616172
-0.643538
0.636626
0.000338727
0.00416747
-0.426935
0.422429
-0.00604692
0.00611678
-0.222679
0.22261
-0.00522915
0.00362303
-0.0841365
0.0857426
-0.00222606
0.000950319
-0.0160702
0.0173459
-0.000297569
0.00169209
-0.00139452
-0.0787526
0.0763576
0.00239503
-0.00628419
0.0053361
-0.407279
0.408227
-0.00198685
-0.00128444
-0.569684
0.572955
0.00551381
-0.0108184
-0.700509
0.705814
0.0168837
-0.0227361
-0.81981
0.825662
0.0289758
-0.0345504
-0.942036
0.94761
0.040476
-0.0455683
-1.07976
1.08486
0.0506163
-0.0545408
-1.23398
1.23791
0.0577919
-0.0595239
-1.40567
1.4074
0.0596984
-0.0576611
-1.59596
1.59392
0.053875
-0.0482255
-1.51906
1.51341
0.0421311
-0.034823
-1.22305
1.21575
0.0278102
-0.0199286
-0.998954
0.991073
0.012671
-0.00492047
-0.814521
0.80677
-0.00158195
0.00715042
-0.62687
0.621301
-0.0111225
0.0134821
-0.415368
0.413008
-0.0134544
0.0115546
-0.219616
0.221516
-0.00915302
0.00628634
-0.0863058
0.0891725
-0.00383083
0.00165077
-0.0182138
0.0203938
-0.000462971
0.00128223
-0.000819254
-0.0774381
0.0753995
0.0020386
-0.00611175
0.00563632
-0.413596
0.414071
-0.00363927
0.00101033
-0.579057
0.581686
0.00315037
-0.0077088
-0.71115
0.715709
0.0129588
-0.0180686
-0.830709
0.835819
0.0236565
-0.0286812
-0.952856
0.957881
0.0341527
-0.0386561
-1.08969
1.09419
0.0432421
-0.0468064
-1.24156
1.24513
0.0496826
-0.0511531
-1.40888
1.41035
0.0511316
-0.0494198
-1.59182
1.59011
0.0457077
-0.0404334
-1.50743
1.50215
0.0345856
-0.0275546
-1.20834
1.20131
0.0210038
-0.0132368
-0.982946
0.975179
0.00616358
0.00111004
-0.798114
0.790841
-0.00695339
0.0118895
-0.612603
0.607667
-0.0150704
0.0168205
-0.407864
0.406114
-0.0160019
0.0133938
-0.220429
0.223037
-0.0106077
0.0072869
-0.0910505
0.0943713
-0.00444776
0.00195133
-0.0220512
0.0245476
-0.000527092
0.0004402
8.6892e-05
-0.0764722
0.0748951
0.00157711
-0.00520324
0.00503853
-0.41836
0.418525
-0.00341059
0.00140057
-0.587256
0.589266
0.00251465
-0.00665467
-0.720404
0.724544
0.0116619
-0.0160937
-0.840515
0.844947
0.0210432
-0.0255397
-0.962891
0.967388
0.0307798
-0.0349182
-1.09875
1.10289
0.039044
-0.0424681
-1.24852
1.25195
0.0455599
-0.0469556
-1.41187
1.41326
0.0471019
-0.0454738
-1.58807
1.58644
0.0423088
-0.0371115
-1.49675
1.49156
0.0317444
-0.0252456
-1.1942
1.18771
0.0189574
-0.0119012
-0.967476
0.96042
0.00532938
0.00150428
-0.782845
0.776011
-0.00661304
0.0113208
-0.59985
0.595143
-0.0141979
0.0156763
-0.401889
0.400411
-0.0152032
0.013014
-0.222591
0.22478
-0.0103657
0.00716022
-0.0965602
0.0997657
-0.00441526
0.00199203
-0.0263392
0.0287624
-0.000574359
-0.000523615
0.00109797
-0.0760175
0.07479
0.00122749
-0.00411973
0.00406898
-0.422207
0.422258
-0.00261463
0.000705212
-0.594442
0.596351
0.00310422
-0.00683714
-0.728758
0.732491
0.0111593
-0.0154567
-0.849306
0.853603
0.0200627
-0.024724
-0.971706
0.976367
0.0292764
-0.0332685
-1.10714
1.11113
0.0375664
-0.040801
-1.25527
1.25851
0.0434919
-0.0453774
-1.4146
1.41649
0.0458079
-0.044561
-1.58491
1.58367
0.0416392
-0.0370765
-1.48659
1.48203
0.0320976
-0.0260553
-1.18097
1.17493
0.020361
-0.0139719
-0.953362
0.946972
0.00809716
-0.00205654
-0.768953
0.762913
-0.00313448
0.00768306
-0.588161
0.583612
-0.0104134
0.0120548
-0.396458
0.394817
-0.0120829
0.0104499
-0.224321
0.225954
-0.00842292
0.00588566
-0.101457
0.103994
-0.00368294
0.00169875
-0.0302941
0.0322783
-0.000515002
-0.00146733
0.00198233
-0.0760891
0.0750738
0.00101534
-0.00285481
0.00256378
-0.425696
0.425987
-0.00129952
-0.000694825
-0.60103
0.603024
0.00421943
-0.00783861
-0.736575
0.740194
0.012001
-0.0159136
-0.857672
0.861585
0.0206557
-0.0245552
-0.980465
0.984365
0.0291018
-0.0329434
-1.11528
1.11913
0.037166
-0.0406387
-1.26174
1.26521
0.0436774
-0.0454216
-1.41816
1.41991
0.0462766
-0.0454998
-1.58238
1.5816
0.0432754
-0.0391129
-1.4774
1.47324
0.0347073
-0.0293088
-1.16912
1.16372
0.0243043
-0.0186063
-0.940563
0.934865
0.0134584
-0.00775745
-0.756412
0.750711
0.00267586
0.0021655
-0.577141
0.5723
-0.00528497
0.00692683
-0.390724
0.389082
-0.0074442
0.00668972
-0.225059
0.225813
-0.00550936
0.003902
-0.104951
0.106558
-0.00248731
0.00119769
-0.0332605
0.0345501
-0.000381394
-0.00223977
0.00262117
-0.0764424
0.0757468
0.000695549
-0.00173058
0.00104025
-0.429304
0.429994
-9.67162e-06
-0.00232958
-0.606834
0.609173
0.00550894
-0.00900234
-0.743894
0.747388
0.0129991
-0.0170494
-0.865342
0.869392
0.0211935
-0.0252676
-0.988476
0.99255
0.0297972
-0.033457
-1.1234
1.12706
0.0378049
-0.0412768
-1.26851
1.27198
0.0444353
-0.0467702
-1.42208
1.42442
0.0481877
-0.0477761
-1.5809
1.58049
0.0459118
-0.0426494
-1.46934
1.46608
0.0390299
-0.0343312
-1.1584
1.1537
0.0298908
-0.0249994
-0.929261
0.92437
0.0198838
-0.0145239
-0.744498
0.739138
0.0094655
-0.0043649
-0.56624
0.561139
0.000914329
0.00136016
-0.38453
0.382256
-0.00230715
0.00255153
-0.224448
0.224203
-0.00224691
0.00165982
-0.106583
0.10717
-0.00112482
0.000584225
-0.0348582
0.0353988
-0.000205901
-0.00272692
0.00293282
-0.0772085
0.0766744
0.000534096
-0.000788038
0.000223519
-0.433143
0.433707
0.00163382
-0.00372145
-0.612947
0.615035
0.00703958
-0.0104157
-0.750723
0.754099
0.0142631
-0.0179232
-0.8731
0.87676
0.022202
-0.0259765
-0.996632
1.00041
0.0304738
-0.0345879
-1.13118
1.13529
0.0386141
-0.0424537
-1.27551
1.27935
0.0460865
-0.0485754
-1.42668
1.42917
0.0504439
-0.0509148
-1.58034
1.58082
0.0496631
-0.0472803
-1.46283
1.46045
0.0441532
-0.0402072
-1.14924
1.1453
0.0363588
-0.03167
-0.919129
0.91444
0.0268091
-0.0213143
-0.732935
0.72744
0.01614
-0.0107786
-0.554906
0.549545
0.00690928
-0.00409262
-0.377654
0.374838
0.00234285
-0.00127364
-0.221998
0.220929
0.000655163
-0.000232553
-0.106232
0.10581
-1.05195e-05
0.000124334
-0.0350883
0.0349745
-8.6638e-05
-0.00288869
0.00297533
-0.0782413
0.0779007
0.0003406
0.000256496
-0.00112639
-0.437052
0.437922
0.00277897
-0.0051681
-0.618605
0.620994
0.00842508
-0.0116528
-0.757327
0.760555
0.0155795
-0.0190944
-0.880388
0.883903
0.0232256
-0.0271319
-1.00466
1.00856
0.0315504
-0.0356511
-1.13926
1.14337
0.039929
-0.0438323
-1.28313
1.28703
0.0476999
-0.0509852
-1.43197
1.43526
0.0533751
-0.0542626
-1.58129
1.58217
0.0538806
-0.0520635
-1.45811
1.45629
0.0496993
-0.0464311
-1.14143
1.13816
0.0426535
-0.0380462
-0.909417
0.90481
0.0331527
-0.0273963
-0.721225
0.715468
0.0222157
-0.0167004
-0.543504
0.537989
0.0126275
-0.00913185