/*--------------------------------*- C++ -*----------------------------------*\
| =========                 |                                                 |
| \\      /  F ield         | OpenFOAM: The Open Source CFD Toolbox           |
|  \\    /   O peration     | Version:  2306                                  |
|   \\  /    A nd           | Website:  www.openfoam.com                      |
|    \\/     M anipulation  |                                                 |
\*---------------------------------------------------------------------------*/
FoamFile
{
    version     2.0;
    format      ascii;
    arch        "LSB;label=32;scalar=64";
    class       volVectorField;
    location    "49";
    object      U;
}
// * * * * * * * * * * * * * * * * * * * * * * * * * * * * * * * * * * * * * //

dimensions      [0 1 -1 0 0 0 0];

internalField   nonuniform List<vector> 
8800
(
(0.984957 -0.088453 0)
(1.00213 -0.0568272 0)
(0.999653 -0.0305611 0)
(0.999997 -0.0158681 0)
(1.00007 -0.00872691 0)
(1.00007 -0.00509132 0)
(1.00004 -0.00300556 0)
(1.00002 -0.00169604 0)
(0.999998 -0.000791761 0)
(1.00006 -9.13162e-05 0)
(0.999988 0.000618681 0)
(0.999995 0.00137402 0)
(1.00001 0.00240077 0)
(1.00003 0.00400205 0)
(1.00003 0.00671466 0)
(1 0.0117398 0)
(0.999824 0.0220513 0)
(0.999162 0.0411678 0)
(1.00747 0.076895 0)
(0.773652 0.045071 0)
(0.360997 -0.0151721 0)
(1.04556 -0.0742053 0)
(1.08709 -0.0678974 0)
(1.04774 -0.0523123 0)
(1.02457 -0.0384127 0)
(1.01238 -0.0261374 0)
(1.00648 -0.0167929 0)
(1.00361 -0.0102752 0)
(1.00219 -0.00562495 0)
(1.00152 -0.00201505 0)
(1.00139 0.00121569 0)
(1.00174 0.00453845 0)
(1.0027 0.00844523 0)
(1.0047 0.0137867 0)
(1.0088 0.0215189 0)
(1.01734 0.0323417 0)
(1.03443 0.0456812 0)
(1.06546 0.0597888 0)
(1.09408 0.0729249 0)
(0.842211 0.055714 0)
(0.217062 -0.00164743 0)
(1.07584 -0.0503702 0)
(1.09981 -0.0487376 0)
(1.06463 -0.0401954 0)
(1.03995 -0.0330399 0)
(1.02376 -0.0257462 0)
(1.01398 -0.0183603 0)
(1.00851 -0.0116248 0)
(1.00566 -0.00581433 0)
(1.00448 -0.000491239 0)
(1.0048 0.00464952 0)
(1.00664 0.00997617 0)
(1.01055 0.016023 0)
(1.01785 0.0229375 0)
(1.0305 0.0302038 0)
(1.05064 0.0372075 0)
(1.08034 0.0445467 0)
(1.10618 0.0517639 0)
(0.942825 0.0413302 0)
(0.216474 0.00166743 0)
(0.175874 -0.000646295 0)
(1.01862 -0.0354306 0)
(1.10554 -0.0414534 0)
(1.07808 -0.0363008 0)
(1.05282 -0.0302855 0)
(1.03555 -0.0245658 0)
(1.02354 -0.0188354 0)
(1.01562 -0.0128071 0)
(1.01097 -0.00666423 0)
(1.00892 -0.000387353 0)
(1.00946 0.00580673 0)
(1.01257 0.0117652 0)
(1.01859 0.0175815 0)
(1.02832 0.0231568 0)
(1.04266 0.0285848 0)
(1.06338 0.03425 0)
(1.09377 0.0402199 0)
(1.09413 0.0418546 0)
(0.828834 0.0227782 0)
(0.174877 0.000667498 0)
(0.154309 -0.000488243 0)
(0.957212 -0.025581 0)
(1.10403 -0.0351388 0)
(1.0879 -0.0327124 0)
(1.06136 -0.0281749 0)
(1.04348 -0.0231892 0)
(1.03107 -0.0179279 0)
(1.02239 -0.0124202 0)
(1.01677 -0.00651389 0)
(1.01408 -4.33523e-05 0)
(1.01474 0.00643666 0)
(1.01858 0.0123204 0)
(1.02544 0.0176246 0)
(1.03566 0.022594 0)
(1.05034 0.0274098 0)
(1.07203 0.0318994 0)
(1.1007 0.0357876 0)
(1.06914 0.0339414 0)
(0.741291 0.0143537 0)
(0.15281 0.000511861 0)
(0.139761 -0.000359549 0)
(0.900181 -0.0192418 0)
(1.09635 -0.0302063 0)
(1.09598 -0.029347 0)
(1.06897 -0.0256127 0)
(1.05027 -0.0215277 0)
(1.03735 -0.0168134 0)
(1.02835 -0.0115738 0)
(1.02236 -0.00587084 0)
(1.01935 0.000475333 0)
(1.01998 0.00684329 0)
(1.02402 0.0124835 0)
(1.03108 0.0174582 0)
(1.04159 0.0219445 0)
(1.0569 0.0259105 0)
(1.0795 0.0294116 0)
(1.103 0.0320982 0)
(1.03726 0.0280747 0)
(0.674714 0.0102342 0)
(0.137649 0.000387304 0)
(0.129087 -0.00027521 0)
(0.850341 -0.0148745 0)
(1.08391 -0.0261166 0)
(1.10162 -0.0264715 0)
(1.07577 -0.0231865 0)
(1.05655 -0.0195608 0)
(1.04319 -0.0153714 0)
(1.03383 -0.010512 0)
(1.0276 -0.00502796 0)
(1.02439 0.001121 0)
(1.02491 0.00725846 0)
(1.02894 0.0126171 0)
(1.03614 0.0171878 0)
(1.04694 0.0210735 0)
(1.06264 0.0244101 0)
(1.08568 0.0274291 0)
(1.10221 0.0292441 0)
(1.00256 0.0235339 0)
(0.622895 0.00784826 0)
(0.126228 0.00030866 0)
(0.120934 -0.000212724 0)
(0.807885 -0.0117106 0)
(1.06853 -0.0225344 0)
(1.10508 -0.0238686 0)
(1.08196 -0.0210264 0)
(1.06231 -0.0176266 0)
(1.04868 -0.0137368 0)
(1.03906 -0.00921598 0)
(1.03257 -0.00401375 0)
(1.02913 0.00189578 0)
(1.02951 0.00776236 0)
(1.0335 0.0127671 0)
(1.04075 0.0168783 0)
(1.05168 0.0202845 0)
(1.06761 0.0232227 0)
(1.09103 0.0259395 0)
(1.09855 0.0268561 0)
(0.967529 0.0199537 0)
(0.581334 0.00629036 0)
(0.117168 0.000253201 0)
(0.114601 -0.000164757 0)
(0.772071 -0.00934333 0)
(1.05159 -0.0193816 0)
(1.10736 -0.0214625 0)
(1.08776 -0.0190076 0)
(1.06771 -0.0157717 0)
(1.05384 -0.0120565 0)
(1.04404 -0.00775253 0)
(1.03732 -0.00280595 0)
(1.03363 0.00283202 0)
(1.03381 0.00838385 0)
(1.03769 0.0130043 0)
(1.0449 0.0167079 0)
(1.05584 0.0197431 0)
(1.072 0.0223534 0)
(1.09511 0.0247294 0)
(1.09213 0.0248577 0)
(0.933498 0.0171738 0)
(0.547041 0.00521895 0)
(0.109732 0.000213954 0)
(0.109646 -0.000126686 0)
(0.741968 -0.00750821 0)
(1.03416 -0.0165865 0)
(1.10867 -0.0191994 0)
(1.09325 -0.0170674 0)
(1.07292 -0.0139409 0)
(1.05878 -0.0103346 0)
(1.04879 -0.00616806 0)
(1.04186 -0.00140905 0)
(1.03792 0.00396106 0)
(1.03784 0.00917433 0)
(1.04152 0.0134257 0)
(1.04859 0.0167687 0)
(1.05954 0.0194664 0)
(1.07592 0.0217865 0)
(1.09795 0.0237969 0)
(1.08332 0.023188 0)
(0.901073 0.0150388 0)
(0.517977 0.00446385 0)
(0.103437 0.000186366 0)
(0.10578 -9.53669e-05 0)
(0.716753 -0.00603039 0)
(1.01708 -0.0140776 0)
(1.10912 -0.0170156 0)
(1.09863 -0.0151828 0)
(1.07803 -0.0120879 0)
(1.06359 -0.00853237 0)
(1.05338 -0.00444872 0)
(1.04623 0.000177409 0)
(1.04199 0.00531631 0)
(1.04158 0.0102096 0)
(1.04499 0.0141125 0)
(1.05189 0.0171105 0)
(1.06282 0.0194798 0)
(1.07941 0.0215333 0)
(1.09947 0.0231455 0)
(1.07253 0.0218375 0)
(0.870402 0.0134325 0)
(0.492706 0.00393447 0)
(0.097942 0.00016792 0)
(0.102814 -6.84441e-05 0)
(0.695783 -0.00479273 0)
(1.00095 -0.0117899 0)
(1.10885 -0.014873 0)
(1.10382 -0.0132567 0)
(1.08311 -0.0101467 0)
(1.06835 -0.00658904 0)
(1.05789 -0.00253785 0)
(1.05045 0.00199836 0)
(1.04585 0.00694736 0)
(1.04504 0.0115477 0)
(1.04812 0.0151104 0)
(1.05481 0.0177637 0)
(1.06571 0.0198048 0)
(1.08246 0.0215974 0)
(1.10002 0.0227973 0)
(1.06006 0.020808 0)
(0.841367 0.0122615 0)
(0.470162 0.00357374 0)
(0.0929928 0.000156667 0)
(0.100624 -4.36738e-05 0)
(0.678587 -0.00370602 0)
(0.986225 -0.00965081 0)
(1.10807 -0.0126853 0)
(1.10879 -0.01121 0)
(1.08823 -0.00806931 0)
(1.07312 -0.00445638 0)
(1.06235 -0.000375576 0)
(1.05456 0.00411776 0)
(1.04951 0.0089195 0)
(1.04822 0.0132473 0)
(1.0509 0.0164727 0)
(1.05735 0.0187782 0)
(1.06819 0.0204838 0)
(1.08502 0.0219952 0)
(1.09961 0.0228504 0)
(1.04614 0.020111 0)
(0.813691 0.0114541 0)
(0.449522 0.0033438 0)
(0.088392 0.000151183 0)
(0.0991481 -1.92233e-05 0)
(0.664873 -0.00270188 0)
(0.973286 -0.00758448 0)
(1.10708 -0.0103867 0)
(1.11367 -0.00897458 0)
(1.09347 -0.00577187 0)
(1.07797 -0.00204758 0)
(1.06683 0.00211757 0)
(1.0586 0.00661727 0)
(1.053 0.0113123 0)
(1.05112 0.0153844 0)
(1.05332 0.0182663 0)
(1.05948 0.0202103 0)
(1.07026 0.0215539 0)
(1.08711 0.0227803 0)
(1.09802 0.0231993 0)
(1.03085 0.0197167 0)
(0.787011 0.010947 0)
(0.430128 0.00321643 0)
(0.0839827 0.000150104 0)
(0.0983713 6.80989e-06 0)
(0.654501 -0.0017259 0)
(0.96245 -0.0055156 0)
(1.10623 -0.00791175 0)
(1.11858 -0.00647272 0)
(1.0989 -0.00316085 0)
(1.08298 0.000737058 0)
(1.0714 0.00503995 0)
(1.06263 0.00960562 0)
(1.05635 0.014222 0)
(1.05375 0.0180327 0)
(1.05538 0.0205531 0)
(1.06118 0.0221066 0)
(1.07186 0.0230522 0)
(1.08868 0.02398 0)
(1.09523 0.023919 0)
(1.01425 0.0196535 0)
(0.760945 0.0107092 0)
(0.411451 0.00317801 0)
(0.0796396 0.000153131 0)
(0.0983174 3.061e-05 0)
(0.647445 -0.00072867 0)
(0.954015 -0.0033712 0)
(1.10582 -0.00519076 0)
(1.12366 -0.00362891 0)
(1.1046 -0.000157807 0)
(1.08822 0.00397619 0)
(1.07612 0.00848907 0)
(1.06669 0.0131828 0)
(1.05958 0.0177601 0)
(1.05612 0.021315 0)
(1.05705 0.0234536 0)
(1.06242 0.0245857 0)
(1.07298 0.025097 0)
(1.08952 0.025646 0)
(1.09101 0.0250444 0)
(0.996268 0.0199397 0)
(0.73505 0.0107255 0)
(0.393007 0.00322147 0)
(0.0752449 0.000159985 0)
(0.0990181 6.89077e-05 0)
(0.643791 0.000297053 0)
(0.948309 -0.0010775 0)
(1.10623 -0.00213316 0)
(1.12911 -0.000335395 0)
(1.11068 0.00336987 0)
(1.09379 0.00781882 0)
(1.08105 0.0126111 0)
(1.07083 0.0174907 0)
(1.06271 0.0220655 0)
(1.05819 0.0253581 0)
(1.05828 0.0270721 0)
(1.06312 0.0277277 0)
(1.07353 0.0277771 0)
(1.08946 0.0278922 0)
(1.08523 0.0266191 0)
(0.976743 0.0205987 0)
(0.708856 0.0109844 0)
(0.374349 0.00334077 0)
(0.0706921 0.000170199 0)
(0.100679 0.0001016 0)
(0.643931 0.00146689 0)
(0.945676 0.00144977 0)
(1.10787 0.0013555 0)
(1.13513 0.00350992 0)
(1.11725 0.00757763 0)
(1.09978 0.0124305 0)
(1.08626 0.0175833 0)
(1.07504 0.0227134 0)
(1.06568 0.0273089 0)
(1.05989 0.0303169 0)
(1.05899 0.03154 0)
(1.0632 0.0316572 0)
(1.07343 0.031195 0)
(1.08833 0.0308007 0)
(1.07771 0.028705 0)
(0.95543 0.0216635 0)
(0.681858 0.0114868 0)
(0.355046 0.00353386 0)
(0.0658813 0.000183694 0)
(0.103369 0.000151195 0)
(0.648226 0.002904 0)
(0.946612 0.00435048 0)
(1.11125 0.00538699 0)
(1.14192 0.00806532 0)
(1.12448 0.0126281 0)
(1.10631 0.0179906 0)
(1.09186 0.0236106 0)
(1.07942 0.0290627 0)
(1.06855 0.0336921 0)
(1.06123 0.0363657 0)
(1.05915 0.0370138 0)
(1.06259 0.0365214 0)
(1.07257 0.0354803 0)
(1.08593 0.0344839 0)
(1.06816 0.0313874 0)
(0.931989 0.0231699 0)
(0.653517 0.0122362 0)
(0.334677 0.0037984 0)
(0.060719 0.000199858 0)
(0.107364 0.000215657 0)
(0.657252 0.00458549 0)
(0.951575 0.00776476 0)
(1.11684 0.010141 0)
(1.14973 0.0135348 0)
(1.13254 0.0187606 0)
(1.11356 0.0247684 0)
(1.09793 0.0309633 0)
(1.08398 0.0368036 0)
(1.07127 0.0414599 0)
(1.06212 0.0437082 0)
(1.05866 0.0436925 0)
(1.06119 0.0424896 0)
(1.07084 0.0407742 0)
(1.08217 0.039096 0)
(1.05623 0.0347741 0)
(0.905977 0.0251721 0)
(0.623231 0.0132455 0)
(0.312807 0.00413393 0)
(0.0551161 0.000218308 0)
(0.112991 0.000303168 0)
(0.671671 0.00668262 0)
(0.961275 0.0119061 0)
(1.12523 0.0158575 0)
(1.15895 0.0201977 0)
(1.14169 0.0263063 0)
(1.12166 0.0331125 0)
(1.10456 0.0399947 0)
(1.08872 0.0462605 0)
(1.07376 0.0508932 0)
(1.06243 0.0525911 0)
(1.05737 0.0517662 0)
(1.05883 0.0497297 0)
(1.06808 0.0472323 0)
(1.07691 0.0447541 0)
(1.04149 0.0389799 0)
(0.876821 0.0277182 0)
(0.590335 0.0145168 0)
(0.289002 0.00453284 0)
(0.0489981 0.000237968 0)
(0.120751 0.000426685 0)
(0.692468 0.00941644 0)
(0.976552 0.0170765 0)
(1.13707 0.0228627 0)
(1.17003 0.0284114 0)
(1.15221 0.0356798 0)
(1.1308 0.0434754 0)
(1.1118 0.0511718 0)
(1.09358 0.0578678 0)
(1.07588 0.0623318 0)
(1.06203 0.0632556 0)
(1.05507 0.0614141 0)
(1.05535 0.0584198 0)
(1.06415 0.055041 0)
(1.06981 0.0516383 0)
(1.0234 0.0440938 0)
(0.843847 0.030842 0)
(0.554119 0.0160337 0)
(0.262863 0.00497683 0)
(0.0423192 0.000256768 0)
(0.131408 0.000609672 0)
(0.720984 0.0131717 0)
(0.998532 0.0237445 0)
(1.15309 0.0317083 0)
(1.18357 0.0387894 0)
(1.16447 0.0475654 0)
(1.1412 0.0565402 0)
(1.11971 0.065091 0)
(1.09854 0.0720945 0)
(1.07759 0.0761485 0)
(1.0608 0.0760137 0)
(1.0517 0.0729073 0)
(1.05062 0.0687792 0)
(1.05879 0.0643487 0)
(1.0605 0.0597503 0)
(1.00127 0.0502416 0)
(0.806258 0.0345673 0)
(0.513846 0.0177607 0)
(0.234078 0.00543473 0)
(0.035088 0.000271425 0)
(0.146223 0.000900987 0)
(0.759173 0.0185411 0)
(1.02882 0.0326586 0)
(1.17425 0.0432954 0)
(1.2003 0.052358 0)
(1.17879 0.0630098 0)
(1.15284 0.0732735 0)
(1.12804 0.0825559 0)
(1.10315 0.0895408 0)
(1.07836 0.0927358 0)
(1.05831 0.0911066 0)
(1.04695 0.0864303 0)
(1.04447 0.0809489 0)
(1.05166 0.075298 0)
(1.04835 0.0693815 0)
(0.974224 0.0574837 0)
(0.763145 0.0388782 0)
(0.468814 0.0196256 0)
(0.202507 0.0058583 0)
(0.0273952 0.000277603 0)
(0.167332 0.00140007 0)
(0.810181 0.0266696 0)
(1.06997 0.0453574 0)
(1.20164 0.0594472 0)
(1.22093 0.0712501 0)
(1.19527 0.0836022 0)
(1.1655 0.0949717 0)
(1.13645 0.1045 0)
(1.10715 0.110815 0)
(1.07802 0.112439 0)
(1.05443 0.108738 0)
(1.04065 0.102113 0)
(1.03676 0.0950766 0)
(1.04257 0.088273 0)
(1.03271 0.0806549 0)
(0.941204 0.0657802 0)
(0.713583 0.0436911 0)
(0.41857 0.0215097 0)
(0.168372 0.0061834 0)
(0.0194521 0.000270417 0)
(0.198074 0.00250754 0)
(0.879615 0.0402458 0)
(1.12542 0.0656581 0)
(1.23569 0.0837104 0)
(1.2452 0.0981197 0)
(1.21334 0.11164 0)
(1.17842 0.123208 0)
(1.14414 0.131901 0)
(1.10975 0.136469 0)
(1.07592 0.135549 0)
(1.04871 0.129043 0)
(1.03258 0.12004 0)
(1.02731 0.111238 0)
(1.03134 0.103222 0)
(1.01282 0.0934994 0)
(0.900932 0.0749384 0)
(0.65684 0.0487213 0)
(0.363572 0.0232621 0)
(0.132827 0.00636745 0)
(0.0117138 0.000242901 0)
(0.240004 0.0086869 9.70281e-20)
(0.971415 0.0672791 8.65191e-20)
(1.19288 0.0998482 -3.02413e-20)
(1.27327 0.119684 0)
(1.27034 0.13661 -7.66503e-34)
(1.23092 0.149515 1.11881e-20)
(1.19006 0.159562 -2.00046e-20)
(1.14999 0.166034 0)
(1.11011 0.167798 4.06976e-34)
(1.07125 0.163555 -2.43822e-20)
(1.04012 0.153775 0)
(1.02139 0.142195 -2.87325e-20)
(1.0146 0.131642 -8.45652e-20)
(1.01655 0.122608 -3.98878e-20)
(0.986191 0.110867 -1.19551e-20)
(0.848778 0.0873356 -7.0933e-21)
(0.587031 0.0550465 0)
(0.301448 0.02538 4.95083e-21)
(0.0963466 0.00695341 5.82375e-21)
(0.00448658 0.000304757 1.03302e-19)
(0.26923 0.0238774 7.3269e-20)
(1.04723 0.109744 1.02861e-21)
(1.24833 0.148637 8.15306e-21)
(1.30699 0.168533 0)
(1.29238 0.185385 -3.92795e-20)
(1.24592 0.196143 -4.44859e-20)
(1.1991 0.203909 -2.03021e-20)
(1.15308 0.207902 -7.18276e-20)
(1.10737 0.206873 0)
(1.06285 0.199413 1.04291e-19)
(1.02697 0.186472 1.03101e-19)
(1.00496 0.17238 3.05808e-20)
(0.995886 0.159796 1.11072e-19)
(0.992259 0.148496 1.55615e-19)
(0.945652 0.133212 0)
(0.779858 0.10287 2.18384e-19)
(0.505637 0.0629434 3.12808e-19)
(0.236273 0.0278621 3.46503e-19)
(0.0613426 0.00703412 -3.94578e-19)
(-0.00232457 -0.000126336 -7.30353e-21)
(0.270525 0.0397769 0)
(1.09519 0.164958 1.35203e-20)
(1.28564 0.20861 0)
(1.33319 0.228074 -5.22905e-20)
(1.30958 0.241912 0)
(1.25718 0.248848 -8.80741e-20)
(1.20473 0.252965 4.16636e-20)
(1.15305 0.253455 -1.45275e-19)
(1.10176 0.248855 -3.13011e-21)
(1.05182 0.23769 5.41723e-20)
(1.01136 0.221335 2.26982e-19)
(0.986077 0.204629 -5.61189e-22)
(0.974393 0.190093 -8.07983e-20)
(0.965589 0.176642 -1.4698e-19)
(0.908641 0.157222 1.73591e-19)
(0.731615 0.119437 -3.06692e-19)
(0.461246 0.0716857 -4.04745e-20)
(0.208507 0.0312712 0)
(0.0487852 0.00726135 -2.89771e-24)
(-0.00475588 -0.000693867 0)
(0.264396 0.0534816 1.84198e-19)
(1.12114 0.223469 -8.96897e-20)
(1.30869 0.273259 -6.76975e-20)
(1.35045 0.292848 2.50122e-20)
(1.32056 0.302802 -4.20828e-20)
(1.26366 0.305313 1.8514e-19)
(1.20658 0.305138 8.72606e-20)
(1.15 0.30153 0)
(1.09369 0.292874 -2.73121e-19)
(1.0387 0.277606 0)
(0.993874 0.257556 -1.19501e-19)
(0.965422 0.238089 -1.4694e-19)
(0.951223 0.221595 -8.81649e-20)
(0.93836 0.206116 -1.06925e-19)
(0.876387 0.182724 0)
(0.699418 0.138548 0)
(0.440695 0.0838755 -2.62933e-19)
(0.202978 0.0376704 5.20054e-20)
(0.0486973 0.0087674 -3.03548e-20)
(-0.00507697 -0.00102165 -3.50118e-20)
(0.257154 0.0655922 -8.06483e-20)
(1.13268 0.281912 0)
(1.32141 0.338922 1.42132e-19)
(1.35972 0.359083 7.14037e-20)
(1.32539 0.365203 9.68358e-20)
(1.26521 0.363317 0)
(1.2045 0.358785 8.5959e-20)
(1.14384 0.350933 1.61514e-19)
(1.08317 0.338043 1.40369e-19)
(1.02362 0.318507 2.55815e-19)
(0.974745 0.294751 0)
(0.94327 0.272638 -3.17482e-19)
(0.926606 0.254204 -1.9089e-19)
(0.910434 0.236471 -1.12704e-19)
(0.847343 0.209427 6.91148e-19)
(0.676835 0.160071 8.17739e-20)
(0.433606 0.0996432 3.82809e-19)
(0.208972 0.0468419 -1.8095e-18)
(0.0562101 0.0122752 1.07087e-18)
(-0.00326891 -0.000853463 -1.27095e-18)
(0.250316 0.0765894 -4.72121e-20)
(1.13511 0.33848 1.5117e-20)
(1.32664 0.403701 -1.62033e-20)
(1.36261 0.42488 -7.51266e-20)
(1.32503 0.427402 -8.34447e-20)
(1.26239 0.421323 3.56009e-21)
(1.19881 0.412614 -9.31274e-20)
(1.1348 0.400619 1.67563e-19)
(1.07039 0.383554 -3.02323e-19)
(1.00681 0.359823 0)
(0.954295 0.332485 -1.44106e-19)
(0.919975 0.30776 -3.23606e-21)
(0.900764 0.28733 -2.08957e-19)
(0.881836 0.267576 0)
(0.818846 0.237484 -1.49911e-19)
(0.658373 0.18383 -3.54452e-19)
(0.432021 0.11759 9.45132e-19)
(0.218906 0.0585513 -9.27697e-19)
(0.0670093 0.0177615 1.31565e-18)
(-0.000228734 -0.000126154 -1.34635e-18)
(0.244672 0.0868063 -8.08195e-22)
(1.13197 0.392502 -7.64632e-21)
(1.32648 0.466589 -4.87893e-20)
(1.36053 0.489044 3.1289e-20)
(1.32053 0.488369 -4.22489e-20)
(1.25604 0.478384 0)
(1.19012 0.465757 -8.74321e-20)
(1.1233 0.449824 -1.75711e-19)
(1.05566 0.428764 -1.57401e-19)
(0.988556 0.400992 0)
(0.932758 0.370056 -1.4986e-19)
(0.895793 0.342541 -1.85071e-19)
(0.87419 0.320034 2.26783e-19)
(0.853249 0.298699 -1.37578e-19)
(0.790967 0.265959 -6.55097e-19)
(0.640738 0.208542 3.88506e-19)
(0.430608 0.136815 1.15799e-19)
(0.22868 0.0716948 0)
(0.0777254 0.0244027 -1.27391e-18)
(0.00298017 0.000937308 -4.60265e-20)
(0.240298 0.0965657 -5.7072e-22)
(1.12548 0.443771 2.77827e-21)
(1.32242 0.527088 2.35073e-20)
(1.35472 0.550861 1.10146e-19)
(1.31281 0.547423 -1.57879e-19)
(1.24691 0.533899 1.80154e-19)
(1.1791 0.517647 1.88212e-19)
(1.10988 0.498034 -2.8079e-19)
(1.03942 0.473217 9.6567e-20)
(0.969139 0.441548 -6.29673e-19)
(0.910321 0.406936 -1.69183e-19)
(0.870955 0.376544 0)
(0.847437 0.352199 2.45907e-19)
(0.824982 0.329487 2.94404e-19)
(0.763399 0.293931 3.5239e-19)
(0.622327 0.232791 -4.22537e-19)
(0.426722 0.156399 -1.24857e-19)
(0.235053 0.0854155 1.46621e-19)
(0.0863199 0.0314975 0)
(0.00585433 0.00219458 -9.99284e-20)
(0.237069 0.106009 -3.76243e-20)
(1.11719 0.49238 1.06237e-20)
(1.31576 0.58539 -2.17602e-20)
(1.34617 0.609991 6.79758e-20)
(1.30269 0.604152 -7.22272e-20)
(1.2357 0.587444 -8.08809e-21)
(1.16632 0.567906 -2.05291e-19)
(1.09504 0.544919 -1.01485e-19)
(1.02207 0.516608 -2.73291e-19)
(0.948859 0.481201 5.56631e-22)
(0.887189 0.442954 -5.30044e-19)
(0.845697 0.409913 4.45677e-19)
(0.820673 0.384077 -2.69921e-19)
(0.796698 0.35968 3.24288e-19)
(0.735224 0.320757 0)
(0.602718 0.255785 -2.29504e-19)
(0.419673 0.175369 -4.35897e-22)
(0.237004 0.0985383 -6.38008e-19)
(0.0915063 0.0381104 -9.34492e-20)
(0.00795359 0.00338743 0)
(0.234856 0.115262 0)
(1.10803 0.538537 1.83195e-20)
(1.30717 0.640919 -2.3777e-20)
(1.33566 0.6663 -6.31691e-20)
(1.2908 0.658334 -9.01261e-20)
(1.22295 0.638776 0)
(1.15229 0.61629 -9.40627e-20)
(1.07923 0.590258 -2.21657e-21)
(1.00398 0.558752 5.8524e-19)
(0.927991 0.51981 -8.65334e-20)
(0.863621 0.47816 -3.82402e-19)
(0.820244 0.442822 2.31848e-19)
(0.793873 0.415495 -4.31711e-21)
(0.768093 0.388703 3.44523e-19)
(0.706343 0.345699 2.1254e-19)
(0.58116 0.276968 -4.95602e-19)
(0.409169 0.192612 5.8513e-19)
(0.23431 0.109778 1.72539e-19)
(0.0925998 0.0433414 7.08225e-19)
(0.00901674 0.00426735 -1.86786e-18)
(0.233586 0.124477 -2.38425e-20)
(1.0986 0.582437 2.55218e-20)
(1.29749 0.693536 -1.15814e-20)
(1.32374 0.719752 5.11787e-20)
(1.2777 0.709848 0)
(1.20917 0.687755 -8.42389e-20)
(1.13742 0.66266 3.14683e-19)
(1.06281 0.633921 2.22421e-19)
(0.985463 0.599532 0)
(0.906808 0.557327 -1.24341e-18)
(0.839878 0.512606 1.03275e-18)
(0.794745 0.47514 0)
(0.766909 0.44582 3.14649e-19)
(0.738998 0.415612 -4.32091e-21)
(0.676917 0.368072 -6.78001e-19)
(0.558004 0.295656 2.65241e-19)
(0.395403 0.207151 0)
(0.227546 0.118452 9.30037e-19)
(0.0904723 0.046725 0)
(0.00918021 0.00472933 -8.82175e-19)
(0.233092 0.1337 3.19742e-20)
(1.08941 0.624154 4.2881e-20)
(1.28687 0.743341 -8.9399e-21)
(1.3109 0.770333 0)
(1.26383 0.758672 -7.80947e-20)
(1.19474 0.734339 0)
(1.12209 0.706948 -3.11601e-19)
(1.04609 0.675837 -1.03866e-19)
(0.966784 0.638886 1.0332e-19)
(0.885571 0.593743 -6.14513e-19)
(0.81616 0.546261 1.06662e-19)
(0.769247 0.50652 0)
(0.739647 0.474385 -6.71167e-19)
(0.709364 0.439933 4.2954e-21)
(0.647133 0.387948 0)
(0.533368 0.311915 3.4471e-21)
(0.378471 0.218771 8.51581e-19)
(0.216977 0.124264 -8.02638e-19)
(0.0854607 0.0482047 2.34944e-19)
(0.00852599 0.0047235 0)
(0.233045 0.142819 0)
(1.08067 0.66382 5.80563e-20)
(1.27566 0.790495 2.80278e-20)
(1.29752 0.818083 -4.83593e-21)
(1.24952 0.80483 -2.75153e-20)
(1.18 0.778525 -1.88497e-19)
(1.10659 0.749141 1.16226e-19)
(1.02933 0.715971 -1.21807e-19)
(0.948191 0.67677 4.59763e-19)
(0.864496 0.629051 -9.80547e-19)
(0.792603 0.579018 -7.2518e-21)
(0.743734 0.536605 -2.94235e-19)
(0.712047 0.500822 1.08755e-18)
(0.679423 0.461741 -5.00633e-21)
(0.617279 0.405561 -5.24326e-19)
(0.507587 0.325609 -9.34789e-19)
(0.358769 0.227234 0)
(0.203066 0.127027 0)
(0.0781509 0.047886 2.53827e-19)
(0.00740096 0.0044179 -1.46742e-19)
(0.23353 0.151968 5.2216e-20)
(1.07237 0.701272 -1.39277e-19)
(1.26421 0.835046 -3.05452e-20)
(1.28391 0.863076 0)
(1.23505 0.84838 -3.10408e-21)
(1.16519 0.820345 -1.74146e-19)
(1.09115 0.789249 2.81667e-19)
(1.01277 0.754313 4.80633e-19)
(0.929884 0.713172 5.97172e-19)
(0.843773 0.663241 -8.00197e-19)
(0.76931 0.610771 -8.8391e-19)
(0.718185 0.565201 7.86071e-19)
(0.684161 0.52512 0)
(0.649395 0.481303 -2.38039e-19)
(0.587445 0.421016 -5.66482e-19)
(0.480704 0.336507 -6.70391e-19)
(0.336651 0.232228 -7.92648e-19)
(0.186432 0.126688 2.33492e-19)
(0.0688908 0.0456669 -1.36748e-19)
(0.00587683 0.00375761 4.96298e-22)
(0.23417 0.16099 0)
(1.06468 0.737084 0)
(1.25271 0.877098 5.0931e-21)
(1.27025 0.905416 0)
(1.22064 0.889415 6.45955e-20)
(1.15052 0.859865 1.19413e-19)
(1.07596 0.827302 0)
(0.99656 0.790866 5.7237e-20)
(0.912039 0.748084 9.95374e-19)
(0.823562 0.696297 -1.83693e-18)
(0.746361 0.64146 0)
(0.692612 0.592314 -5.04909e-19)
(0.656044 0.547503 -5.99877e-21)
(0.619363 0.498897 -4.76801e-21)
(0.557605 0.43422 6.04419e-19)
(0.452937 0.344351 -5.92666e-22)
(0.312303 0.233648 -1.70414e-18)
(0.167718 0.123221 5.0163e-19)
(0.0587114 0.041887 1.4755e-19)
(0.00418829 0.00286128 0)
(0.234825 0.169864 -2.262e-19)
(1.05732 0.771206 -1.05032e-19)
(1.24122 0.916712 -1.19304e-19)
(1.25672 0.945209 5.86116e-20)
(1.20644 0.928011 8.30311e-20)
(1.13615 0.897148 0)
(1.06117 0.863344 1.70439e-19)
(0.980851 0.825646 -1.26955e-19)
(0.894794 0.781512 7.69464e-21)
(0.803998 0.728214 1.34929e-19)
(0.723846 0.671089 1.14113e-18)
(0.667065 0.618122 -1.76981e-19)
(0.627729 0.568348 -6.67633e-19)
(0.589242 0.514733 -2.76282e-19)
(0.527578 0.444966 3.28096e-19)
(0.424427 0.348876 -2.22945e-22)
(0.286738 0.23139 4.58435e-19)
(0.14813 0.117016 -1.07757e-18)
(0.0483518 0.0369814 1.26785e-18)
(0.00249771 0.0018368 1.82113e-19)
(0.235327 0.178461 8.87054e-20)
(1.05032 0.803744 -6.11658e-20)
(1.22989 0.95399 1.22741e-20)
(1.24343 0.982578 5.5288e-20)
(1.19257 0.964279 -4.18871e-21)
(1.12219 0.932271 -2.08165e-19)
(1.04688 0.897419 4.98966e-20)
(0.965748 0.858666 -5.28617e-19)
(0.878267 0.813451 -1.09381e-18)
(0.785189 0.758967 -1.09172e-18)
(0.701873 0.699709 0)
(0.641633 0.642896 -7.74906e-19)
(0.59922 0.588082 9.60164e-19)
(0.558779 0.52897 0)
(0.49706 0.452962 -7.01453e-19)
(0.395353 0.349566 4.17917e-19)
(0.260872 0.225205 -4.91889e-19)
(0.128984 0.108496 -5.78927e-19)
(0.038653 0.0314722 -1.01978e-18)
(0.00096149 0.000804007 -7.83151e-19)
(0.236142 0.186906 -1.026e-19)
(1.04352 0.834677 6.54069e-20)
(1.21877 0.989007 1.45331e-19)
(1.23046 1.01761 9.15609e-20)
(1.17914 0.998311 1.64432e-20)
(1.10874 0.965318 -1.12609e-19)
(1.03317 0.929576 1.65612e-19)
(0.951328 0.889964 -5.42482e-19)
(0.862531 0.843919 -6.46434e-19)
(0.767231 0.788556 1.14024e-18)
(0.680555 0.727403 2.49801e-18)
(0.616439 0.666936 0)
(0.570507 0.607133 0)
(0.527604 0.541829 -3.17342e-19)
(0.46549 0.45787 0)
(0.365652 0.345473 8.97732e-19)
(0.235865 0.214346 1.05657e-18)
(0.112231 0.0977985 0)
(0.0308639 0.0258834 0)
(-0.000296795 -0.000110041 8.4035e-19)
(0.23659 0.19489 1.19747e-19)
(1.03697 0.863991 9.82005e-20)
(1.20794 1.02188 1.06964e-19)
(1.21788 1.05043 -1.01338e-19)
(1.16619 1.03021 2.75084e-21)
(1.09583 0.996364 1.15929e-19)
(1.0201 0.959871 -2.26718e-19)
(0.937649 0.919565 -1.57598e-22)
(0.847656 0.87292 -9.95118e-21)
(0.750198 0.816969 -1.03447e-20)
(0.660031 0.754255 1.28432e-18)
(0.591638 0.690512 0)
(0.541633 0.625907 9.67675e-19)
(0.495332 0.553656 6.75533e-19)
(0.431953 0.459609 1.63074e-18)
(0.334609 0.335391 4.82394e-19)
(0.212803 0.196619 -5.6819e-19)
(0.10172 0.0827429 -3.32676e-19)
(0.0299567 0.0192125 0)
(0.000297133 -0.000410006 9.01506e-19)
(0.237312 0.202871 -2.75055e-19)
(1.03062 0.891776 0)
(1.19737 1.05267 1.32762e-19)
(1.20571 1.08113 -9.10031e-20)
(1.15379 1.06008 1.99207e-20)
(1.08351 1.02549 -1.23838e-19)
(1.00771 0.988356 4.39622e-19)
(0.924742 0.947503 -4.43434e-20)
(0.833676 0.900465 0)
(0.734152 0.844182 -1.25346e-18)
(0.64044 0.78033 -2.78585e-18)
(0.567424 0.713854 1.13715e-19)
(0.512733 0.64476 1.33019e-18)
(0.461712 0.564955 0)
(0.395283 0.458765 1.09788e-18)
(0.299978 0.318576 0)
(0.19001 0.167352 0)
(0.101364 0.0508617 -3.59424e-19)
(0.0563587 0.000729546 0)
(0.0276001 0.0112122 2.41189e-19)
(0.237648 0.210227 -3.12644e-19)
(1.02446 0.918379 0)
(1.18708 1.08158 2.26157e-19)
(1.19393 1.10995 0)
(1.14189 1.08818 -1.97108e-20)
(1.07173 1.05299 0)
(0.995931 1.01534 2.17415e-20)
(0.912515 0.97412 7.38654e-20)
(0.820471 0.926923 8.0316e-20)
(0.718933 0.870594 -1.37065e-18)
(0.621628 0.806117 8.34651e-20)
(0.543606 0.737637 9.1187e-19)
(0.483451 0.664417 1.29419e-18)
(0.425917 0.576477 1.74328e-19)
(0.353625 0.456971 8.58252e-19)
(0.257132 0.296276 0)
(0.156393 0.12393 1.19597e-18)
(0.0835335 -0.00103777 -6.9645e-19)
(0.0418376 0.0471197 7.9922e-19)
(-0.0597637 0.433842 -9.48546e-19)
(0.23794 0.217369 2.62047e-19)
(1.01821 0.943586 4.05188e-19)
(1.17698 1.10893 0)
(1.18238 1.13731 1.01134e-20)
(1.1303 1.11508 7.2466e-20)
(1.06021 1.07954 1.42033e-19)
(0.984458 1.04163 1.51646e-19)
(0.900568 1.00036 0)
(0.807522 0.953392 5.33336e-19)
(0.703882 0.897516 -7.16744e-20)
(0.602696 0.833087 0)
(0.518986 0.763572 0)
(0.452068 0.68649 1.15753e-18)
(0.385872 0.589203 -5.38222e-19)
(0.303954 0.456544 -8.67988e-19)
(0.201366 0.272827 0)
(0.0902895 0.121675 5.95463e-19)
(0.00736161 0.442481 -6.83998e-19)
(0.0322535 1.89145 -3.76939e-19)
(0.0631992 2.80911 -4.96963e-19)
(0.237991 0.223723 -1.99354e-19)
(1.01199 0.967554 -5.25326e-19)
(1.1671 1.1347 1.37942e-19)
(1.17107 1.1631 1.03623e-19)
(1.11908 1.14058 0)
(1.04903 1.10486 7.57451e-20)
(0.973488 1.06691 2.06056e-19)
(0.889084 1.02579 -3.56844e-20)
(0.795089 0.979353 7.93372e-20)
(0.689367 0.924337 1.30481e-18)
(0.584238 0.860611 1.40211e-18)
(0.494537 0.791376 1.01824e-18)
(0.419503 0.710926 1.16153e-18)
(0.343221 0.602012 -1.2598e-18)
(0.252445 0.460791 -1.30756e-18)
(0.1328 0.30794 0)
(0.0469266 0.835314 0)
(0.100559 2.55318 3.28711e-19)
(0.103138 3.20084 0)
(0.105579 3.38757 7.28135e-19)
(0.241085 0.229554 0)
(1.00638 0.990534 0)
(1.15716 1.15875 0)
(1.15976 1.18709 3.33528e-20)
(1.10789 1.16441 7.17511e-20)
(1.03797 1.1288 2.79254e-20)
(0.962923 1.09107 1.31612e-19)
(0.878006 1.0503 -3.47549e-20)
(0.783117 1.00465 6.64317e-19)
(0.675396 0.950913 -1.87728e-20)
(0.56638 0.888578 2.76659e-18)
(0.470639 0.820985 -1.17091e-19)
(0.385941 0.738571 1.40606e-19)
(0.300363 0.612652 1.82019e-19)
(0.191487 0.475595 -5.61019e-21)
(0.104692 0.966782 3.50843e-21)
(0.141631 2.72038 -1.72402e-18)
(0.149434 3.29297 -6.42712e-19)
(0.13802 3.42625 3.26025e-19)
(0.12505 3.44819 -3.58713e-19)
(0.159821 0.180663 1.15835e-19)
(0.996268 1.01543 0)
(1.14693 1.18131 -2.83681e-19)
(1.14892 1.20968 -2.87575e-19)
(1.09745 1.18729 2.04365e-19)
(1.02786 1.15196 -1.8494e-20)
(0.952683 1.11411 -1.33981e-19)
(0.867442 1.07396 3.85188e-19)
(0.771753 1.02943 -5.40798e-19)
(0.662229 0.977397 0)
(0.549499 0.917183 1.35601e-18)
(0.44787 0.852212 -8.28823e-19)
(0.351801 0.77254 0)
(0.251654 0.624838 1.63468e-19)
(0.150585 0.783139 3.99377e-19)
(0.157157 2.49349 -4.70757e-19)
(0.213482 3.32441 5.21136e-19)
(0.193378 3.43981 2.83492e-19)
(0.160207 3.46108 3.14396e-19)
(0.138513 3.47116 5.07351e-19)
(0.281677 0.268705 -2.03062e-19)
(0.980427 1.02549 0)
(1.12893 1.20698 3.16732e-19)
(1.13436 1.2421 3.34304e-19)
(1.08069 1.22076 -2.46378e-19)
(1.01059 1.18592 -3.01974e-20)
(0.934443 1.14956 1.24311e-19)
(0.848733 1.11058 3.01249e-20)
(0.751873 1.06818 5.17309e-19)
(0.639621 1.01951 1.12329e-18)
(0.521427 0.964307 7.66241e-20)
(0.409756 0.904899 7.35261e-19)
(0.291558 0.823427 1.29942e-19)
(0.214916 0.956139 -1.64829e-19)
(0.229621 2.34692 -3.71917e-19)
(0.288949 3.32856 3.51978e-19)
(0.272785 3.46962 -3.98544e-19)
(0.23721 3.49108 -2.32324e-19)
(0.200444 3.51807 -1.9083e-19)
(0.149865 3.5114 -1.83692e-20)
(0.270889 0.266286 0)
(0.978438 1.04874 9.616e-20)
(1.1209 1.23067 -6.71558e-20)
(1.1242 1.26582 -4.17141e-20)
(1.07024 1.24416 -1.8079e-19)
(1.00024 1.20955 4.06153e-20)
(0.923794 1.17335 -6.35935e-20)
(0.837929 1.13513 2.70261e-20)
(0.740621 1.09413 -5.39247e-19)
(0.627095 1.04787 -2.77135e-20)
(0.506145 0.996696 -2.45319e-18)
(0.39004 0.941944 1.04672e-19)
(0.28028 0.89236 -1.22357e-19)
(0.254402 1.49837 -1.53541e-19)
(0.327343 3.10363 3.44453e-20)
(0.347784 3.46872 1.54085e-21)
(0.307035 3.52348 5.89403e-19)
(0.270111 3.54932 2.89327e-19)
(0.22168 3.57207 -7.35214e-20)
(0.164417 3.56759 -8.83895e-20)
(0.255003 0.264237 2.46398e-19)
(0.974971 1.07456 6.65377e-19)
(1.11242 1.2565 -1.94258e-19)
(1.11348 1.29095 -1.58284e-19)
(1.05928 1.26896 0)
(0.989471 1.23438 1.21633e-19)
(0.913004 1.19839 -6.20644e-20)
(0.827252 1.1609 2.37065e-20)
(0.729801 1.12137 -5.99798e-20)
(0.615517 1.07774 -1.0175e-18)
(0.492659 1.031 -1.13244e-18)
(0.37392 0.981458 -8.56296e-19)
(0.280178 1.02509 -9.31929e-19)
(0.322326 2.21044 9.55072e-19)
(0.412384 3.38038 7.871e-19)
(0.391115 3.52654 0)
(0.344924 3.56999 0)
(0.30686 3.60925 -5.96118e-20)
(0.256922 3.66721 0)
(0.176257 3.64355 -6.3978e-20)
(0.244345 0.266066 -3.75917e-19)
(0.969357 1.10128 -5.74081e-19)
(1.10255 1.28359 0)
(1.10146 1.31692 1.20496e-20)
(1.0471 1.2944 -2.1499e-19)
(0.977611 1.25973 2.25865e-19)
(0.901447 1.22397 -2.19867e-20)
(0.816017 1.18711 1.37774e-20)
(0.718651 1.14898 -3.82414e-19)