/*--------------------------------*- C++ -*----------------------------------*\
| =========                 |                                                 |
| \\      /  F ield         | OpenFOAM: The Open Source CFD Toolbox           |
|  \\    /   O peration     | Version:  2306                                  |
|   \\  /    A nd           | Website:  www.openfoam.com                      |
|    \\/     M anipulation  |                                                 |
\*---------------------------------------------------------------------------*/
FoamFile
{
    version     2.0;
    format      ascii;
    arch        "LSB;label=32;scalar=64";
    class       volScalarField;
    location    "29";
    object      p;
}
// * * * * * * * * * * * * * * * * * * * * * * * * * * * * * * * * * * * * * //

dimensions      [0 2 -2 0 0 0 0];

internalField   nonuniform List<scalar> 
8800
(
1.39215
1.34409
1.30571
1.27706
1.25642
1.24165
1.23101
1.22346
1.21856
1.21641
1.21758
1.22169
1.22828
1.23756
1.25027
1.26784
1.29226
1.32586
1.36829
1.42541
1.22469
1.23189
1.24032
1.24373
1.24181
1.23627
1.22954
1.22334
1.21853
1.21559
1.2152
1.21761
1.22203
1.22796
1.23482
1.2414
1.2455
1.24497
1.23889
1.2299
1.20142
1.20759
1.21178
1.21514
1.21762
1.2184
1.21726
1.21507
1.21296
1.21194
1.21279
1.21508
1.21782
1.21997
1.22045
1.21888
1.216
1.21234
1.20779
1.204
1.19631
1.19901
1.20173
1.20404
1.20567
1.20697
1.20785
1.208
1.20765
1.2075
1.20812
1.20915
1.20984
1.20969
1.20883
1.20758
1.20579
1.20325
1.20081
1.19928
1.19117
1.19259
1.19439
1.19644
1.19819
1.19948
1.20047
1.20128
1.20186
1.20233
1.20282
1.20312
1.20302
1.20257
1.20178
1.20051
1.19875
1.19682
1.19547
1.19465
1.18622
1.18714
1.18838
1.18997
1.19162
1.19313
1.19437
1.19538
1.19627
1.19704
1.19753
1.19765
1.19744
1.19687
1.19588
1.19456
1.19312
1.19179
1.19094
1.1904
1.18144
1.18211
1.18308
1.1844
1.18582
1.1873
1.18872
1.18999
1.19109
1.19203
1.19263
1.19276
1.19247
1.19177
1.19078
1.18967
1.18854
1.18752
1.1869
1.18651
1.17682
1.17732
1.17813
1.17929
1.18059
1.18198
1.18343
1.18487
1.18619
1.18732
1.18806
1.18824
1.18793
1.18728
1.18645
1.18552
1.18459
1.18378
1.18331
1.18301
1.17229
1.17269
1.17337
1.17443
1.17567
1.17702
1.17846
1.17997
1.18148
1.18285
1.18376
1.18405
1.18385
1.18336
1.1827
1.18193
1.18115
1.1805
1.18013
1.17989
1.16781
1.16813
1.16873
1.16972
1.17093
1.17226
1.17371
1.17528
1.17691
1.17851
1.17967
1.18019
1.18023
1.17994
1.17945
1.17884
1.17818
1.17766
1.17737
1.17718
1.16333
1.16358
1.16412
1.16508
1.16628
1.16765
1.16918
1.17086
1.17268
1.17454
1.17601
1.17683
1.17711
1.17702
1.17668
1.17621
1.17568
1.17526
1.17504
1.17489
1.15881
1.159
1.1595
1.16046
1.16171
1.16315
1.1648
1.16667
1.16874
1.17093
1.1728
1.17398
1.17453
1.17465
1.17448
1.17414
1.17371
1.17338
1.17322
1.1731
1.1542
1.15435
1.15482
1.15579
1.15707
1.15858
1.16032
1.16237
1.16476
1.16741
1.16975
1.17133
1.17224
1.17268
1.17278
1.17262
1.17232
1.17209
1.17198
1.17189
1.14949
1.14959
1.15003
1.15101
1.15236
1.15398
1.15591
1.15821
1.16093
1.16406
1.16704
1.16921
1.17059
1.17136
1.17171
1.17177
1.17164
1.17151
1.17145
1.17138
1.14464
1.14469
1.14511
1.14609
1.14751
1.14926
1.15141
1.15407
1.15734
1.16118
1.16488
1.16766
1.16954
1.17072
1.17142
1.17174
1.17181
1.17182
1.17182
1.17176
1.13941
1.13947
1.13985
1.1408
1.14226
1.14413
1.14652
1.14956
1.15338
1.15803
1.16268
1.16631
1.16889
1.17064
1.17179
1.17249
1.17287
1.17306
1.17311
1.17306
1.13345
1.13349
1.13389
1.13487
1.13644
1.13856
1.14135
1.14499
1.14965
1.15537
1.16113
1.1657
1.16901
1.17137
1.17304
1.17413
1.17481
1.17515
1.17525
1.17519
1.1264
1.12644
1.12689
1.12795
1.12974
1.1322
1.13549
1.13986
1.14552
1.15256
1.15972
1.16548
1.16974
1.17281
1.17503
1.17658
1.17758
1.17808
1.17821
1.17815
1.11792
1.11796
1.11848
1.11974
1.12186
1.12482
1.12883
1.1342
1.14118
1.14987
1.15874
1.16591
1.17122
1.17512
1.17796
1.17997
1.18129
1.18194
1.18211
1.18203
1.10757
1.10761
1.10826
1.10982
1.11243
1.11611
1.1211
1.12779
1.13646
1.14723
1.15818
1.167
1.17356
1.1784
1.18194
1.18447
1.18613
1.18692
1.18711
1.18702
1.09483
1.09489
1.09572
1.0977
1.101
1.10565
1.11198
1.12041
1.13128
1.14463
1.15808
1.16886
1.17688
1.18279
1.18716
1.19028
1.1923
1.19325
1.19348
1.19337
1.07896
1.07902
1.0801
1.0827
1.08701
1.09304
1.1012
1.11196
1.12563
1.14216
1.15859
1.17166
1.18135
1.1885
1.19385
1.19763
1.20004
1.20116
1.20144
1.20131
1.05889
1.05897
1.06041
1.06392
1.0697
1.07772
1.08843
1.1023
1.11953
1.13992
1.15984
1.17554
1.18718
1.19578
1.20219
1.20674
1.20959
1.21091
1.21123
1.21107
1.03298
1.0331
1.03517
1.04011
1.04815
1.05912
1.07343
1.09142
1.11311
1.1381
1.16202
1.18069
1.1945
1.20475
1.21236
1.21777
1.22113
1.22267
1.22302
1.22283
0.99835
0.998618
1.00197
1.00952
1.02126
1.03672
1.0561
1.07949
1.10665
1.13696
1.16533
1.18724
1.20343
1.21549
1.22446
1.23084
1.23478
1.23656
1.23692
1.23669
0.949369
0.95054
0.957246
0.970133
0.988237
1.01047
1.03679
1.06697
1.10056
1.13683
1.16998
1.1953
1.21399
1.22795
1.2384
1.24589
1.25052
1.25252
1.25286
1.25258
0.877219
0.884945
0.90037
0.92304
0.950556
0.981729
1.01647
1.05446
1.09523
1.13806
1.1765
1.20564
1.22717
1.24339
1.25569
1.26467
1.27031
1.27281
1.27329
1.27307
0.8002
0.817489
0.84238
0.875393
0.912619
0.952884
0.996135
1.04218
1.09063
1.14087
1.18574
1.21983
1.24518
1.26443
1.27928
1.29047
1.29753
1.30062
1.30145
1.30143
0.736193
0.756538
0.789322
0.830869
0.876645
0.925409
0.976861
1.03075
1.08669
1.14406
1.19495
1.23354
1.26227
1.28419
1.30108
1.31375
1.32202
1.32587
1.32652
1.3266
0.684075
0.706407
0.744315
0.791905
0.844371
0.900207
0.958858
1.01991
1.0828
1.14684
1.20327
1.24581
1.27735
1.3013
1.31977
1.33362
1.34302
1.34713
1.34792
1.34808
0.640911
0.664358
0.705749
0.758157
0.815959
0.877585
0.942343
1.00967
1.07885
1.14896
1.21037
1.25635
1.2902
1.31579
1.33545
1.35018
1.3601
1.36467
1.36577
1.36597
0.603987
0.628077
0.672237
0.728345
0.790605
0.857134
0.927161
1.00001
1.0748
1.15041
1.2163
1.26527
1.30107
1.32794
1.34843
1.36375
1.37405
1.37901
1.38033
1.38053
0.571374
0.595902
0.642156
0.701396
0.767435
0.838221
0.912896
0.990683
1.07056
1.15122
1.22122
1.27289
1.31034
1.33819
1.35924
1.37492
1.3853
1.39049
1.39192
1.39209
0.541659
0.566576
0.614572
0.676492
0.745771
0.820284
0.899118
0.981389
1.06597
1.15135
1.22525
1.27946
1.31842
1.3471
1.36854
1.38441
1.39484
1.4001
1.40161
1.40175
0.513972
0.539237
0.58879
0.652972
0.72512
0.802943
0.885504
0.971873
1.06084
1.15074
1.22844
1.28517
1.32562
1.35511
1.37696
1.39291
1.4034
1.40868
1.41026
1.41037
0.487606
0.513265
0.564241
0.6304
0.705117
0.785896
0.871823
0.961955
1.05504
1.14928
1.23079
1.29011
1.33215
1.36255
1.38486
1.40101
1.41152
1.41671
1.4183
1.41845
0.462267
0.488359
0.540408
0.608511
0.685523
0.768953
0.857925
0.951513
1.04846
1.14693
1.23229
1.29438
1.3382
1.36967
1.39256
1.40896
1.41955
1.42467
1.42616
1.42625
0.437605
0.464275
0.517293
0.587128
0.666183
0.75199
0.843723
0.94048
1.04105
1.14363
1.23295
1.29805
1.34387
1.37658
1.4002
1.41697
1.42764
1.4327
1.43404
1.43405
0.413546
0.440609
0.494753
0.566129
0.647008
0.734949
0.829175
0.928828
1.03277
1.13935
1.23271
1.30104
1.34915
1.38334
1.40784
1.42505
1.43581
1.44076
1.44196
1.44187
0.389992
0.4176
0.472685
0.545458
0.627979
0.717828
0.814283
0.916558
1.02363
1.13402
1.23146
1.3033
1.35402
1.38996
1.41549
1.4332
1.44401
1.44877
1.4498
1.44962
0.366876
0.395078
0.451076
0.525118
0.6091
0.70065
0.799086
0.903708
1.01362
1.1276
1.2291
1.30469
1.35841
1.39642
1.42317
1.4414
1.45219
1.45666
1.45748
1.45723
0.344195
0.373045
0.42994
0.505136
0.59042
0.683459
0.783642
0.890331
1.00279
1.12007
1.22557
1.30509
1.36217
1.4027
1.43094
1.44968
1.46026
1.4643
1.46489
1.46459
0.322124
0.351573
0.409322
0.485552
0.57199
0.666336
0.768024
0.876512
0.991202
1.11149
1.22078
1.30431
1.36513
1.40873
1.43891
1.45818
1.46823
1.47158
1.47187
1.47152
0.3007
0.330715
0.389257
0.466424
0.553874
0.649347
0.752331
0.862346
0.978963
1.10189
1.21468
1.3022
1.36702
1.4143
1.44718
1.46732
1.47639
1.47844
1.47826
1.47792
0.279863
0.310518
0.369783
0.447798
0.536142
0.63258
0.736659
0.847944
0.966169
1.09133
1.20726
1.29863
1.36756
1.41906
1.45572
1.47773
1.48572
1.48539
1.48401
1.4838
0.259787
0.290996
0.350964
0.429741
0.518855
0.616122
0.721105
0.83342
0.952945
1.07995
1.19853
1.29347
1.36645
1.4224
1.46396
1.48982
1.49825
1.495
1.49049
1.48926
0.24039
0.272155
0.332784
0.412228
0.501984
0.599926
0.705612
0.818712
0.939222
1.06768
1.18836
1.28647
1.36335
1.42354
1.47068
1.50281
1.51546
1.51314
1.50211
1.48952
0.221742
0.254005
0.315111
0.395069
0.485234
0.583654
0.68976
0.803325
0.924439
1.05383
1.17605
1.27676
1.3576
1.42128
1.47314
1.51251
1.53044
1.52347
1.50673
1.49375
0.204013
0.236525
0.298117
0.37849
0.468876
0.567637
0.673774
0.787597
0.908927
1.03872
1.1618
1.26399
1.34874
1.4147
1.46623
1.50611
1.52674
1.50828
1.43929
1.40649
0.187649
0.218534
0.282189
0.363075
0.453626
0.552379
0.657942
0.771775
0.892936
1.02252
1.14566
1.24796
1.33587
1.4041
1.44608
1.47718
1.48088
1.43178
1.35969
1.3157
0.137672
0.201913
0.267591
0.347852
0.438306
0.536662
0.642285
0.75565
0.876175
1.00485
1.12716
1.22846
1.31579
1.39098
1.40012
1.4109
1.37761
1.31426
1.23689
1.1937
0.170835
0.187567
0.24619
0.325823
0.415691
0.513688
0.618369
0.73078
0.849878
0.976396
1.09577
1.19412
1.27229
1.34815
1.34735
1.24187
1.13983
1.0686
0.995426
1.03292
0.139584
0.169518
0.229304
0.308506
0.398295
0.495918
0.600653
0.712272
0.830095
0.954487
1.07061
1.16489
1.23511
1.27536
1.23161
1.08704
0.959882
0.8693
0.770085
0.82671
0.115895
0.148283
0.209712
0.289181
0.378953
0.476419
0.580935
0.69158
0.807805
0.929517
1.04159
1.1302
1.19044
1.19844
1.09468
0.919425
0.764744
0.644286
0.51287
0.554933
0.0928068
0.126541
0.189213
0.26944
0.359355
0.456663
0.560597
0.670141
0.784584
0.903285
1.01055
1.09276
1.13821
1.11281
0.953393
0.751391
0.55677
0.380219
0.186061
0.189019
0.0703513
0.10441
0.167946
0.248839
0.338945
0.436041
0.53928
0.647617
0.76005
0.875411
0.977314
1.05237
1.08021
1.01926
0.818311
0.597383
0.373021
0.177992
-0.0894787
-0.374451
0.0476574
0.0816623
0.14565
0.227002
0.317308
0.414242
0.516859
0.623976
0.734323
0.84616
0.942504
1.00938
1.01922
0.906931
0.699823
0.475105
0.254228
0.0759604
-0.00715915
-0.144971
0.0238659
0.0578512
0.122029
0.203605
0.293977
0.390664
0.492571
0.598307
0.706266
0.814116
0.904465
0.961671
0.946093
0.794582
0.593793
0.384887
0.202931
0.102278
0.0782825
0.0592051
-0.00131394
0.0326513
0.0969412
0.178581
0.26885
0.365136
0.46611
0.570179
0.675337
0.778592
0.862478
0.907442
0.869248
0.689488
0.497656
0.314503
0.173859
0.131552
0.117
0.115108
-0.0280801
0.00596024
0.0703457
0.151969
0.242012
0.337693
0.437504
0.539594
0.641516
0.739591
0.816334
0.847316
0.789379
0.590467
0.408278
0.245719
0.152781
0.137438
0.135856
0.135793
-0.0564263
-0.0222908
0.0422462
0.123815
0.213493
0.308398
0.40681
0.506602
0.604873
0.697228
0.765871
0.784633
0.692537
0.498676
0.324917
0.190725
0.149405
0.145578
0.145349
0.145947
-0.0860311
-0.0517467
0.0127961
0.0942478
0.183435
0.277371
0.374134
0.471319
0.565518
0.651666
0.711627
0.713939
0.592347
0.411103
0.255522
0.164292
0.154615
0.152412
0.151531
0.1518
-0.116318
-0.0819719
-0.0177458
0.0635406
0.152081
0.244848
0.339722
0.433989
0.523759
0.603213
0.654855
0.637625
0.499677
0.329982
0.195665
0.168131
0.153107
0.153098
0.154593
0.15529
-0.146868
-0.112635
-0.0487036
0.0320773
0.119838
0.211238
0.303968
0.395024
0.480095
0.55254
0.595934
0.561438
0.407975
0.252538
0.14216
0.115011
0.135097
0.149249
0.154708
0.156298
-0.176754
-0.142948
-0.0793909
0.000592191
0.0873078
0.177118
0.267471
0.355061
0.435219
0.500655
0.534564
0.485639
0.315367
0.179695
0.0929985
0.109963
0.124685
0.138643
0.147957
0.151164
-0.204591
-0.171625
-0.109054
-0.0300549
0.0553558
0.143296
0.231061
0.315022
0.390049
0.448764
0.474241
0.415524
0.228767
0.0909229
0.0780509
0.0764305
0.0727936
0.0728292
0.081067
0.0873317
-0.22904
-0.19711
-0.136517
-0.0587382
0.0250057
0.110832
0.195799
0.276105
0.345998
0.397893
0.41941
0.347071
0.166276
-0.0227122
-0.08368
-0.0715157
-0.0430163
-0.0420094
-0.0380946
-0.0317994
-0.248249
-0.218175
-0.159756
-0.0841282
-0.00245713
0.0809895
0.163013
0.239739
0.304949
0.349568
0.370651
0.279368
0.126725
-0.0674216
-0.289586
-0.212303
-0.184455
-0.186262
-0.18363
-0.183282
-0.260503
-0.232979
-0.17754
-0.104551
-0.0254723
0.0552577
0.134331
0.207576
0.268797
0.307056
0.324236
0.213011
0.101471
0.171421
0.233064
-0.0526923
-0.330273
-0.334379
-0.316914
-0.312513
-0.263597
-0.239714
-0.188194
-0.118517
-0.0424609
0.0352522
0.111447
0.181658
0.239525
0.273305
0.274949
0.14561
0.0293638
0.214094
0.307845
-0.0413599
-0.305693
-0.312418
-0.322369
-0.335093
-0.256345
-0.236614
-0.190048
-0.124709
-0.0521198
0.0224769
0.0961221
0.164406
0.220112
0.250858
0.233935
0.045028
-0.381278
-0.987126
-1.46928
-1.79349
-1.64454
-1.19449
-0.838591
-0.782288
-0.236908
-0.221387
-0.181894
-0.122242
-0.0536259
0.0180596
0.0897742
0.157749
0.214821
0.246597
0.226964
-0.0260846
-0.723728
-1.73877
-2.32844
-2.57079
-2.43883
-2.10253
-1.73794
-1.53439
-0.20685
-0.196066
-0.164132
-0.111336
-0.0469409
0.0221377
0.0932918
0.16287
0.225515
0.269836
0.268071
0.0992319
-0.304658
-0.747846
-1.13323
-1.21232
-1.03747
-0.769479
-0.530404
-0.388096
-0.169989
-0.163503
-0.139789
-0.0939979
-0.0336611
0.0337254
0.105651
0.179954
0.252371
0.322878
0.36611
0.43016
0.501155
0.719202
1.0187
1.37635
1.68086
1.88451
2.00255
2.05032
-0.131632
-0.128048
-0.112885
-0.0739395
-0.0167799
0.0501293
0.124101
0.204755
0.292081
0.386326
0.504278
0.648516
0.991772
1.55642
2.18821
2.74984
3.16216
3.39983
3.49785
3.52572
-0.0970009
-0.0949645
-0.0862385
-0.0548477
-0.000782511
0.0670934
0.144303
0.230314
0.328289
0.43934
0.565043
0.701831
0.947305
1.49102
2.08846
2.61727
2.99468
3.21308
3.31113
3.33857
-0.0624505
-0.0614992
-0.05853
-0.0371957
0.0126333
0.0819074
0.16111
0.249554
0.345758
0.457633
0.575602
0.701233
0.85554
1.22722
1.70713
2.09197
2.37829
2.55166
2.63426
2.66061
-0.0377736
-0.0367293
-0.0363123
-0.0217156
0.0258946
0.0963623
0.176822
0.263371
0.356192
0.461436
0.567907
0.673764
0.77517
0.989201
1.31608
1.59876
1.81357
1.94323
2.0017
2.01715
-0.0223481
-0.0239602
-0.025617
-0.010896
0.0416241
0.116303
0.196562
0.278566
0.364771
0.45887
0.550002
0.632101
0.710897
0.835735
1.04766
1.23943
1.38316
1.46814
1.50656
1.51462
0.0199117
0.0158624
0.0123759
0.0285012
0.0811035
0.152045
0.225976
0.299149
0.374365
0.4539
0.529282
0.59288
0.653806
0.73237
0.872217
0.994661
1.08267
1.13456
1.15503
1.15735
0.121514
0.117652
0.115389
0.127803
0.164205
0.214883
0.270142
0.327035
0.386947
0.450972
0.509736
0.554138
0.593866
0.643763
0.735787
0.816305
0.87254
0.903631
0.916619
0.917419
0.253515
0.251664
0.249918
0.2541
0.268796
0.292002
0.322596
0.359301
0.402146
0.449922
0.492549
0.520218
0.542268
0.572132
0.632335
0.688132
0.727156
0.748558
0.757078
0.756796
0.358148
0.35762
0.356075
0.353441
0.352771
0.35759
0.369799
0.389968
0.418297
0.451893
0.480162
0.494544
0.501536
0.522163
0.564004
0.605217
0.633455
0.648798
0.654746
0.654091
0.418121
0.41786
0.416047
0.411448
0.405465
0.402186
0.404939
0.415136
0.432993
0.456491
0.47588
0.481316
0.477027
0.495373
0.534942
0.565577
0.584388
0.593482
0.596554
0.595578
0.444152
0.443802
0.44209
0.438022
0.4324
0.427952
0.427373
0.432881
0.445381
0.464155
0.480619
0.485298
0.481148
0.497743
0.528188
0.551049
0.564479
0.57082
0.572927
0.57215
0.451355
0.45103
0.449744
0.446815
0.443015
0.439916
0.439525
0.444219
0.455288
0.472635
0.491713
0.503871
0.511852
0.529977
0.550115
0.563013
0.57081
0.575203
0.577049
0.576218
0.448289
0.448161
0.447504
0.44572
0.443539
0.44223
0.443402
0.449111
0.46115
0.480322
0.505204
0.528145
0.5492
0.568364
0.578967
0.587251
0.594191
0.598991
0.600711
0.599324
0.437207
0.437375
0.43744
0.436859
0.436163
0.436629
0.439824
0.447629
0.462474
0.485718
0.515647
0.547113
0.579996
0.596323
0.601211
0.608188
0.616496
0.624016
0.62699
0.62558
0.417111
0.417577
0.418286
0.418887
0.419857
0.422406
0.428123
0.438919
0.457838
0.485808
0.518456
0.552657
0.585424
0.601035
0.608127
0.620523
0.631723
0.640932
0.644069
0.642192
0.386284
0.387025
0.388308
0.389935
0.392536
0.397397
0.406048
0.420573
0.444281
0.478138
0.514586
0.544877
0.564612
0.575421
0.592108
0.612817
0.631038
0.642457
0.644247
0.642483
0.343456
0.344438
0.346111
0.348565
0.352495
0.359189
0.370245
0.388372
0.417003
0.457882
0.50124
0.532074
0.540082
0.547684
0.575031
0.604712
0.624437
0.632788
0.634698
0.634651
0.286511
0.287723
0.289737
0.292714
0.297312
0.304594
0.316243
0.335464
0.36636
0.413731
0.471258
0.515943
0.523687
0.533183
0.57199
0.61089
0.636788
0.648121
0.648349
0.648011
0.213953
0.215273
0.217269
0.220111
0.224091
0.229615
0.237723
0.251369
0.27614
0.324852
0.404235
0.478058
0.500352
0.523373
0.576122
0.630503
0.66478
0.67652
0.675564
0.67661
0.126128
0.127246
0.128602
0.13016
0.131294
0.130993
0.128381
0.12405
0.124468
0.161075
0.274595
0.394071
0.446783
0.491832
0.582852
0.66312
0.723256
0.737872
0.733
0.732303
0.0278486
0.0282985
0.0281758
0.0268609
0.0221297
0.0105111
-0.0128919
-0.0529949
-0.101117
-0.0961145
0.0642125
0.252641
0.347442
0.436819
0.562922
0.679734
0.746745
0.760976
0.757036
0.754216
-0.0698004
-0.0704735
-0.0728329
-0.0784956
-0.091859
-0.119861
-0.173784
-0.268306
-0.396339
-0.424905
-0.213761
0.0610938
0.207248
0.347237
0.506313
0.633549
0.694774
0.697418
0.693821
0.690368
-0.150088
-0.15207
-0.156838
-0.167223
-0.189864
-0.235362
-0.322628
-0.47524
-0.676114
-0.747628
-0.494226
-0.148694
0.0540361
0.229527
0.414636
0.519719
0.553602
0.560354
0.560648
0.55855
-0.195085
-0.198209
-0.204811
-0.218425
-0.247235
-0.304832
-0.415204
-0.607925
-0.84839
-0.941969
-0.667395
-0.31423
-0.0987495
0.109359
0.293742
0.392891
0.405688
0.40597
0.404459
0.401591
-0.194284
-0.197394
-0.203745
-0.217391
-0.247185
-0.305793
-0.419138
-0.615369
-0.854342
-0.945026
-0.695369
-0.385039
-0.207661
-0.0477425
0.104661
0.194982
0.215443
0.219148
0.218436
0.215071
-0.150353
-0.152679
-0.157293
-0.167735
-0.191257
-0.239539
-0.333857
-0.498588
-0.690019
-0.749734
-0.558047
-0.353346
-0.261284
-0.257788
-0.196781
-0.0867019
-0.0301186
-0.00595848
0.00402463
0.00435037
-0.0815405
-0.082702
-0.0847279
-0.0898885
-0.102711
-0.130747
-0.189072
-0.29542
-0.414273
-0.426353
-0.315099
-0.223706
-0.215617
-0.406329
-0.483376
-0.324756
-0.216219
-0.16446
-0.139651
-0.131172
-0.0109108
-0.0109672
-0.0096682
-0.00821029
-0.00864194
-0.0116865
-0.0198831
-0.0412824
-0.0795784
-0.0960098
-0.0848246
-0.0541153
-0.0571032
-0.108911
-0.193338
-0.168436
-0.104084
-0.0673043
-0.0530129
-0.0440143
0.39353
0.598483
0.819016
1.00089
1.14727
1.26421
1.36237
1.44443
1.47786
1.46203
0.750655
0.885271
1.02497
1.14576
1.24794
1.33312
1.40181
1.45
1.47531
1.48785
0.98985
1.08041
1.17474
1.25893
1.3314
1.39202
1.44
1.4753
1.50089
1.51846
1.16122
1.22438
1.29085
1.35187
1.40481
1.4496
1.4863
1.51578
1.53935
1.55742
1.29372
1.33911
1.38867
1.43459
1.4754
1.51092
1.54125
1.56665
1.58712
1.60495
1.40191
1.43659
1.477
1.51404
1.54795
1.57835
1.60489
1.62729
1.64478
1.66231
1.49725
1.52712
1.56243
1.59565
1.62644
1.65438
1.67882
1.69912
1.71404
1.73147
1.5876
1.61763
1.65236
1.68515
1.71531
1.7424
1.76571
1.78445
1.79731
1.81478
1.68403
1.7179
1.75479
1.78893
1.81932
1.84578
1.86793
1.8852
1.89679
1.91461
1.79967
1.83828
1.87679
1.9113
1.94078
1.96562
1.98605
2.00187
2.01329
2.03165
1.94491
1.98457
2.02008
2.05059
2.07627
2.09843
2.11752
2.13311
2.14581
2.16396
2.11957
2.15186
2.17777
2.20013
2.22024
2.23903
2.25671
2.2733
2.28907
2.30728
2.30729
2.32494
2.34059
2.35724
2.37343
2.388
2.40106
2.41506
2.43216
2.45185
2.48917
2.50003
2.5122
2.52302
2.53229
2.54188
2.55281
2.56442
2.57438
2.58956
2.70009
2.70213
2.68699
2.67177
2.66542
2.67111
2.68973
2.72016
2.75231
2.78306
3.00601
2.86896
2.79269
2.75065
2.73323
2.73727
2.76464
2.82079
2.92425
3.13954
1.28844
1.28506
1.27913
1.26932
1.25637
1.24393
1.23361
1.22563
1.21993
1.21658
1.21611
1.21875
1.22378
1.23096
1.24034
1.25199
1.2651
1.27707
1.28452
1.28923
1.20646
1.21234
1.21925
1.22448
1.22732
1.22698
1.22406
1.22011
1.21649
1.21413
1.21386
1.21594
1.21954
1.22381
1.2277
1.22966
1.22852
1.2244
1.21848
1.21143
1.19883
1.20118
1.20452
1.20743
1.20964
1.21143
1.21236
1.21207
1.21099
1.21001
1.21005
1.21135
1.21305
1.21424
1.21421
1.21299
1.21113
1.20875
1.20557
1.2026
1.19372
1.19481
1.19667
1.19905
1.20101
1.20239
1.20346
1.20428
1.20468
1.20483
1.20518
1.20582
1.20623
1.20609
1.20547
1.20453
1.20306
1.20096
1.19881
1.19739
1.18867
1.18933
1.19044
1.19216
1.19397
1.19558
1.19682
1.1978
1.19865
1.19936
1.19993
1.20027
1.20025
1.19991
1.19924
1.19811
1.19659
1.19495
1.19358
1.19278
1.18382
1.18427
1.18506
1.18636
1.18787
1.1894
1.19086
1.1921
1.19315
1.19408
1.1948
1.19514
1.19507
1.19462
1.19377
1.19263
1.19137
1.19014
1.18916
1.18863
1.17911
1.17945
1.18007
1.18116
1.18247
1.18386
1.18531
1.18673
1.18802
1.18915
1.19002
1.19044
1.19035
1.18982
1.189
1.18802
1.18701
1.18602
1.18528
1.18488
1.17454
1.1748
1.1753
1.17625
1.17746
1.17878
1.18019
1.18166
1.18313
1.18448
1.18554
1.18607
1.18603
1.18558
1.1849
1.1841
1.18324
1.18243
1.18184
1.18154
1.17005
1.17025
1.17067
1.17151
1.17266
1.17394
1.17532
1.17681
1.17838
1.17993
1.18123
1.18194
1.18206
1.18181
1.18131
1.18067
1.17996
1.1793
1.17884
1.1786
1.16557
1.16573
1.16608
1.16687
1.16798
1.16926
1.17067
1.17222
1.17389
1.17564
1.17721
1.17819
1.17858
1.17854
1.17823
1.17774
1.17717
1.17662
1.17626
1.17608
1.16107
1.16119
1.1615
1.16225
1.16336
1.16467
1.16617
1.16785
1.1697
1.17167
1.17357
1.17493
1.17562
1.17581
1.17566
1.17531
1.17487
1.17443
1.17415
1.17401
1.15652
1.1566
1.15688
1.15761
1.15875
1.16013
1.1617
1.16353
1.16564
1.16799
1.17032
1.17207
1.17306
1.17353
1.17362
1.17346
1.17314
1.17279
1.17259
1.17249
1.15186
1.15191
1.15216
1.15287
1.15404
1.15547
1.15714
1.15911
1.16145
1.16416
1.167
1.16931
1.1708
1.17167
1.17207
1.17214
1.172
1.17179
1.17166
1.1716
1.14708
1.1471
1.14732
1.14803
1.14925
1.15079
1.15264
1.1549
1.15764
1.16088
1.16438
1.16733
1.16932
1.17056
1.17129
1.17161
1.17166
1.17158
1.17154
1.17151
1.1421
1.1421
1.1423
1.14297
1.14419
1.1458
1.1478
1.15033
1.15349
1.15738
1.1617
1.16544
1.16813
1.16995
1.17106
1.17176
1.17215
1.17231
1.17237
1.17236
1.13655
1.13653
1.13674
1.1374
1.13864
1.14036
1.14262
1.14555
1.1493
1.15399
1.15931
1.16407
1.16753
1.16997
1.17166
1.1728
1.17352
1.17392
1.17408
1.17409
1.13009
1.13006
1.13028
1.13099
1.13234
1.13428
1.13689
1.14037
1.14491
1.15066
1.15725
1.16316
1.16758
1.17077
1.17305
1.17465
1.17574
1.17638
1.17663
1.17664
1.12236
1.12233
1.12258
1.1234
1.12494
1.1272
1.13032
1.13451
1.14004
1.14709
1.15523
1.16262
1.16817
1.17225
1.1752
1.17734
1.17882
1.1797
1.18004
1.18006
1.11299
1.11294
1.11326
1.11426
1.11611
1.11888
1.12272
1.12791
1.13476
1.1435
1.15356
1.16268
1.16955
1.17463
1.17834
1.18105
1.18293
1.18404
1.18446
1.18448
1.1015
1.10144
1.10185
1.10311
1.10543
1.10889
1.1137
1.12022
1.12879
1.13965
1.15208
1.16329
1.17173
1.17796
1.18255
1.18592
1.18826
1.18961
1.1901
1.19013
1.08727
1.08719
1.08774
1.08938
1.09235
1.09679
1.10296
1.11125
1.12209
1.13564
1.15094
1.16463
1.17488
1.18246
1.18804
1.19217
1.19503
1.19664
1.19723
1.19727
1.06938
1.06928
1.07005
1.07223
1.07615
1.08201
1.09008
1.1008
1.11457
1.13148
1.15025
1.16681
1.17917
1.1883
1.19508
1.20005
1.20349
1.20538
1.20607
1.20611
1.04655
1.04644
1.04755
1.05056
1.05589
1.06384
1.07463
1.08867
1.10625
1.1273
1.15014
1.17002
1.18478
1.19569
1.2038
1.20974
1.2138
1.21604
1.21684
1.21688
1.01658
1.0165
1.01826
1.02266
1.03029
1.04148
1.05624
1.07483
1.09729
1.12332
1.15084
1.17442
1.19183
1.20474
1.21433
1.22137
1.22614
1.22876
1.22968
1.2297
0.975472
0.975581
0.978779
0.986089
0.997857
1.01427
1.03484
1.0595
1.08801
1.11987
1.15261
1.18019
1.20045
1.21548
1.2267
1.23495
1.24056
1.2436
1.2446
1.24459
0.915689
0.91698
0.924757
0.938472
0.957805
0.982368
1.01098
1.04332
1.07898
1.11737
1.1557
1.18745
1.21061
1.22782
1.24072
1.25029
1.25685
1.2603
1.26132
1.26126
0.844106
0.846468
0.861333
0.885012
0.914867
0.948886
0.986278
1.02682
1.07022
1.11594
1.16094
1.19806
1.22525
1.24562
1.26102
1.27253
1.28052
1.2848
1.28599
1.28601
0.770772
0.777749
0.799789
0.833357
0.872967
0.916207
0.962322
1.01111
1.06232
1.11548
1.16733
1.20999
1.2413
1.26489
1.28299
1.29679
1.30639
1.31077
1.31231
1.31265
0.711956
0.720709
0.747392
0.787734
0.834897
0.885902
0.939804
0.996258
1.05488
1.11512
1.17342
1.22111
1.25603
1.28232
1.30246
1.31775
1.32836
1.33382
1.33615
1.33661
0.664031
0.673364
0.703491
0.748701
0.801595
0.858797
0.919226
0.982375
1.04769
1.11446
1.17866
1.23085
1.26883
1.29726
1.31899
1.33555
1.34721
1.35349
1.35613
1.35665
0.623865
0.633401
0.665834
0.714819
0.772347
0.834659
0.900572
0.969508
1.04075
1.1134
1.18296
1.23913
1.27969
1.30987
1.33281
1.35026
1.36263
1.36955
1.37245
1.37301
0.588911
0.59853
0.632652
0.684709
0.746085
0.812739
0.883412
0.957437
1.03397
1.11195
1.18637
1.24611
1.28892
1.32051
1.34434
1.36236
1.37514
1.38251
1.38554
1.38612
0.557616
0.56727
0.602706
0.657344
0.721942
0.792337
0.867211
0.945794
1.02714
1.11002
1.18898
1.25203
1.29687
1.32966
1.35414
1.37247
1.38547
1.393
1.39604
1.39667
0.528795
0.538504
0.57504
0.631895
0.699268
0.772939
0.851544
0.934248
1.02002
1.10751
1.1908
1.25705
1.30384
1.33773
1.36279
1.38137
1.39442
1.40208
1.40512
1.40571
0.501679
0.511453
0.548971
0.607725
0.677582
0.754174
0.836109
0.922551
1.01243
1.10428
1.19178
1.26125
1.31002
1.34506
1.37073
1.38962
1.40277
1.41043
1.41349
1.41392
0.475776
0.485642
0.524076
0.584433
0.656559
0.735757
0.820691
0.91054
1.00421
1.10022
1.1919
1.26465
1.31555
1.3519
1.37829
1.39754
1.41083
1.41847
1.42149
1.42191
0.450679
0.460721
0.499978
0.561853
0.63599
0.717521
0.805156
0.898107
0.995308
1.09527
1.19109
1.26732
1.32058
1.35841
1.38568
1.40539
1.41889
1.42653
1.42943
1.42984
0.426208
0.43649
0.476468
0.539829
0.615746
0.699355
0.789429
0.885203
0.985659
1.08939
1.18935
1.26924
1.3251
1.36464
1.39297
1.41328
1.42704
1.43467
1.43743
1.43778
0.402308
0.412802
0.453543
0.518231
0.595752
0.681229
0.773488
0.871811
0.975258
1.08255
1.1866
1.27031
1.32907
1.37062
1.4002
1.42122
1.43526
1.44283
1.44542
1.44567
0.378861
0.389653
0.431136
0.497033
0.575997
0.663142
0.757347
0.857953
0.964119
1.07473
1.18274
1.27042
1.33243
1.37632
1.40739
1.4292
1.44351
1.45097
1.45333
1.45346
0.355932
0.367013
0.409229
0.476241
0.556503
0.645128
0.741057
0.843681
0.952274
1.06591
1.17773
1.26949
1.33504
1.38168
1.41455
1.43727
1.45175
1.45894
1.461
1.46102
0.333492
0.344886
0.387855
0.455889
0.537313
0.627238
0.724674
0.829068
0.939791
1.05614
1.17154
1.26737
1.33672
1.38658
1.42171
1.44551
1.46
1.46668
1.46833
1.46823
0.311734
0.323361
0.36706
0.436025
0.518485
0.609555
0.708279
0.814197
0.926763
1.04551
1.16415
1.26394
1.33729
1.39083
1.42886
1.45415
1.46848
1.47417
1.47516
1.47493
0.290536
0.302497
0.34688
0.416686
0.500064
0.592129
0.691971
0.799163
0.913291
1.03409
1.15559
1.25913
1.33651
1.39411
1.43585
1.46352
1.47781
1.48177
1.48144
1.48099
0.270057
0.282326
0.327347
0.397931
0.482135
0.575048
0.675837
0.784092
0.899491
1.02198
1.14592
1.25285
1.33418
1.39603
1.44226
1.47374
1.48917
1.49103
1.48782
1.48625
0.250257
0.262806
0.308517
0.379816
0.464741
0.558384
0.659965
0.769069
0.885482
1.00932
1.13525
1.24506
1.33015
1.3961
1.44719
1.48411
1.50338
1.50545
1.4984
1.48776
0.231211
0.243972
0.290303
0.362185
0.447668
0.54185
0.644008
0.753674
0.870792
0.995576
1.12299
1.23511
1.32381
1.39365
1.44931
1.49284
1.51916
1.52521
1.51705
1.509
0.212974
0.225853
0.272692
0.345094
0.430939
0.525456
0.627998
0.737899
0.855396
0.980654
1.109
1.22266
1.31453
1.38804
1.44608
1.49419
1.52417
1.53492
1.49993
1.45005
0.19581
0.20912
0.255715
0.328631
0.414492
0.509113
0.611918
0.721872
0.839368
0.96463
1.09326
1.20762
1.30142
1.37905
1.43573
1.47703
1.50768
1.49903
1.44157
1.37615
0.177936
0.193761
0.239709
0.313317
0.39856
0.493193
0.595497
0.705652
0.822838
0.947671
1.07579
1.18991
1.2833
1.36782
1.41777
1.46627
1.44679
1.40888
1.33976
1.26968
0.190828
0.21109
0.260162
0.337648
0.427707
0.52605
0.633543
0.746609
0.866699
0.994749
1.11638
1.21708
1.30238
1.39037
1.43592
1.36408
1.32142
1.26074
1.18773
1.13881
0.171137
0.18449
0.22103
0.289099
0.373965
0.468073
0.570441
0.67994
0.79616
0.919472
1.04528
1.15713
1.24608
1.32672
1.3953
1.39259
1.28056
1.19844
1.1361
1.05265
0.150062
0.164468
0.206059
0.275474
0.360663
0.454326
0.555478
0.66396
0.779067
0.900738
1.02443
1.13381
1.21948
1.28659
1.31454
1.24401
1.10374
1.00791
0.932459
0.842991
0.128818
0.141268
0.187001
0.257705
0.342985
0.436777
0.537839
0.645915
0.75999
0.879956
1.00054
1.1052
1.18399
1.23411
1.21244
1.08353
0.929587
0.810903
0.712126
0.576165
0.105619
0.118339
0.166071
0.23792
0.323451
0.417239
0.518134
0.625527
0.73835
0.856225
0.973167
1.07237
1.1431
1.17317
1.11329
0.927993
0.743372
0.586914
0.442152
0.249955
0.0832196
0.0956795
0.144561
0.217504
0.303498
0.397238
0.497721
0.604182
0.715509
0.830929
0.943825
1.03704
1.09892
1.10027
0.987288
0.779661
0.561872
0.35142
0.170262
-0.241171
0.0608523
0.0729312
0.122322
0.196041
0.282425
0.376177
0.476238
0.581754
0.691474
0.804215
0.91274
0.999319
1.05069
1.01708
0.860739
0.64664
0.417101
0.201399
0.0156521
-0.328085
0.0376415
0.0495571
0.0991336
0.173311
0.259966
0.353733
0.453408
0.558002
0.666057
0.775955
0.879877
0.959304
0.997293
0.9417
0.74515
0.537045
0.320404
0.138477
0.0646284
0.0269606
0.0131345
0.0248692
0.0746326
0.149035
0.235758
0.32938
0.428517
0.531964
0.638028
0.744594
0.843301
0.914748
0.937912
0.850765
0.640597
0.443454
0.262307
0.143648
0.107662
0.0960049
-0.0128347
-0.00119732
0.048682
0.123213
0.209881
0.303195
0.401587
0.503638
0.607342
0.710055
0.802868
0.865952
0.867467
0.743197
0.544896
0.362765
0.209242
0.145304
0.131619
0.127239
-0.0403263
-0.0289743
0.021229
0.0958592
0.182377
0.275215
0.372662
0.473035
0.574018
0.672402
0.758598
0.813114
0.787256
0.639981
0.454098
0.284583
0.172369
0.135506
0.140522
0.140685
-0.0693069
-0.0579018
-0.00769752
0.0670507
0.153325
0.245538
0.341815
0.440239
0.538147
0.631705
0.710813
0.754879