/*--------------------------------*- C++ -*----------------------------------*\
| =========                 |                                                 |
| \\      /  F ield         | OpenFOAM: The Open Source CFD Toolbox           |
|  \\    /   O peration     | Version:  2306                                  |
|   \\  /    A nd           | Website:  www.openfoam.com                      |
|    \\/     M anipulation  |                                                 |
\*---------------------------------------------------------------------------*/
FoamFile
{
    version     2.0;
    format      ascii;
    arch        "LSB;label=32;scalar=64";
    class       surfaceScalarField;
    location    "29";
    object      phi;
}
// * * * * * * * * * * * * * * * * * * * * * * * * * * * * * * * * * * * * * //

dimensions      [0 3 -1 0 0 0 0];

oriented        oriented;

internalField   nonuniform List<scalar> 
17370
(
-0.091099
0.0935436
0.286566
-0.0749516
0.0569503
0.364777
-0.0409325
0.0299477
0.427153
-0.0211908
0.0155875
0.504855
-0.0113328
0.0086282
0.602107
-0.00649083
0.0050365
0.720512
-0.00382105
0.00295776
0.86377
-0.00220305
0.00164098
1.03601
-0.00112569
0.00071738
1.24291
-0.000314861
-6.73869e-05
1.49157
0.000445957
-0.000853482
1.4916
0.00125772
-0.00176484
1.2432
0.00231843
-0.00306364
1.03638
0.00391793
-0.0051236
0.864112
0.00656946
-0.00869799
0.721186
0.0113947
-0.015641
0.603461
0.0212369
-0.029986
0.508188
0.0409636
-0.0569746
0.432179
0.0749706
-0.0935549
0.36536
0.0911097
0.197901
-0.127344
0.0881401
0.0392038
-0.364734
0.353784
-0.0726334
0.0835832
-0.446564
0.454364
-0.0817174
0.0739173
-0.520967
0.529523
-0.0658075
0.0572512
-0.612843
0.621016
-0.0494958
0.0413234
-0.726994
0.733788
-0.0343892
0.0275947
-0.867511
0.872436
-0.0222531
0.0173287
-1.03855
1.04187
-0.0136298
0.0103065
-1.24471
1.24709
-0.00777835
0.0053939
-1.49283
1.49483
-0.00344718
0.00145108
-1.49268
1.49449
0.00035945
-0.00216892
-1.2441
1.24602
0.00414193
-0.00605686
-1.0376
1.04009
0.00840059
-0.0108887
-0.866164
0.869823
0.0141675
-0.0178261
-0.724486
0.729789
0.0227069
-0.0280096
-0.608893
0.615791
0.0347628
-0.0416607
-0.514991
0.522713
0.0497952
-0.0575174
-0.439771
0.447849
0.0660369
-0.0741147
-0.375167
0.377004
0.0818749
-0.0837121
-0.256932
0.223448
0.0727216
-0.0392374
-0.0686436
0.0589133
0.00973033
-0.0520826
0.0587853
-0.374534
0.367831
-0.0579022
0.0540782
-0.453822
0.457646
-0.0487209
0.044382
-0.527732
0.532071
-0.0401578
0.036375
-0.621088
0.624871
-0.0321538
0.0280918
-0.734862
0.738924
-0.0236379
0.0196677
-0.874031
0.878001
-0.0155624
0.0120754
-1.04338
1.04686
-0.00854134
0.00550757
-1.24864
1.25167
-0.00230693
-0.000667124
-1.49691
1.49989
0.00362768
-0.00678741
-1.49741
1.50057
0.00976469
-0.0132242
-1.2501
1.25356
0.0166381
-0.0206603
-1.04574
1.04976
0.024555
-0.0289284
-0.877341
0.881715
0.032919
-0.0370651
-0.73934
0.743486
0.0407833
-0.0449422
-0.626371
0.63053
0.0492267
-0.0545312
-0.534963
0.540267
0.0582991
-0.0591134
-0.457948
0.458762
0.0523286
-0.0319917
-0.336442
0.316105
0.00977152
-0.0685329
0.0587614
-0.0531523
0.0491032
0.00404917
-0.0331684
0.0436632
-0.358352
0.347857
-0.0473819
0.0467967
-0.459491
0.460077
-0.0438206
0.0405501
-0.535998
0.539269
-0.036837
0.0335002
-0.628411
0.631748
-0.0299392
0.0268024
-0.742223
0.74536
-0.0234807
0.0203534
-0.881538
0.884665
-0.0168104
0.0134802
-1.05034
1.05367
-0.00979666
0.00639967
-1.25495
1.25835
-0.0026148
-0.00100269
-1.50325
1.50687
0.00459661
-0.00831543
-1.50409
1.50781
0.0116253
-0.0151973
-1.25716
1.26073
0.0184181
-0.021837
-1.05353
1.05695
0.0248541
-0.0280611
-0.885337
0.888544
0.0310958
-0.0345483
-0.746996
0.750448
0.0377917
-0.04141
-0.634557
0.638175
0.0446011
-0.0474895
-0.544508
0.547396
0.0479845
-0.0441405
-0.456955
0.453111
0.0334981
-0.0162001
-0.296781
0.279483
0.00409906
-0.0529568
0.0488577
-0.0459805
0.0434571
0.00252337
-0.0229138
0.0332787
-0.337212
0.326847
-0.0390618
0.0400507
-0.459777
0.458788
-0.0388372
0.0365411
-0.541925
0.544221
-0.0339032
0.0313468
-0.634721
0.637277
-0.0283558
0.0255258
-0.748406
0.751236
-0.022339
0.0193958
-0.887658
0.890601
-0.0161346
0.0130781
-1.05682
1.05988
-0.00959482
0.00624832
-1.26173
1.26508
-0.00238518
-0.0013774
-1.5106
1.51436
0.00510875
-0.00887913
-1.5116
1.51537
0.0121051
-0.0154382
-1.26419
1.26752
0.0183481
-0.0214438
-1.06011
1.06321
0.0242392
-0.0272711
-0.8917
0.894732
0.0299645
-0.0328105
-0.753662
0.756508
0.0352404
-0.0377509
-0.641203
0.643714
0.0399416
-0.0410203
-0.549241
0.550319
0.0398931
-0.0339115
-0.447965
0.441983
0.0233327
-0.0102061
-0.264376
0.251249
0.00258464
-0.045681
0.0430963
-0.0413605
0.0395796
0.00178082
-0.0168181
0.0260773
-0.316984
0.307724
-0.0326768
0.0348116
-0.457188
0.455053
-0.0343961
0.0327261
-0.546194
0.547864
-0.0305404
0.0284534
-0.639538
0.641625
-0.0260605
0.0237276
-0.753825
0.756158
-0.0209687
0.0182844
-0.893447
0.896131
-0.0151751
0.0122164
-1.06288
1.06584
-0.00883477
0.00559948
-1.26834
1.27158
-0.00184726
-0.00182169
-1.51808
1.52175
0.00544928
-0.00908013
-1.51909
1.52272
0.0121562
-0.015337
-1.27077
1.27395
0.0180996
-0.0209902
-1.06623
1.06912
0.0234809
-0.0260382
-0.897547
0.900105
0.0281959
-0.0304056
-0.758982
0.761191
0.032333
-0.0343556
-0.645928
0.647951
0.0358754
-0.0361091
-0.55091
0.551143
0.0337652
-0.0268798
-0.435453
0.428567
0.0173366
-0.00731578
-0.23982
0.229799
0.00185554
-0.0409343
0.0390787
-0.0380458
0.0367117
0.0013341
-0.0127998
0.0207405
-0.29912
0.291179
-0.0274814
0.0304026
-0.452482
0.449561
-0.0306183
0.0295087
-0.54927
0.550379
-0.0275295
0.0256312
-0.643626
0.645524
-0.0234739
0.0214081
-0.758348
0.760414
-0.0190094
0.0166505
-0.898641
0.901
-0.0138491
0.0110963
-1.06867
1.07143
-0.00787657
0.00476656
-1.27473
1.27784
-0.00115685
-0.00235667
-1.52534
1.52885
0.00581965
-0.00927549
-1.52628
1.52974
0.0121809
-0.0151399
-1.27704
1.28
0.0176369
-0.0201536
-1.07183
1.07434
0.0222644
-0.02441
-0.90241
0.904556
0.0262567
-0.0281842
-0.763239
0.765167
0.0298801
-0.031659
-0.649841
0.65162
0.032549
-0.0320793
-0.551025
0.550556
0.0288621
-0.0217344
-0.421497
0.414369
0.0134333
-0.00559109
-0.220965
0.213123
0.00142483
-0.0374657
0.0360408
-0.0355493
0.0345298
0.00101942
-0.00992406
0.0165971
-0.283889
0.277216
-0.0230447
0.0264119
-0.446381
0.443013
-0.0272162
0.026561
-0.551233
0.551888
-0.0248535
0.0231271
-0.647349
0.649076
-0.0211416
0.0192269
-0.762428
0.764342
-0.0169902
0.0147939
-0.903264
0.90546
-0.0122055
0.00966188
-1.07403
1.07657
-0.00667052
0.00374785
-1.28083
1.28375
-0.000330385
-0.00300253
-1.53226
1.53559
0.00627096
-0.009491
-1.53309
1.53631
0.0121538
-0.0148083
-1.28282
1.28547
0.0170215
-0.0192434
-1.07671
1.07893
0.0211239
-0.0230441
-0.906571
0.908492
0.0246922
-0.0263996
-0.766963
0.768671
0.027878
-0.0293114
-0.653258
0.654691
0.0296902
-0.0285299
-0.549747
0.548586
0.0247623
-0.0178142
-0.4073
0.400352
0.0106944
-0.00441594
-0.206133
0.199854
0.0011295
-0.0347826
0.0336531
-0.0336384
0.0328566
0.000781791
-0.00774345
0.0132807
-0.271132
0.265595
-0.0191825
0.0227064
-0.439545
0.436021
-0.0239635
0.0235476
-0.552428
0.552844
-0.0221142
0.0205145
-0.650754
0.652353
-0.0186597
0.0168798
-0.766221
0.768001
-0.0148019
0.012759
-0.90757
0.909613
-0.0103491
0.00798697
-1.07896
1.08132
-0.00521616
0.00250452
-1.28652
1.28923
0.000674807
-0.00378746
-1.5388
1.54192
0.00681815
-0.0097588
-1.53942
1.54236
0.0121446
-0.0144904
-1.288
1.29034
0.0164338
-0.0183776
-1.08102
1.08297
0.0200225
-0.0217085
-0.910268
0.911954
0.0231589
-0.0246703
-0.770246
0.771758
0.0259613
-0.0270423
-0.655948
0.657029
0.027093
-0.0253543
-0.547141
0.545402
0.0213017
-0.014766
-0.393602
0.387066
0.00868033
-0.00356557
-0.194207
0.189093
0.000915985
-0.0326452
0.0317292
-0.0321755
0.031581
0.000594583
-0.0060171
0.0105562
-0.260576
0.256037
-0.015789
0.0192697
-0.432504
0.429023
-0.0208379
0.0206587
-0.553153
0.553333
-0.0194783
0.0179765
-0.653928
0.655429
-0.0162323
0.0145635
-0.76977
0.771439
-0.0126148
0.0106917
-0.911568
0.913492
-0.00841195
0.00617948
-1.08355
1.08578
-0.0035681
0.00103536
-1.2918
1.29434
0.00190349
-0.00473286
-1.54485
1.54768
0.00746781
-0.0101169
-1.54516
1.54781
0.0122599
-0.0143592
-1.29259
1.29469
0.0160792
-0.0177773
-1.08481
1.0865
0.0191892
-0.0206348
-0.913491
0.914936
0.021892
-0.0232155
-0.773141
0.774465
0.0243473
-0.0250546
-0.65794
0.658648
0.0247531
-0.0225476
-0.543452
0.541247
0.0183872
-0.0123657
-0.380796
0.374774
0.00715728
-0.00293248
-0.184462
0.180238
0.000758515
-0.0309067
0.0301482
-0.0310687
0.0306313
0.000437426
-0.00456637
0.00820195
-0.251967
0.248331
-0.0126783
0.0159349
-0.425642
0.422386
-0.0176658
0.0177135
-0.553399
0.553351
-0.0168024
0.0154316
-0.656899
0.65827
-0.013807
0.0122279
-0.773116
0.774695
-0.010362
0.00851144
-0.915342
0.917193
-0.00632958
0.00421143
-1.08788
1.09
-0.00175809
-0.000598402
-1.29673
1.29909
0.00331157
-0.00590549
-1.55036
1.55295
0.00838067
-0.0107411
-1.55031
1.55267
0.0126206
-0.0144323
-1.29668
1.2985
0.0159046
-0.0173584
-1.08811
1.08956
0.0185665
-0.0197963
-0.91626
0.91749
0.020861
-0.0219707
-0.775625
0.776735
0.0228809
-0.0231811
-0.659143
0.659444
0.0225302
-0.0199748
-0.538899
0.536343
0.0158593
-0.0104103
-0.369063
0.363614
0.00595869
-0.00244327
-0.176403
0.172888
0.000638958
-0.0294634
0.0288245
-0.0302652
0.0299665
0.000298675
-0.00328913
0.00609066
-0.245124
0.242322
-0.0097636
0.0126478
-0.419308
0.416424
-0.0143689
0.0145612
-0.553231
0.553039
-0.0137773
0.0125323
-0.659617
0.660862
-0.0109835
0.00947395
-0.7763
0.777809
-0.00770333
0.00596621
-0.918942
0.920679
-0.00393657
0.00197557
-1.09197
1.09393
0.000292083
-0.00247675
-1.3013
1.30349
0.00498317
-0.00735799
-1.5554
1.55778
0.00958353
-0.0116456
-1.55488
1.55695
0.0132366
-0.014727
-1.3002
1.30169
0.015911
-0.0170428
-1.09091
1.09204
0.0179827
-0.0189338
-0.918586
0.919537
0.0197699
-0.0206559
-0.77766
0.778546
0.0212984
-0.0213402
-0.659607
0.659649
0.0203498
-0.0175927
-0.533717
0.53096
0.0136474
-0.00878766
-0.35849
0.35363
0.00499308
-0.0020568
-0.169695
0.166759
0.000546546
-0.028247
0.0277004
-0.0297329
0.0295596
0.000173298
-0.00211498
0.00412272
-0.239925
0.237918
-0.00696593
0.00938173
-0.41378
0.411365
-0.0109745
0.0112424
-0.55283
0.552562
-0.0105493
0.00943138
-0.662109
0.663227
-0.00798842
0.00657042
-0.779321
0.780739
-0.00489388
0.00323976
-0.922286
0.92394
-0.00130426
-0.00056391
-1.09574
1.0976
0.00270921
-0.00474713
-1.30553
1.30757
0.00703975
-0.00915374
-1.55999
1.56211
0.0110921
-0.0128413
-1.55885
1.5606
0.0141449
-0.0153126
-1.30305
1.30422
0.0161868
-0.016999
-1.09304
1.09385
0.0176389
-0.0182763
-0.920341
0.920978
0.0188479
-0.0194742
-0.779243
0.77987
0.0198602
-0.0196072
-0.659554
0.659301
0.0183272
-0.0154322
-0.52818
0.525285
0.0117096
-0.00742236
-0.349097
0.34481
0.00420547
-0.00175331
-0.164101
0.161648
0.000478874
-0.0272057
0.0267269
-0.0294515
0.0294059
4.56025e-05
-0.000985054
0.00223078
-0.236298
0.235052
-0.00423058
0.00611649
-0.409228
0.407342
-0.00751913
0.00786295
-0.552288
0.551944
-0.00733517
0.00639277
-0.664336
0.665278
-0.00507037
0.00370857
-0.782158
0.78352
-0.00205653
0.00041753
-0.925474
0.927113
0.00149918
-0.00332824
-1.09936
1.10118
0.00540967
-0.0073494
-1.30949
1.31143
0.00948248
-0.0113965
-1.56407
1.56598
0.0130783
-0.0145377
-1.56221
1.56367
0.0155713
-0.0164384
-1.30532
1.30619
0.0170452
-0.017542
-1.09461
1.0951
0.0179099
-0.0182579
-0.921478
0.921826
0.0185561
-0.0188497
-0.780185
0.780479
0.0188129
-0.0181981
-0.658815
0.6582
0.0165617
-0.0135285
-0.522387
0.519354
0.0100391
-0.00627898
-0.340847
0.337086
0.00355821
-0.0015072
-0.159443
0.157392
0.000425057
-0.0262966
0.0258715
-0.0294248
0.0295178
-9.30062e-05
0.000138008
0.000376285
-0.234187
0.233672
-0.00152199
0.0027867
-0.405786
0.404521
-0.00384189
0.00412441
-0.551665
0.551383
-0.00366163
0.00281965
-0.666263
0.667105
-0.00156493
0.000219483
-0.784896
0.786241
0.00143694
-0.0030674
-0.928616
0.930247
0.00494117
-0.00671007
-1.10286
1.10463
0.00868777
-0.0105029
-1.31323
1.31504
0.0124607
-0.0141669
-1.56776
1.56946
0.015591
-0.0166997
-1.56495
1.56606
0.0173758
-0.0178352
-1.30692
1.30738
0.0180814
-0.0182404
-1.09549
1.09565
0.0183156
-0.0183315
-0.922024
0.92204
0.0182825
-0.0181997
-0.780457
0.780375
0.017827
-0.0168046
-0.6573
0.656278
0.0149254
-0.0118773
-0.516396
0.513348
0.00866118
-0.00537554
-0.333645
0.330359
0.00305823
-0.00131351
-0.155555
0.15381
0.000377561
-0.0254957
0.0251181
-0.0296757
0.0298888
-0.000213096
0.00104364
-0.0011745
-0.233527
0.233657
0.000823072
-0.000196261
-0.403622
0.402996
-0.000415128
0.000490831
-0.551282
0.551206
5.36536e-05
-0.000928274
-0.668088
0.668962
0.00220066
-0.00356264
-0.78759
0.788952
0.00523242
-0.00686856
-0.931704
0.93334
0.00874647
-0.0105071
-1.10624
1.108
0.012462
-0.0142278
-1.31673
1.31849
0.0160761
-0.0175943
-1.57101
1.57252
0.0187654
-0.0195914
-1.567
1.56783
0.0199739
-0.0200981
-1.30776
1.30789
0.0200161
-0.0197706
-1.09567
1.09542
0.019471
-0.0191172
-0.921849
0.921495
0.0187946
-0.018405
-0.779959
0.779569
0.0176865
-0.0163071
-0.655062
0.653683
0.0141939
-0.0110926
-0.51041
0.507309
0.00803861
-0.00503036
-0.327326
0.324318
0.00290807
-0.00127069
-0.1522
0.150563
0.000369039
-0.02478
0.0244109
-0.0301568
0.0304721
-0.000315257
0.00181444
-0.00248175
-0.234035
0.234702
0.00285228
-0.00284623
-0.402732
0.402726
0.00270702
-0.00286179
-0.551389
0.551543
0.00351171
-0.00447635
-0.670022
0.670987
0.0058373
-0.0072956
-0.790318
0.791776
0.00908563
-0.0108397
-0.934815
0.936569
0.0128534
-0.0147422
-1.10964
1.11153
0.016815
-0.0186393
-1.32017
1.32199
0.0204706
-0.021882
-1.57392
1.57533
0.0228583
-0.0234142
-1.56851
1.56906
0.0235296
-0.0233215
-1.30789
1.30769
0.0229324
-0.0223519
-1.09501
1.09443
0.021728
-0.02101
-0.920902
0.920184
0.0203651
-0.0196086
-0.778853
0.778096
0.0185391
-0.0167634
-0.652162
0.650386
0.0143928
-0.0111808
-0.504325
0.501113
0.00816937
-0.00522927
-0.321479
0.318539
0.00309242
-0.00137424
-0.148971
0.147253
0.000401631
-0.0240641
0.0236625
-0.0308488
0.0312704
-0.000421544
0.0025488
-0.00369081
-0.235625
0.236767
0.00470932
-0.00533302
-0.403068
0.403692
0.00575597
-0.00618883
-0.552037
0.552469
0.00696739
-0.00805514
-0.672173
0.67326
0.00960106
-0.0112799
-0.793252
0.79493
0.0133492
-0.0153695
-0.938212
0.940232
0.0176708
-0.019793
-1.11335
1.11548
0.0220661
-0.0240086
-1.32374
1.32569
0.025872
-0.0272118
-1.57662
1.57796
0.0280222
-0.0282927
-1.56944
1.56971
0.0281321
-0.0276012
-1.30735
1.30682
0.0268902
-0.0259494
-1.09366
1.09272
0.0250132
-0.0239573
-0.91921
0.918154
0.0229807
-0.021801
-0.776962
0.775782
0.0203407
-0.0181554
-0.648514
0.646329
0.0155016
-0.0121114
-0.49803
0.49464
0.00900021
-0.00589827
-0.315685
0.312583
0.00355059
-0.00159638
-0.14551
0.143556
0.000469361
-0.0232711
0.0228017
-0.0317629
0.0323155
-0.000552657
0.00340286
-0.00504694
-0.23819
0.239834
0.00670894
-0.00796766
-0.404642
0.405901
0.00904597
-0.00995177
-0.553409
0.554314
0.0110841
-0.0124701
-0.674645
0.676031
0.0143712
-0.0164063
-0.796628
0.798663
0.0188656
-0.0212134
-0.942151
0.944499
0.0238267
-0.0261754
-1.11751
1.11986
0.0286337
-0.0306743
-1.32754
1.32958
0.0325581
-0.033801
-1.57918
1.58042
0.0343861
-0.0343161
-1.56978
1.56971
0.0337871
-0.0328264
-1.30607
1.30511
0.0317184
-0.0303737
-1.09155
1.09021
0.0290741
-0.0276359
-0.916782
0.915344
0.0263085
-0.0247172
-0.774233
0.772642
0.0229111
-0.0203712
-0.644088
0.641548
0.0174573
-0.0138072
-0.491394
0.487744
0.0103988
-0.00690208
-0.309478
0.305981
0.00418713
-0.00189273
-0.141539
0.139244
0.000558701
-0.0223398
0.0217811
-0.0329473
0.0336746
-0.000727304
0.00450539
-0.00673941
-0.241787
0.244021
0.00909705
-0.0110244
-0.407563
0.409491
0.0128289
-0.0143679
-0.555911
0.55745
0.0161208
-0.0180548
-0.677855
0.679789
0.0205381
-0.0230615
-0.80072
0.803243
0.0259928
-0.0287177
-0.946733
0.949457
0.031677
-0.0342804
-1.1221
1.1247
0.0369277
-0.0390445
-1.33149
1.33361
0.0408754
-0.0419097
-1.58146
1.58249
0.0421509
-0.041609
-1.56936
1.56882
0.0405913
-0.0391038
-1.30388
1.30239
0.0375542
-0.0357328
-1.08856
1.08674
0.0340405
-0.0322069
-0.913541
0.911707
0.0305328
-0.0285604
-0.770662
0.76869
0.026448
-0.0235598
-0.638997
0.636108
0.0202891
-0.0161418
-0.48421
0.480063
0.0122082
-0.00811833
-0.30243
0.29834
0.00493049
-0.00223366
-0.136876
0.13418
0.000661145
-0.0212305
0.0205694
-0.034488
0.0354596
-0.000971599
0.00601344
-0.00901798
-0.2466
0.249604
0.0121998
-0.014801
-0.411888
0.414489
0.0172906
-0.0194368
-0.559798
0.561944
0.0218647
-0.0244423
-0.68225
0.684828
0.0276347
-0.0307605
-0.805783
0.808909
0.0342979
-0.037522
-0.952092
0.955316
0.0409793
-0.0439753
-1.12723
1.13023
0.0469581
-0.0492532
-1.33561
1.3379
0.0510986
-0.0519657
-1.5833
1.58417
0.0518752
-0.0508602
-1.56796
1.56695
0.0493387
-0.0472653
-1.30055
1.29847
0.0451302
-0.0427193
-1.08457
1.08216
0.0405871
-0.0383576
-0.909486
0.907257
0.0363868
-0.0340415
-0.766317
0.763971
0.0315312
-0.0280562
-0.633144
0.629669
0.0240697
-0.0190333
-0.475889
0.470853
0.0143097
-0.00948557
-0.294179
0.289355
0.0057619
-0.00261294
-0.131419
0.12827
0.000773147
-0.0199202
0.019147
-0.0365157
0.0378305
-0.00131485
0.00810101
-0.0121396
-0.252981
0.25702
0.0163614
-0.0197141
-0.417682
0.421034
0.022813
-0.0254624
-0.565024
0.567674
0.0284586
-0.0316267
-0.687933
0.691101
0.0355552
-0.0393777
-0.812037
0.81586
0.043659
-0.047557
-0.958502
0.9624
0.0517236
-0.0553092
-1.13321
1.1368
0.0588372
-0.0614958
-1.34014
1.3428
0.0635657
-0.0644613
-1.58488
1.58577
0.0642395
-0.0629432
-1.56568
1.56439
0.0610806
-0.0585554
-1.2961
1.29357
0.0559621
-0.0529783
-1.0793
1.07632
0.0502285
-0.0473199
-0.904441
0.901533
0.0447787
-0.0416687
-0.761086
0.757976
0.0383249
-0.033672
-0.625867
0.621214
0.0285121
-0.0222891
-0.465685
0.459462
0.0166803
-0.0110673
-0.284502
0.278889
0.0067368
-0.00305751
-0.125061
0.121381
0.000903446
-0.0183877
0.0174842
-0.0392183
0.0410573
-0.00183901
0.0111675
-0.0166612
-0.261461
0.266955
0.0223039
-0.026651
-0.425277
0.429624
0.0304744
-0.0336161
-0.571462
0.574604
0.0371361
-0.0408812
-0.694771
0.698516
0.0455145
-0.0500309
-0.81962
0.824136
0.0551558
-0.0598478
-0.966294
0.970986
0.0648582
-0.0691406
-1.14042
1.14471
0.0733036
-0.0764109
-1.34545
1.34856
0.0787956
-0.0797807
-1.58655
1.58754
0.0794674
-0.0779263
-1.56288
1.56134
0.0757408
-0.0727802
-1.29077
1.28781
0.0697434
-0.0661896
-1.07291
1.06935
0.0628361
-0.0590927
-0.897903
0.89416
0.0554601
-0.0510633
-0.753985
0.749589
0.0462267
-0.0399044
-0.6159
0.609578
0.0333904
-0.0259675
-0.453152
0.445729
0.0194563
-0.0129521
-0.273306
0.266802
0.0078903
-0.00356937
-0.117645
0.113324
0.00104715
-0.0166042
0.015557
-0.0429293
0.0455963
-0.00266698
0.0157873
-0.0233049
-0.27285
0.280367
0.0308538
-0.0365989
-0.435467
0.441212
0.0415032
-0.0454107
-0.579319
0.583226
0.0496901
-0.0541467
-0.702748
0.707205
0.0596165
-0.0649609
-0.828577
0.833922
0.0710224
-0.0765205
-0.975665
0.981163
0.0823117
-0.0871551
-1.14896
1.1538
0.0917488
-0.0950712
-1.35156
1.35488
0.0974611
-0.0982175
-1.58827
1.58902
0.0974804
-0.0953616
-1.55945
1.55733
0.092586
-0.0889106
-1.28446
1.28079
0.0851606
-0.0807518
-1.06524
1.06083
0.0765135
-0.0715851
-0.889449
0.88452
0.0666156
-0.0605584
-0.743951
0.737893
0.054204
-0.046403
-0.602588
0.594787
0.0387818
-0.0303134
-0.438405
0.429937
0.0228371
-0.0152391
-0.260388
0.25279
0.00925611
-0.00415242
-0.108953
0.103849
0.0012032
-0.0145415
0.0133383
-0.0482184
0.0523248
-0.0041064
0.0231851
-0.0335448
-0.288357
0.298717
0.0436481
-0.0513791
-0.449452
0.457183
0.0579138
-0.0630722
-0.589352
0.59451
0.0687091
-0.0743329
-0.712236
0.71786
0.0809457
-0.0871803
-0.839188
0.845422
0.0940295
-0.100058
-0.986515
0.992543
0.106192
-0.111123
-1.15838
1.16331
0.115561
-0.118496
-1.35779
1.36073
0.120179
-0.120029
-1.58919
1.58904
0.118229
-0.114922
-1.55456
1.55125
0.111064
-0.106178
-1.27647
1.27159
0.101291
-0.0956006
-1.05562
1.04993
0.0901305
-0.0837888
-0.878383
0.872042
0.0775468
-0.070129
-0.730489
0.723071
0.0626772
-0.0538466
-0.586472
0.577641
0.0453159
-0.0357217
-0.42166
0.412066
0.0270167
-0.0179857
-0.245328
0.236297
0.0108308
-0.00478704
-0.0987496
0.0927059
0.00135904
-0.0121872
0.0108281
-0.0561618
0.0633458
-0.00718402
0.0365965
-0.0512497
-0.310167
0.324821
0.0650451
-0.0753705
-0.468848
0.479174
0.083804
-0.0905528
-0.602627
0.609376
0.0980968
-0.105079
-0.723991
0.730973
0.112685
-0.119417
-0.851384
0.858116
0.126441
-0.132312
-0.998106
1.00398
0.137969
-0.142186
-1.16756
1.17178
0.145568
-0.147247
-1.36279
1.36447
0.147296
-0.145394
-1.58783
1.58593
0.14178
-0.13661
-1.5469
1.54173
0.131138
-0.124579
-1.2658
1.25924
0.118217
-0.110978
-1.04327
1.03603
0.10417
-0.0965142
-0.864416
0.85676
0.0892751
-0.0809868
-0.714306
0.706017
0.0728486
-0.0631849
-0.568286
0.558623
0.0536095
-0.0424903
-0.402554
0.391435
0.0321141
-0.0212558
-0.227465
0.216607
0.0126575
-0.00549194
-0.0868342
0.0796687
0.00151387
-0.00955679
0.00804292
-0.0701432
0.073944
-0.00380076
0.0272871
-0.0399908
-0.342224
0.354927
0.0523498
-0.0617866
-0.494758
0.504195
0.0703166
-0.0788896
-0.619573
0.628146
0.0886321
-0.0973043
-0.737715
0.746388
0.107144
-0.116053
-0.864042
0.872952
0.125603
-0.13408
-1.00884
1.01732
0.142855
-0.150233
-1.17478
1.18216
0.157293
-0.162506
-1.36477
1.36998
0.166386
-0.167737
-1.58255
1.5839
0.16638
-0.162674
-1.53515
1.53144
0.157559
-0.150451
-1.25156
1.24445
0.143064
-0.133684
-1.02775
1.01837
0.12475
-0.114583
-0.847842
0.837675
0.105124
-0.0945435
-0.696227
0.685646
0.0840246
-0.071537
-0.548093
0.535605
0.0592979
-0.0449606
-0.380051
0.365713
0.0321074
-0.0195763
-0.205898
0.193366
0.0105866
-0.00408455
-0.0731483
0.0666462
0.000936864
-0.00676252
0.00582566
-0.0810984
0.0787976
0.00230076
0.00553515
-0.0136325
-0.370533
0.37863
0.0228742
-0.0299502
-0.51835
0.525426
0.0375564
-0.0451743
-0.638771
0.646389
0.0542457
-0.0625211
-0.75497
0.763246
0.0714026
-0.0796078
-0.881422
0.889627
0.0883326
-0.0957141
-1.02548
1.03287
0.103488
-0.1096
-1.18925
1.19536
0.115273
-0.119009
-1.37465
1.37839
0.120934
-0.120481
-1.58397
1.58352
0.117301
-0.111738
-1.5263
1.52074
0.104877
-0.0961514
-1.23624
1.22751
0.0875463
-0.0774936
-1.00818
0.998127
0.0679198
-0.0572276
-0.825884
0.815192
0.0477376
-0.0382281
-0.671747
0.662237
0.030246
-0.0217551
-0.520915
0.512424
0.0142137
-0.00746166
-0.350706
0.343954
0.00311987
-0.000276843
-0.180983
0.17814
-0.000881977
0.00090241
-0.0600662
0.0600457
-0.000440388
-0.00452172
0.0049621
-0.0818826
0.0788901
0.00299246
-0.0030123
-0.00136476
-0.389575
0.393952
0.0074015
-0.0128649
-0.536518
0.541982
0.0191611
-0.0258825
-0.655513
0.662235
0.0337947
-0.0410465
-0.770971
0.778223
0.0490278
-0.0562082
-0.897209
0.904389
0.063568
-0.0701185
-1.04006
1.04661
0.0767732
-0.0820436
-1.20098
1.20625
0.0864288
-0.0889891
-1.38132
1.38389
0.0899602
-0.0884775
-1.58213
1.58064
0.0843996
-0.0781138
-1.51427
1.50798
0.0708776
-0.0621886
-1.2184
1.20972
0.0534964
-0.0438585
-0.987596
0.977958
0.0348884
-0.0251055
-0.804369
0.794586
0.0167439
-0.00840989
-0.650706
0.642372
0.00183119
0.00449155
-0.501629
0.495306
-0.00860932
0.0104859
-0.335025
0.333148
-0.0101379
0.00825074
-0.173018
0.174905
-0.00581299
0.00301462
-0.0590855
0.0618839
-0.00101951
-0.00479951
0.00581901
-0.0803871
0.0775722
0.00281495
-0.00609994
0.0041315
-0.402056
0.404025
-0.000532567
-0.00377014
-0.550498
0.554801
0.009472
-0.0152198
-0.669574
0.675322
0.0220726
-0.0283872
-0.785172
0.791487
0.0352812
-0.0414819
-0.911165
0.917366
0.0481968
-0.0537649
-1.05277
1.05833
0.0595817
-0.063722
-1.2111
1.21524
0.0674032
-0.0694142
-1.38618
1.38819
0.0697424
-0.0676515
-1.57867
1.57658
0.0635635
-0.057517
-1.50116
1.49512
0.050678
-0.0422723
-1.20087
1.19247
0.0343392
-0.025654
-0.968117
0.959432
0.0175072
-0.0089856
-0.784706
0.776184
0.00139116
0.0057873
-0.632368
0.625189
-0.0111678
0.0153968
-0.486709
0.48248
-0.0173953
0.0168977
-0.327676
0.328174
-0.0144551
0.0107141
-0.174205
0.177946
-0.00724043
0.00355572
-0.0634071
0.0670918
-0.0011332
-0.0062
0.0073332
-0.0787962
0.0763906
0.0024056
-0.00679438
0.00623444
-0.41037
0.41093
-0.00353721
0.000427524
-0.5621
0.565209
0.00443723
-0.00974893
-0.681576
0.686887
0.0155972
-0.0212405
-0.797374
0.803018
0.0272907
-0.0327375
-0.923244
0.92869
0.0385564
-0.0435669
-1.06382
1.06883
0.0485383
-0.0524018
-1.21928
1.22314
0.0555919
-0.0572692
-1.38988
1.39156
0.0573886
-0.0553037
-1.57437
1.57228
0.0514551
-0.0457135
-1.48854
1.4828
0.039516
-0.0321061
-1.18425
1.17684
0.0250601
-0.017262
-0.950652
0.942854
0.0102343
-0.00280823
-0.767461
0.760035
-0.00355373
0.00963373
-0.616915
0.610835
-0.0139908
0.0171237
-0.475713
0.47258
-0.0184588
0.017471
-0.324707
0.325694
-0.0145708
0.010673
-0.17883
0.182727
-0.0070997
0.00340299
-0.0691718
0.0728685
-0.00108483
-0.0078343
0.00891913
-0.0774564
0.0754339
0.00202246
-0.00641986
0.00621917
-0.416104
0.416305
-0.0046569
0.00197894
-0.571119
0.573796
0.00267472
-0.0072772
-0.691963
0.696566
0.0123979
-0.0173872
-0.808088
0.813078
0.0228516
-0.0277966
-0.933911
0.938856
0.0332082
-0.0376767
-1.07363
1.07809
0.0422404
-0.0458057
-1.22678
1.23035
0.048714
-0.0502457
-1.39303
1.39457
0.0503402
-0.0487786
-1.5702
1.56864
0.0452599
-0.040245
-1.47679
1.47178
0.0347132
-0.0281486
-1.1695
1.16294
0.0221695
-0.0152512
-0.935183
0.928264
0.0091289
-0.00286594
-0.752626
0.746363
-0.00250964
0.00759293
-0.604071
0.598988
-0.0112008
0.0138832
-0.467051
0.464369
-0.0147334
0.0139326
-0.323325
0.324125
-0.011741
0.00846332
-0.183511
0.186789
-0.00553805
0.0026923
-0.0745413
0.077387
-0.000874076
-0.00932211
0.0101962
-0.0765187
0.0749663
0.00155238
-0.0053913
0.00541053
-0.420426
0.420407
-0.00398279
0.00185666
-0.579197
0.581323
0.00238131
-0.00657993
-0.701131
0.70533
0.0115156
-0.0158973
-0.817841
0.822223
0.0207861
-0.0252512
-0.943876
0.948341
0.030475
-0.034622
-1.08266
1.0868
0.0387808
-0.0422629
-1.23379
1.23727
0.0454572
-0.0469983
-1.39618
1.39772
0.0473714
-0.0460322
-1.56678
1.56545
0.0432464
-0.0385868
-1.4667
1.46204
0.0338411
-0.0281984
-1.1564
1.15076
0.0228627
-0.0170218
-0.92161
0.915769
0.0116847
-0.00611663
-0.739979
0.734411
0.00171467
0.00275286
-0.593248
0.588781
-0.00595756
0.00810884
-0.459761
0.457609
-0.00895614
0.00868046
-0.322086
0.322362
-0.00723526
0.00503798
-0.186839
0.189036
-0.00319868
0.00155948
-0.0781352
0.0797744
-0.000534393
-0.0103486
0.010883
-0.07611
0.0749059
0.00120405
-0.00424589
0.00432173
-0.423941
0.423866
-0.00290452
0.000844159
-0.586361
0.588421
0.0031184
-0.0069315
-0.709489
0.713302
0.0112416
-0.0155288
-0.826681
0.830968
0.0201211
-0.0247836
-0.95271
0.957373
0.0293686
-0.0334077
-1.09111
1.09515
0.0377806
-0.0411194
-1.2407
1.24404
0.0439703
-0.0460517
-1.39924
1.40132
0.0467795
-0.045923
-1.56424
1.56338
0.0435336
-0.0397031
-1.45767
1.45384
0.0355234
-0.0304831
-1.14492
1.13988
0.0257921
-0.0205781
-0.909909
0.904695
0.0158594
-0.0110857
-0.728957
0.724183
0.00691304
-0.00296308
-0.583799
0.579849
4.34565e-05
0.00219878
-0.453578
0.451335
-0.00325146
0.00332546
-0.320018
0.319944
-0.00289849
0.00205436
-0.188061
0.188905
-0.00133765
0.000694983
-0.0795949
0.0802375
-0.000287328
-0.0107695
0.0110569
-0.076228
0.0752308
0.000997169
-0.00296103
0.00281277
-0.427197
0.427345
-0.00156626
-0.000576332
-0.592952
0.595095
0.00426024
-0.00797863
-0.717358
0.721076
0.0121609
-0.0161007
-0.83516
0.8391
0.0208608
-0.0248061
-0.961551
0.965497
0.0294187
-0.0333417
-1.09939
1.10331
0.0376754
-0.0412814
-1.24741
1.25102
0.0445122
-0.0464893
-1.40322
1.4052
0.047687
-0.0473615
-1.56251
1.56218
0.0457321
-0.0423404
-1.44994
1.44655
0.0386967
-0.0341524
-1.13497
1.13042
0.0299169
-0.0250812
-0.899295
0.894459
0.0208364
-0.016321
-0.719168
0.714653
0.0124589
-0.00868604
-0.575405
0.571633
0.00574836
-0.00350462
-0.447509
0.445266
0.00202011
-0.00131452
-0.317002
0.316297
0.000743013
-0.000384178
-0.187128
0.186769
0.000114113
0.000124677
-0.0791418
0.078903
-0.000134822
-0.0106877
0.0108225
-0.0766168
0.0759343
0.000682558
-0.00183816
0.00132544
-0.430628
0.431141
-0.000285209
-0.00219754
-0.598736
0.601219
0.00551895
-0.00911336
-0.724778
0.728373
0.0131544
-0.0172516
-0.842994
0.847091
0.0214558
-0.0255974
-0.96971
0.973852
0.0302205
-0.0339881
-1.1077
1.11147
0.0384704
-0.0420956
-1.25448
1.2581
0.0454644
-0.0480433
-1.40762
1.4102
0.0498211
-0.0498721
-1.56194
1.56199
0.0485682
-0.04593
-1.44334
1.4407
0.0428331
-0.0386368
-1.12574
1.12154
0.0346216
-0.0302715
-0.889516
0.885166
0.0259269
-0.021765
-0.709853
0.705691
0.0180483
-0.0142599
-0.56757
0.563782
0.011382
-0.00872586
-0.441321
0.438665
0.0068455
-0.00525587
-0.313006
0.311417
0.00394389
-0.00252557
-0.184274
0.182856
0.00129053
-0.000342876
-0.0771258
0.0761782
-2.431e-05
-0.0101869
0.0102112
-0.0774052
0.0768741
0.000531151
-0.000904466
0.000491893
-0.434281
0.434694
0.00127491
-0.00354261
-0.604765
0.607033
0.00698387
-0.0104523
-0.731727
0.735196
0.01436
-0.018093
-0.850941
0.854674
0.022451
-0.0263183
-0.978054
0.981921
0.0309283
-0.0351587
-1.11572
1.11995
0.0393358
-0.0433326
-1.26181
1.26581
0.0471772
-0.0499131
-1.41273
1.41546
0.0521366
-0.0530231
-1.56229
1.56317
0.0522109
-0.0502094
-1.43794
1.43593
0.047308
-0.0435135
-1.11733
1.11354
0.0398285
-0.0355495
-0.88036
0.876081
0.0314714
-0.027308
-0.700976
0.696813
0.0236072
-0.0196872
-0.559569
0.555649
0.0165248
-0.0135719
-0.434739
0.431786
0.011015
-0.00867144
-0.30759
0.305247
0.00654284
-0.00426839
-0.179582
0.177307
0.00239453
-0.000875238
-0.0738988
0.0723795
0.000146202
-0.00945854
0.00931234
-0.0784377
0.078083
0.000354729
4.84821e-05
-0.000762639
-0.438004
0.438718
0.00241257
-0.00493032
-0.610388
0.612906
0.00827984
-0.0115926
-0.738451
0.741764
0.0155879
-0.0191907
-0.858445
0.862048
0.0234201
-0.0274294
-0.986303
0.990313
0.0319723
-0.0361955
-1.12407
1.1283
0.040624
-0.044684
-1.26976
1.27382
0.0487595
-0.05228
-1.41852
1.42204
0.0550009
-0.0562361
-1.56403
1.56527
0.0561451
-0.0544795
-1.43382
1.43216
0.0521075
-0.0487763
-1.10963
1.1063
0.0450786
-0.0409105
-0.871452
0.867284
0.0369028
-0.0325974
-0.692214
0.687909
0.0289174
-0.0248138