/*--------------------------------*- C++ -*----------------------------------*\
| =========                 |                                                 |
| \\      /  F ield         | OpenFOAM: The Open Source CFD Toolbox           |
|  \\    /   O peration     | Version:  2306                                  |
|   \\  /    A nd           | Website:  www.openfoam.com                      |
|    \\/     M anipulation  |                                                 |
\*---------------------------------------------------------------------------*/
FoamFile
{
    version     2.0;
    format      ascii;
    arch        "LSB;label=32;scalar=64";
    class       volVectorField;
    location    "29";
    object      U;
}
// * * * * * * * * * * * * * * * * * * * * * * * * * * * * * * * * * * * * * //

dimensions      [0 1 -1 0 0 0 0];

internalField   nonuniform List<vector> 
8800
(
(0.984964 -0.088452 0)
(1.00213 -0.0568224 0)
(0.999681 -0.0305551 0)
(1.00002 -0.0158583 0)
(1.00005 -0.00870908 0)
(1.00002 -0.00506476 0)
(1 -0.00298196 0)
(0.999997 -0.00169276 0)
(0.999995 -0.000812121 0)
(1.00005 -0.000124165 0)
(0.999999 0.000570552 0)
(1.00001 0.00133078 0)
(1.00001 0.00236817 0)
(1.00002 0.00397486 0)
(1.00004 0.00668823 0)
(1.00006 0.0117206 0)
(0.999918 0.022042 0)
(0.999202 0.0411644 0)
(1.00746 0.0768948 0)
(0.773651 0.0450704 0)
(0.360995 -0.0151722 0)
(1.04556 -0.0742069 0)
(1.08712 -0.0678999 0)
(1.04778 -0.052311 0)
(1.02457 -0.0384025 0)
(1.01232 -0.0261139 0)
(1.0064 -0.0167692 0)
(1.00355 -0.0102868 0)
(1.00215 -0.00568598 0)
(1.0015 -0.00211466 0)
(1.00138 0.0010947 0)
(1.00174 0.00441412 0)
(1.00271 0.00832435 0)
(1.0047 0.0136723 0)
(1.0088 0.0214131 0)
(1.01738 0.0322505 0)
(1.03454 0.0456124 0)
(1.06557 0.0597445 0)
(1.09411 0.0729333 0)
(0.842287 0.0557017 0)
(0.217048 -0.0016466 0)
(1.07585 -0.0503668 0)
(1.09985 -0.0487395 0)
(1.06464 -0.0401958 0)
(1.0399 -0.0330354 0)
(1.02366 -0.0257443 0)
(1.01389 -0.0183878 0)
(1.00843 -0.0117047 0)
(1.00561 -0.00594794 0)
(1.00447 -0.00067967 0)
(1.0048 0.00442227 0)
(1.00665 0.00975007 0)
(1.01057 0.0158208 0)
(1.01787 0.0227624 0)
(1.03054 0.0300435 0)
(1.05075 0.0370677 0)
(1.08051 0.0444319 0)
(1.10635 0.0516727 0)
(0.943028 0.0412866 0)
(0.216595 0.00166149 0)
(0.175864 -0.000645601 0)
(1.01864 -0.0354207 0)
(1.10557 -0.0414396 0)
(1.07807 -0.0362824 0)
(1.05273 -0.0302594 0)
(1.03541 -0.0245414 0)
(1.0234 -0.0188662 0)
(1.01551 -0.0129281 0)
(1.01089 -0.00686989 0)
(1.00888 -0.000661398 0)
(1.00945 0.00548755 0)
(1.0126 0.0114294 0)
(1.01863 0.0172526 0)
(1.02837 0.0228481 0)
(1.04274 0.0283058 0)
(1.06352 0.0340044 0)
(1.094 0.0400135 0)
(1.09442 0.0416993 0)
(0.829297 0.0227088 0)
(0.175103 0.000661912 0)
(0.15431 -0.000487404 0)
(0.957241 -0.025555 0)
(1.10404 -0.0351051 0)
(1.08786 -0.0326767 0)
(1.06123 -0.0281408 0)
(1.04328 -0.0231781 0)
(1.03086 -0.0179911 0)
(1.0222 -0.0125788 0)
(1.01661 -0.00677487 0)
(1.01398 -0.000408178 0)
(1.01469 0.00598673 0)
(1.01859 0.0118332 0)
(1.02549 0.0171573 0)
(1.03572 0.0221664 0)
(1.05047 0.0270172 0)
(1.07223 0.0315386 0)
(1.10104 0.035475 0)
(1.06967 0.033707 0)
(0.742154 0.0142527 0)
(0.153168 0.000505773 0)
(0.139792 -0.000357981 0)
(0.900293 -0.0191806 0)
(1.09634 -0.0301128 0)
(1.09588 -0.0292529 0)
(1.06877 -0.0255406 0)
(1.05001 -0.0215037 0)
(1.03708 -0.0168985 0)
(1.02809 -0.0117862 0)
(1.02214 -0.00620787 0)
(1.01918 4.83825e-06 0)
(1.0199 0.00625931 0)
(1.02405 0.0118404 0)
(1.03116 0.016824 0)
(1.04171 0.021344 0)
(1.05708 0.0253453 0)
(1.07974 0.0288734 0)
(1.10344 0.0316121 0)
(1.03819 0.0277226 0)
(0.676168 0.0100898 0)
(0.138188 0.000379682 0)
(0.129176 -0.00027324 0)
(0.850647 -0.0147585 0)
(1.08393 -0.0259362 0)
(1.10147 -0.0262754 0)
(1.07547 -0.0229986 0)
(1.05616 -0.0194371 0)
(1.04276 -0.0154141 0)
(1.03339 -0.0107374 0)
(1.02719 -0.0054262 0)
(1.02405 0.000534056 0)
(1.02469 0.00650567 0)
(1.02886 0.0117619 0)
(1.03615 0.0163049 0)
(1.04704 0.0201926 0)
(1.06287 0.0235627 0)
(1.08599 0.0266289 0)
(1.10288 0.0285288 0)
(1.00413 0.0230274 0)
(0.625186 0.00764841 0)
(0.127009 0.000299486 0)
(0.121123 -0.000209596 0)
(0.808583 -0.0115135 0)
(1.06861 -0.0222121 0)
(1.10484 -0.0235413 0)
(1.08152 -0.0207572 0)
(1.06177 -0.0174635 0)
(1.04809 -0.0137642 0)
(1.03843 -0.00944578 0)
(1.03195 -0.0044698 0)
(1.02861 0.00116995 0)
(1.02913 0.00679349 0)
(1.0333 0.0116344 0)
(1.04072 0.0156889 0)
(1.05178 0.0191091 0)
(1.06789 0.0220953 0)
(1.09139 0.0248364 0)
(1.09954 0.0258358 0)
(0.970077 0.0192329 0)
(0.584815 0.00601681 0)
(0.118276 0.000241452 0)
(0.114948 -0.000160071 0)
(0.773478 -0.00902772 0)
(1.05192 -0.018832 0)
(1.10698 -0.0208528 0)
(1.08708 -0.0184492 0)
(1.06696 -0.0153677 0)
(1.05303 -0.0119244 0)
(1.04317 -0.00793359 0)
(1.03644 -0.00333578 0)
(1.03285 0.00194166 0)
(1.03321 0.00717157 0)
(1.03737 0.0115233 0)
(1.04481 0.015061 0)
(1.05592 0.0180463 0)
(1.07228 0.0206791 0)
(1.09553 0.0231021 0)
(1.09365 0.0233726 0)
(0.93755 0.0161564 0)
(0.552189 0.00484721 0)
(0.111272 0.000199059 0)
(0.110226 -0.000120636 0)
(0.744509 -0.00704552 0)
(1.03499 -0.0157546 0)
(1.10819 -0.0182693 0)
(1.0923 -0.0162108 0)
(1.07183 -0.0133192 0)
(1.05763 -0.0100843 0)
(1.04762 -0.00630437 0)
(1.04076 -0.00198608 0)
(1.03696 0.00288222 0)
(1.03711 0.00761475 0)
(1.04106 0.0115114 0)
(1.04837 0.0146459 0)
(1.05951 0.0172226 0)
(1.07617 0.019507 0)
(1.09855 0.0215646 0)
(1.08571 0.0211385 0)
(0.907299 0.0136542 0)
(0.525404 0.00397579 0)
(0.10554 0.000168495 0)
(0.106679 -8.69044e-05 0)
(0.721027 -0.00537487 0)
(1.01873 -0.012846 0)
(1.10845 -0.0156332 0)
(1.09719 -0.0139706 0)
(1.07646 -0.0112695 0)
(1.06197 -0.00817477 0)
(1.05175 -0.00455062 0)
(1.04465 -0.000486708 0)
(1.04057 0.00400127 0)
(1.04047 0.00827472 0)
(1.04422 0.0116997 0)
(1.05143 0.0143924 0)
(1.0626 0.0166007 0)
(1.07951 0.0185304 0)
(1.10021 0.0201248 0)
(1.07616 0.0190268 0)
(0.879717 0.011568 0)
(0.503199 0.00330161 0)
(0.100758 0.000146196 0)
(0.104147 -5.67288e-05 0)
(0.702532 -0.00390108 0)
(1.00392 -0.0100538 0)
(1.10794 -0.0128517 0)
(1.10163 -0.011446 0)
(1.08082 -0.00884516 0)
(1.06601 -0.0059147 0)
(1.0555 -0.00255784 0)
(1.04813 0.0012111 0)
(1.04378 0.00535345 0)
(1.04331 0.00919424 0)
(1.04678 0.0121139 0)
(1.05387 0.0142707 0)
(1.06509 0.0159762 0)
(1.08215 0.0174782 0)
(1.10073 0.0186669 0)
(1.06547 0.0170043 0)
(0.854939 0.00980686 0)
(0.484675 0.00276627 0)
(0.0967081 0.000130138 0)
(0.102525 -2.97222e-05 0)
(0.688699 -0.00254255 0)
(0.991184 -0.00732685 0)
(1.10706 -0.00992716 0)
(1.10574 -0.00871896 0)
(1.08501 -0.0062986 0)
(1.06993 -0.00351622 0)
(1.05922 -0.0003112 0)
(1.05154 0.00323429 0)
(1.04677 0.00701927 0)
(1.04589 0.0103706 0)
(1.04905 0.0127587 0)
(1.05588 0.0143692 0)
(1.06703 0.0155515 0)
(1.08426 0.0165627 0)
(1.10046 0.0173198 0)
(1.05417 0.0151193 0)
(0.832979 0.00829857 0)
(0.469217 0.00233991 0)
(0.0932184 0.000120831 0)
(0.101768 1.21686e-06 0)
(0.679341 -0.00124805 0)
(0.980866 -0.00462955 0)
(1.10592 -0.00693241 0)
(1.10938 -0.00602225 0)
(1.08896 -0.00380894 0)
(1.07363 -0.00106542 0)
(1.06271 0.00209646 0)
(1.05479 0.00553371 0)
(1.0496 0.00904755 0)
(1.04817 0.0119657 0)
(1.05077 0.01387 0)
(1.05721 0.0149898 0)
(1.06817 0.015651 0)
(1.08533 0.016234 0)
(1.09893 0.0163011 0)
(1.04236 0.0134335 0)
(0.81371 0.00702309 0)
(0.456338 0.00199624 0)
(0.0901609 0.000113519 0)
(0.101922 4.08528e-05 0)
(0.674364 1.50981e-06 0)
(0.973324 -0.00192276 0)
(1.10467 -0.0036685 0)
(1.11247 -0.00288319 0)
(1.09271 -0.000789145 0)
(1.07719 0.00195467 0)
(1.06594 0.00504976 0)
(1.05751 0.00830618 0)
(1.05168 0.011538 0)
(1.0496 0.014005 0)
(1.0517 0.0152526 0)
(1.05781 0.0157299 0)
(1.06857 0.0159156 0)
(1.08538 0.0157684 0)
(1.09595 0.0152324 0)
(1.03023 0.0119109 0)
(0.796912 0.00600208 0)
(0.445567 0.00173769 0)
(0.0874747 0.000102974 0)
(0.103003 6.82584e-05 0)
(0.673455 0.00109546 0)
(0.968879 0.000460722 0)
(1.10407 -0.00054031 0)
(1.11558 0.000373811 0)
(1.09653 0.00247232 0)
(1.08088 0.00523886 0)
(1.06938 0.00833399 0)
(1.06057 0.011556 0)
(1.05412 0.0145888 0)
(1.05116 0.0166152 0)
(1.05243 0.0173808 0)
(1.05789 0.0172621 0)
(1.06823 0.0167049 0)
(1.08459 0.0161324 0)
(1.09195 0.0149461 0)
(1.01813 0.0111565 0)
(0.782003 0.00557738 0)
(0.436044 0.00168778 0)
(0.0850158 0.000100656 0)
(0.104844 9.82856e-05 0)
(0.675614 0.00192657 0)
(0.96745 0.00252445 0)
(1.10448 0.00226499 0)
(1.1189 0.00339371 0)
(1.10035 0.00566081 0)
(1.08446 0.00862314 0)
(1.07255 0.0119385 0)
(1.06313 0.015351 0)
(1.05576 0.0183484 0)
(1.05182 0.0200608 0)
(1.05221 0.0203198 0)
(1.05697 0.0196376 0)
(1.06681 0.0185197 0)
(1.0828 0.017331 0)
(1.08675 0.0154958 0)
(1.00574 0.0112088 0)
(0.76797 0.00573775 0)
(0.426588 0.00183136 0)
(0.082479 0.000109074 0)
(0.107435 0.000130464 0)
(0.680924 0.0027758 0)
(0.968943 0.00442182 0)
(1.10599 0.00504898 0)
(1.12263 0.00643091 0)
(1.10462 0.00900998 0)
(1.08859 0.0124279 0)
(1.07633 0.0162113 0)
(1.06616 0.0199533 0)
(1.05766 0.0230018 0)
(1.05244 0.0244127 0)
(1.05169 0.0241711 0)
(1.05548 0.022907 0)
(1.06464 0.0212302 0)
(1.07989 0.0194114 0)
(1.08036 0.0168425 0)
(0.992903 0.0120452 0)
(0.753795 0.00642266 0)
(0.416212 0.0021269 0)
(0.0796069 0.00012809 0)
(0.110848 0.000170701 0)
(0.689133 0.0037231 0)
(0.973284 0.00641163 0)
(1.1091 0.00814463 0)
(1.12698 0.0101186 0)
(1.10958 0.013299 0)
(1.09337 0.0173483 0)
(1.08045 0.0216478 0)
(1.06923 0.0256765 0)
(1.05929 0.0287551 0)
(1.05251 0.0297826 0)
(1.05045 0.0288877 0)
(1.05321 0.0269182 0)
(1.06158 0.0245854 0)
(1.07581 0.0221111 0)
(1.07269 0.0188799 0)
(0.979324 0.0136272 0)
(0.738322 0.0074922 0)
(0.404184 0.00251912 0)
(0.0762131 0.00015337 0)
(0.115289 0.00022465 0)
(0.700487 0.00493762 0)
(0.980918 0.0087795 0)
(1.11469 0.0117229 0)
(1.13281 0.0147212 0)
(1.11564 0.0188636 0)
(1.09891 0.0236912 0)
(1.085 0.0285575 0)
(1.07241 0.0328946 0)
(1.06072 0.0358743 0)
(1.05203 0.0363063 0)
(1.04844 0.0345409 0)
(1.05005 0.0317752 0)
(1.05756 0.0287111 0)
(1.0706 0.0255767 0)
(1.06402 0.0217597 0)
(0.964538 0.0158932 0)
(0.720619 0.00881176 0)
(0.390076 0.00296964 0)
(0.0721792 0.000182298 0)
(0.121104 0.000301731 0)
(0.715615 0.00659827 0)
(0.991932 0.0117804 0)
(1.12306 0.0158469 0)
(1.14078 0.0199636 0)
(1.12315 0.0252776 0)
(1.10542 0.0311025 0)
(1.09012 0.0367724 0)
(1.07576 0.0416668 0)
(1.06186 0.0446644 0)
(1.05089 0.0445443 0)
(1.04549 0.0418883 0)
(1.0459 0.0380582 0)
(1.05264 0.034232 0)
(1.06439 0.0304633 0)
(1.05398 0.0259543 0)
(0.947175 0.0188139 0)
(0.699929 0.010296 0)
(0.373661 0.00347544 0)
(0.0674426 0.000212625 0)
(0.128791 0.000411416 0)
(0.735564 0.00889384 0)
(1.00645 0.0157568 0)
(1.13401 0.0208333 0)
(1.15088 0.0259242 0)
(1.13241 0.0324409 0)
(1.11326 0.0394835 0)
(1.09615 0.0463292 0)
(1.07949 0.0521142 0)
(1.06285 0.0554928 0)
(1.0492 0.055164 0)
(1.04167 0.0518769 0)
(1.04048 0.0472234 0)
(1.0464 0.0422895 0)
(1.05677 0.0375267 0)
(1.04119 0.0313425 0)
(0.925802 0.022124 0)
(0.675879 0.0119933 0)
(0.354621 0.00407181 0)
(0.0619204 0.000247152 0)
(0.139126 0.000584349 0)
(0.761943 0.0122472 0)
(1.02541 0.0213971 0)
(1.1473 0.0276785 0)
(1.1629 0.0336716 0)
(1.1435 0.0413299 0)
(1.12275 0.0497387 0)
(1.10341 0.0580001 0)
(1.08388 0.0648468 0)
(1.06397 0.0687576 0)
(1.04723 0.0682791 0)
(1.03719 0.0644037 0)
(1.03402 0.0589432 0)
(1.03838 0.0529208 0)
(1.04623 0.0463904 0)
(1.02346 0.0375046 0)
(0.899833 0.0257577 0)
(0.648245 0.0140242 0)
(0.332482 0.00476867 0)
(0.0555279 0.000282226 0)
(0.15338 0.000863299 0)
(0.796945 0.0172434 0)
(1.0509 0.0294585 0)
(1.16358 0.0375757 0)
(1.17684 0.0448087 0)
(1.15649 0.0538491 0)
(1.13402 0.0638017 0)
(1.11188 0.0733614 0)
(1.08885 0.0809485 0)
(1.06503 0.0848887 0)
(1.04475 0.0836842 0)
(1.03185 0.0787291 0)
(1.02624 0.0719643 0)
(1.02795 0.0642929 0)
(1.03134 0.0552688 0)
(1.00035 0.0437361 0)
(0.869881 0.0299485 0)
(0.61662 0.0165192 0)
(0.30667 0.00557374 0)
(0.0481838 0.000316958 0)
(0.173734 0.00135574 0)
(0.843824 0.0250659 0)
(1.08575 0.0413936 0)
(1.18446 0.0523408 0)
(1.19345 0.0618132 0)
(1.17172 0.0726674 0)
(1.14681 0.0839814 0)
(1.12098 0.0941327 0)
(1.09373 0.101489 0)
(1.06538 0.104284 0)
(1.04114 0.101236 0)
(1.02501 0.0942848 0)
(1.01639 0.0854337 0)
(1.01434 0.0755002 0)
(1.01183 0.064119 0)
(0.97315 0.0505807 0)
(0.836358 0.0351577 0)
(0.58012 0.0195719 0)
(0.276741 0.00647059 0)
(0.0399198 0.000345058 0)
(0.203564 0.0024715 0)
(0.90839 0.0385812 0)
(1.13312 0.0610494 0)
(1.21162 0.0753254 0)
(1.21378 0.088054 0)
(1.18882 0.100442 0)
(1.16009 0.112113 0)
(1.12957 0.121507 0)
(1.09739 0.12713 0)
(1.06404 0.127223 0)
(1.03551 0.120985 0)
(1.01586 0.111042 0)
(1.00377 0.099484 0)
(0.997416 0.0870951 0)
(0.988979 0.0738509 0)
(0.94313 0.0590276 0)
(0.798597 0.0417627 0)
(0.537817 0.023247 0)
(0.242905 0.00748861 0)
(0.0310122 0.000363283 0)
(0.244631 0.00878919 2.47463e-19)
(0.994246 0.06581 2.18092e-19)
(1.19085 0.0944525 -7.47183e-20)
(1.2443 0.110726 0)
(1.23632 0.126602 -1.72259e-33)
(1.206 0.138907 2.46967e-20)
(1.17218 0.149281 -4.15406e-20)
(1.13623 0.156422 0)
(1.09858 0.158971 7.88438e-34)
(1.05978 0.15521 -4.53468e-20)
(1.02645 0.144907 0)
(1.00272 0.131396 -5.10882e-20)
(0.986502 0.116917 -1.48798e-19)
(0.975425 0.102383 -6.9627e-20)
(0.961417 0.0881614 -2.06459e-20)
(0.907881 0.0727562 -1.21558e-20)
(0.751872 0.0524876 0)
(0.485518 0.0292455 8.45749e-21)
(0.205483 0.0100626 9.96186e-21)
(0.022851 0.000843425 1.77092e-19)
(0.272177 0.0243816 2.22213e-19)
(1.06475 0.10876 9.95239e-22)
(1.23852 0.142434 2.17774e-20)
(1.27534 0.160238 0)
(1.25709 0.1754 -9.33536e-20)
(1.22092 0.186361 -1.02425e-19)
(1.18155 0.194772 -4.34135e-20)
(1.13982 0.199454 -1.45158e-19)
(1.09616 0.198891 0)
(1.0511 0.191295 1.94626e-19)
(1.01171 0.17699 1.87927e-19)
(0.982521 0.159976 5.47637e-20)
(0.961085 0.14283 1.94471e-19)
(0.944587 0.126375 2.68154e-19)
(0.923837 0.110718 0)
(0.862899 0.0939875 3.72506e-19)
(0.697522 0.0694146 5.3226e-19)
(0.433215 0.0400929 5.87589e-19)
(0.174327 0.0151717 -6.69068e-19)
(0.0166932 0.00145519 -1.24482e-20)
(0.271851 0.0399801 0)
(1.10864 0.164822 4.87304e-20)
(1.27192 0.202035 0)
(1.29955 0.219722 -1.48056e-19)
(1.27354 0.231829 0)
(1.23201 0.239728 -2.1223e-19)
(1.18725 0.244862 9.11591e-20)
(1.13992 0.246077 -3.02353e-19)
(1.09045 0.241776 -3.14452e-21)
(1.03939 0.230139 1.02585e-19)
(0.994273 0.212041 4.09018e-19)
(0.960156 0.192124 -6.23096e-22)
(0.934443 0.173101 -1.40432e-19)
(0.913927 0.155586 -2.50749e-19)
(0.889495 0.13923 2.95027e-19)
(0.828038 0.120638 -5.20722e-19)
(0.667136 0.0910972 -6.79707e-20)
(0.417532 0.0555969 0)
(0.175915 0.023132 6.02416e-23)
(0.0186717 0.00261204 0)
(0.264803 0.0535534 8.6264e-19)
(1.13154 0.223957 -3.91072e-19)
(1.29312 0.26657 -2.56836e-19)
(1.31549 0.283789 7.63908e-20)
(1.2841 0.292351 -1.25144e-19)
(1.23834 0.296526 4.50828e-19)
(1.18901 0.297796 1.93256e-19)
(1.13676 0.29505 0)
(1.08209 0.286678 -5.38178e-19)
(1.0256 0.270903 0)
(0.975341 0.249214 -2.16971e-19)
(0.937007 0.226777 -2.58038e-19)
(0.907967 0.206196 -1.52093e-19)
(0.884731 0.187789 -1.81054e-19)
(0.858523 0.170561 0)
(0.798917 0.150422 0)
(0.651104 0.117472 -4.43487e-19)
(0.420786 0.0760357 8.67508e-20)
(0.189133 0.0343108 -5.13011e-20)
(0.0237351 0.00458866 -5.90599e-20)
(0.257238 0.0656644 -5.1693e-19)
(1.14087 0.282865 0)
(1.30505 0.331983 6.16079e-19)
(1.32403 0.349001 2.36406e-19)
(1.2888 0.354136 2.74131e-19)
(1.23981 0.354554 0)
(1.18682 0.3519 1.99414e-19)
(1.13048 0.345122 3.4145e-19)
(1.07135 0.332654 2.82147e-19)
(1.01015 0.312752 4.77702e-19)
(0.955502 0.287561 0)
(0.913681 0.26275 -5.55133e-19)
(0.882032 0.240665 -3.27549e-19)
(0.856779 0.221414 -1.91804e-19)
(0.829734 0.203549 1.1529e-18)
(0.773752 0.182234 1.3671e-19)
(0.64 0.146411 6.39789e-19)
(0.428248 0.0986308 -3.00815e-18)
(0.203445 0.0474759 1.78681e-18)
(0.0289105 0.00709059 -2.12093e-18)
(0.250388 0.0766647 -4.62887e-19)
(1.14174 0.339699 1.01754e-19)
(1.30996 0.396547 -8.89301e-20)
(1.32667 0.413585 -3.11415e-19)
(1.28859 0.415517 -2.73738e-19)
(1.23704 0.412325 3.42064e-21)
(1.18109 0.40592 -2.14438e-19)
(1.12137 0.395265 3.59974e-19)
(1.05848 0.378821 -6.05487e-19)
(0.993248 0.354899 0)
(0.93493 0.326241 -2.55715e-19)
(0.890338 0.299048 -3.14826e-21)
(0.856658 0.275462 -3.54831e-19)
(0.829969 0.255311 0)
(0.802634 0.236917 -2.48339e-19)
(0.750165 0.214559 -5.87767e-19)
(0.629157 0.176337 1.56281e-18)
(0.432962 0.122119 -1.5331e-18)
(0.213973 0.0611575 2.17354e-18)
(0.0330376 0.0097655 -2.22417e-18)
(0.244853 0.0869142 -8.06448e-22)
(1.13742 0.393838 -1.00561e-19)
(1.30998 0.45968 -3.60203e-19)
(1.32474 0.476488 1.57915e-19)
(1.28447 0.475514 -1.4394e-19)
(1.23088 0.468964 0)
(1.17249 0.459053 -2.1727e-19)
(1.10992 0.444746 -3.81342e-19)
(1.04382 0.42452 -3.19413e-19)
(0.975117 0.396702 0)
(0.913675 0.364591 -2.68815e-19)
(0.866859 0.334911 -3.20424e-19)
(0.831696 0.309715 3.82233e-19)
(0.804117 0.288548 -2.27576e-19)
(0.776908 0.269457 -1.07346e-18)
(0.727721 0.245979 6.36982e-19)
(0.616592 0.205632 1.89732e-19)
(0.432056 0.14477 0)
(0.218002 0.0737909 -2.07675e-18)
(0.0352181 0.0121265 -7.51182e-20)
(0.240622 0.0967298 -6.0149e-20)
(1.13003 0.445139 1.02279e-19)
(1.30613 0.520223 1.89978e-19)
(1.31932 0.537041 5.15277e-19)
(1.27734 0.533522 -5.93202e-19)
(1.2221 0.523939 5.28478e-19)
(1.16168 0.5108 4.65535e-19)
(1.09667 0.493096 -6.10359e-19)
(1.02777 0.469311 1.83073e-19)
(0.955983 0.437728 -1.17077e-18)
(0.891802 0.402159 -2.96246e-19)
(0.843135 0.369837 0)
(0.806911 0.342771 4.11543e-19)
(0.778846 0.320351 4.85666e-19)
(0.752043 0.30028 5.75135e-19)
(0.705596 0.275635 -6.86009e-19)
(0.601726 0.232557 -2.0211e-19)
(0.425636 0.164646 2.37211e-19)
(0.21646 0.0840542 0)
(0.0355353 0.01388 -1.61477e-19)
(0.237524 0.106239 5.99886e-19)
(1.12107 0.493711 -4.15268e-19)
(1.29954 0.577942 -1.99551e-19)
(1.31135 0.594933 3.56647e-19)
(1.26794 0.589181 -3.05154e-19)
(1.21134 0.576883 -7.92622e-21)
(1.14921 0.560831 -5.01384e-19)
(1.0821 0.540022 -2.18831e-19)
(1.01069 0.512915 -5.50648e-19)
(0.936095 0.477728 4.39678e-22)
(0.86944 0.438679 -9.36454e-19)
(0.819144 0.403547 7.53464e-19)
(0.782091 0.374339 -4.46108e-19)
(0.75381 0.350335 5.2764e-19)
(0.727485 0.328942 0)
(0.683237 0.302572 -3.6876e-19)
(0.584554 0.2563 -1.8756e-21)
(0.414402 0.181228 -1.02248e-18)
(0.21052 0.0916928 -1.49992e-19)
(0.0345003 0.0149749 0)
(0.235407 0.115553 0)
(1.11136 0.539752 -4.37147e-19)
(1.29103 0.632738 -4.04225e-19)
(1.30152 0.650042 -3.7172e-19)
(1.2569 0.642318 -3.38296e-19)
(1.19917 0.627603 0)
(1.13558 0.608939 -2.52503e-19)
(1.06661 0.585323 -2.35748e-21)
(0.992932 0.555171 1.17731e-18)
(0.915723 0.516566 -1.63638e-19)
(0.846698 0.47405 -6.71767e-19)
(0.794915 0.435934 3.96416e-19)
(0.757128 0.404309 -4.0029e-21)
(0.728711 0.378416 5.61769e-19)
(0.702837 0.355405 3.38872e-19)
(0.660182 0.326875 -7.93133e-19)
(0.564982 0.276547 9.37127e-19)
(0.399056 0.194377 2.75374e-19)
(0.200713 0.0967258 1.12805e-18)
(0.0322339 0.0153461 -2.98392e-18)
(0.234184 0.124806 1.22194e-19)
(1.10146 0.583461 -2.18066e-19)
(1.28138 0.684633 1.91953e-19)
(1.29036 0.702347 3.81003e-19)
(1.24471 0.692838 0)
(1.18603 0.675981 -2.96926e-19)
(1.12118 0.655004 8.21655e-19)
(1.05057 0.628884 4.89889e-19)
(0.974806 0.595972 0)
(0.895084 0.554178 -2.31288e-18)
(0.823721 0.508248 1.80395e-18)
(0.770392 0.467007 0)
(0.731849 0.432719 5.15135e-19)
(0.703306 0.404621 -3.98069e-21)
(0.677815 0.379632 -1.08242e-18)
(0.636215 0.348511 4.23151e-19)
(0.543164 0.293424 0)
(0.380439 0.203896 1.48127e-18)
(0.188015 0.0992761 0)
(0.0292001 0.0151541 -1.40459e-18)
(0.233652 0.134032 -1.24116e-19)
(1.0918 0.624978 -2.17816e-19)
(1.27082 0.733692 2.08318e-19)
(1.27831 0.751831 0)
(1.23177 0.740729 -3.61318e-19)
(1.1723 0.721981 0)
(1.10637 0.698963 -8.53501e-19)
(1.03428 0.670633 -2.46881e-19)
(0.956564 0.635267 2.15803e-19)
(0.874384 0.590549 -1.14167e-18)
(0.800577 0.541309 1.89049e-19)
(0.745533 0.496839 0)
(0.706144 0.459644 -1.09986e-18)
(0.677435 0.429048 4.08377e-21)
(0.652194 0.401761 0)
(0.611105 0.36755 4.6035e-21)
(0.519059 0.306961 1.35227e-18)
(0.358805 0.209783 -1.27558e-18)
(0.173094 0.0993665 3.74154e-19)
(0.0256409 0.0143883 0)
(0.233499 0.143097 0)
(1.08265 0.664351 -2.20987e-19)
(1.25972 0.780071 -2.04041e-19)
(1.26573 0.798538 -4.48761e-21)
(1.21844 0.786014 -1.79305e-19)
(1.15829 0.765606 -6.72514e-19)
(1.09141 0.7408 3.0877e-19)
(1.01798 0.710542 -2.74245e-19)
(0.93843 0.673026 9.39801e-19)
(0.853787 0.625693 -1.82344e-18)
(0.777377 0.573316 -6.62585e-21)
(0.720444 0.525565 -4.93967e-19)
(0.680012 0.485247 1.77416e-18)
(0.651004 0.45187 -4.81787e-21)
(0.625867 0.421943 -8.32847e-19)
(0.58475 0.38408 -1.47988e-18)
(0.49272 0.31726 0)
(0.33463 0.212258 0)
(0.156415 0.097029 4.0357e-19)
(0.0217839 0.0130956 -2.32433e-19)
(0.233855 0.152169 -1.26206e-19)
(1.07389 0.701478 4.58951e-19)
(1.24836 0.823839 2.16931e-19)
(1.25292 0.842545 0)
(1.20495 0.828748 -3.08006e-21)
(1.14423 0.806884 -6.9118e-19)
(1.07654 0.780526 7.9605e-19)
(1.0019 0.748609 1.13202e-18)
(0.920598 0.709253 1.23753e-18)
(0.833492 0.659643 -1.49981e-18)
(0.754333 0.60438 -1.53995e-18)
(0.695188 0.553365 1.31942e-18)
(0.653417 0.50971 0)
(0.623935 0.473235 -3.79481e-19)
(0.598755 0.440289 -8.97217e-19)
(0.557123 0.398145 -1.05957e-18)
(0.4641 0.324176 -1.25405e-18)
(0.308194 0.211261 3.69518e-19)
(0.138236 0.0922586 -2.16654e-19)
(0.0176278 0.0113042 6.5623e-22)
(0.234282 0.161064 0)
(1.06573 0.73683 0)
(1.23694 0.865072 5.08748e-21)
(1.24005 0.883947 0)
(1.19151 0.869015 5.82857e-19)
(1.13031 0.845871 5.33499e-19)
(1.06192 0.818167 0)
(0.986197 0.784847 1.44147e-19)
(0.903249 0.743958 2.08813e-18)
(0.813703 0.692439 -3.43695e-18)
(0.731593 0.634605 0)
(0.669852 0.580421 -8.46197e-19)
(0.626356 0.533246 -5.88222e-21)
(0.596146 0.493321 -4.81416e-21)
(0.570752 0.45686 9.58191e-19)
(0.528173 0.409648 -8.23904e-22)
(0.433475 0.327635 -2.69307e-18)
(0.279562 0.206618 7.93873e-19)
(0.119081 0.0852675 2.33501e-19)
(0.0134378 0.00916771 0)
(0.234704 0.169767 3.81184e-19)
(1.05792 0.770472 2.36959e-19)
(1.22554 0.903858 4.44227e-19)
(1.22729 0.922843 -8.58233e-19)
(1.17826 0.90688 1.00478e-18)
(1.11668 0.882628 0)
(1.0477 0.853771 5.2159e-19)
(0.971013 0.819282 -3.12297e-19)
(0.88653 0.777158 7.59773e-21)
(0.794568 0.724111 2.48619e-19)
(0.7093 0.66408 1.99417e-18)
(0.644579 0.606926 -2.98397e-19)
(0.598873 0.556127 -1.0864e-18)
(0.567523 0.512326 -4.38472e-19)
(0.541695 0.471638 5.18242e-19)
(0.497843 0.418356 -5.48569e-22)
(0.401169 0.327365 7.24462e-19)
(0.249484 0.198387 -1.7043e-18)
(0.0996912 0.0764414 2.00593e-18)
(0.0093855 0.00681232 2.88051e-19)
(0.234946 0.178151 -1.27853e-19)
(1.05045 0.802472 1.21421e-19)
(1.2143 0.940319 1.19178e-20)
(1.21474 0.959353 -4.3392e-19)
(1.16532 0.94245 -2.01166e-19)
(1.10344 0.917221 -9.93491e-19)
(1.03399 0.887385 1.74997e-19)
(0.956455 0.851936 -1.31947e-18)
(0.870552 0.808853 -2.33689e-18)
(0.776212 0.75466 -2.06229e-18)
(0.687648 0.692881 0)
(0.619535 0.633061 -1.29208e-18)
(0.571025 0.578653 1.55578e-18)
(0.537919 0.530515 0)
(0.51128 0.484559 -1.10781e-18)
(0.465995 0.423792 6.58958e-19)
(0.367484 0.322857 -7.76709e-19)
(0.219082 0.186679 -9.15927e-19)
(0.0810169 0.0663099 -1.61348e-18)
(0.00571402 0.00443047 -1.23901e-18)
(0.235479 0.186342 1.27175e-19)
(1.04318 0.832808 -1.29333e-19)
(1.20328 0.974529 -3.35135e-19)
(1.2025 0.99356 -5.60612e-19)
(1.15277 0.97581 4.35351e-19)
(1.09068 0.949735 -6.14886e-19)
(1.02086 0.919059 5.65513e-19)
(0.942592 0.88285 -1.38575e-18)
(0.855385 0.839066 -1.39168e-18)
(0.75876 0.784101 2.17357e-18)
(0.6668 0.721055 4.37565e-18)
(0.594907 0.658976 0)
(0.542939 0.601136 0)
(0.507165 0.548285 -5.02541e-19)
(0.478959 0.495638 0)
(0.432141 0.425161 1.41549e-18)
(0.332841 0.313037 1.66905e-18)
(0.189923 0.171239 0)
(0.0644393 0.0554254 0)
(0.00264822 0.00224829 1.32979e-18)
(0.235624 0.194037 -1.26108e-19)
(1.03613 0.861477 -1.09843e-19)
(1.19254 1.00661 -2.34103e-19)
(1.19062 1.02559 4.54639e-19)
(1.14067 1.00706 4.49535e-19)
(1.07844 0.980241 7.40688e-19)
(1.00835 0.948854 -7.94884e-19)
(0.929477 0.912054 4.77654e-22)
(0.841101 0.867803 -9.77521e-21)
(0.742308 0.812425 -1.13945e-20)
(0.64692 0.748621 2.25233e-18)
(0.570911 0.684772 0)
(0.514824 0.623871 1.55951e-18)
(0.47517 0.566175 1.06991e-18)
(0.443927 0.505228 2.56289e-18)
(0.395081 0.421601 7.58929e-19)
(0.297307 0.295677 -8.98584e-19)
(0.164972 0.150124 -5.26684e-19)
(0.0542543 0.0435884 0)
(0.00146376 0.000747979 1.42663e-18)
(0.236033 0.201698 2.45635e-19)
(1.02929 0.888579 0)
(1.18208 1.03661 -2.30666e-19)
(1.17914 1.05553 3.52866e-19)
(1.12907 1.03629 -4.56321e-19)
(1.06675 1.00882 -9.80307e-19)
(0.996505 0.976827 1.65026e-18)
(0.917138 0.939586 -1.04623e-19)
(0.827732 0.895075 0)
(0.726919 0.839599 -2.42635e-18)
(0.628156 0.775565 -4.91475e-18)
(0.54778 0.710511 1.91784e-19)
(0.487008 0.647079 2.13753e-18)
(0.442038 0.584837 0)
(0.40532 0.514257 1.71867e-18)
(0.352492 0.41309 0)
(0.25815 0.267409 0)
(0.146529 0.113747 -5.68905e-19)
(0.0685285 0.0195484 0)
(0.0252067 0.00992867 3.81826e-19)
(0.236051 0.208712 2.43058e-19)
(1.02262 0.914429 0)
(1.17189 1.06475 -3.45791e-19)
(1.16801 1.08359 0)
(1.11791 1.06376 2.26906e-19)
(1.05556 1.03576 0)
(0.985253 1.00328 9.90384e-20)
(0.905479 0.965781 1.9471e-19)
(0.815163 0.921246 1.74342e-19)
(0.712445 0.866009 -2.67778e-18)
(0.610378 0.802319 1.5092e-19)
(0.525373 0.73676 1.5203e-18)
(0.459293 0.671343 2.07751e-18)
(0.407329 0.605291 2.75168e-19)
(0.361632 0.524616 1.33665e-18)
(0.300352 0.401899 0)
(0.203959 0.228743 1.88365e-18)
(0.105944 0.0526208 -1.09586e-18)
(0.0451116 0.0478573 1.26511e-18)
(-0.0587022 0.417849 -1.5043e-18)
(0.236028 0.215481 -1.83165e-19)
(1.01589 0.938884 -3.40202e-19)
(1.16191 1.09133 0)
(1.15711 1.11022 9.99025e-21)
(1.10704 1.09003 -5.74458e-19)
(1.04463 1.06172 1.67456e-18)
(0.974303 1.02901 6.33036e-19)
(0.89412 0.991571 0)
(0.802897 0.947399 1.21079e-18)
(0.698261 0.892952 -1.45995e-19)
(0.592733 0.830342 0)
(0.502619 0.7653 0)
(0.430371 0.69844 1.8566e-18)
(0.369728 0.629372 -8.42004e-19)
(0.310351 0.539681 -1.34536e-18)
(0.234253 0.394031 0)
(0.116488 0.210526 9.36558e-19)
(0.0134209 0.431191 -1.07612e-18)
(0.0379075 1.8533 -6.06839e-19)
(0.0701787 2.78848 -7.93213e-19)
(0.2358 0.221459 1.1444e-19)
(1.00922 0.962063 3.93771e-19)
(1.15214 1.11636 -1.80069e-19)
(1.14645 1.13526 -2.38004e-19)
(1.0965 1.11488 0)
(1.034 1.08643 1.13971e-18)
(0.963839 1.0537 9.54595e-19)
(0.883228 1.01653 -1.00064e-19)
(0.791182 0.973015 1.78382e-19)
(0.684724 0.919809 2.58966e-18)
(0.575799 0.858922 2.50978e-18)
(0.480496 0.795684 1.71162e-18)
(0.401356 0.727947 1.86144e-18)
(0.331426 0.655537 -1.96355e-18)
(0.257596 0.562407 -2.01957e-18)
(0.156221 0.420697 0)
(0.0587568 0.820459 0)
(0.112426 2.52486 5.26175e-19)
(0.115899 3.18415 0)
(0.118173 3.38112 1.20843e-18)
(0.238546 0.227008 0)
(1.0032 0.984184 0)
(1.14231 1.13969 0)
(1.13579 1.15849 -5.63604e-20)
(1.086 1.13808 -4.92608e-19)
(1.02345 1.10973 8.02349e-19)
(0.953762 1.07725 6.47978e-19)
(0.872746 1.04053 -1.01069e-19)
(0.779968 0.997946 1.57784e-18)
(0.671844 0.946428 -1.98491e-20)
(0.559697 0.887905 5.00195e-18)
(0.459381 0.82774 -1.94373e-19)
(0.372706 0.76056 2.27966e-19)
(0.294617 0.680654 2.80536e-19)
(0.200079 0.591786 1.29934e-21)
(0.121115 0.948927 3.4795e-21)
(0.157304 2.67172 -2.70064e-18)
(0.169876 3.28199 -1.03511e-18)
(0.155998 3.42491 5.43178e-19)
(0.140351 3.44889 -6.06253e-19)
(0.157457 0.178556 -4.86941e-20)
(0.992251 1.00824 0)
(1.13225 1.16151 2.9023e-19)
(1.12569 1.18035 5.40567e-19)
(1.07615 1.1603 -9.10472e-19)
(1.01379 1.1322 -8.28552e-19)
(0.943921 1.09972 -7.08915e-19)
(0.862745 1.06368 1.27582e-18)
(0.769416 1.02228 -1.32156e-18)
(0.659938 0.972861 0)
(0.544881 0.917321 2.48606e-18)
(0.439877 0.861077 -1.40479e-18)
(0.345175 0.798933 0)
(0.25992 0.708527 2.55833e-19)
(0.173019 0.824841 6.10374e-19)
(0.172966 2.41672 -7.44239e-19)
(0.238431 3.31759 8.28731e-19)
(0.215534 3.44222 4.6642e-19)
(0.178624 3.46514 5.26999e-19)
(0.154617 3.47592 8.88374e-19)
(0.278089 0.26472 1.0019e-19)
(0.975725 1.01705 0)
(1.114 1.18602 -2.5957e-19)
(1.11153 1.21261 -4.96155e-19)
(1.06042 1.1931 8.44314e-19)
(0.997644 1.16552 7.66042e-19)
(0.926956 1.1344 9.18587e-19)
(0.845275 1.09954 9.7848e-20)
(0.750821 1.06027 1.34386e-18)
(0.63897 1.01469 2.36824e-18)
(0.519427 0.965352 1.47177e-19)
(0.407159 0.916852 1.2772e-18)
(0.297068 0.866659 2.18551e-19)
(0.229193 0.980944 -2.63044e-19)
(0.246884 2.26461 -5.98238e-19)
(0.312253 3.32223 6.01406e-19)
(0.298341 3.47681 -7.03846e-19)
(0.259748 3.49983 -4.13936e-19)
(0.220607 3.52751 -3.85548e-19)
(0.166346 3.51983 -3.61332e-20)
(0.266836 0.261858 0)
(0.97319 1.03928 -3.99012e-20)
(1.10604 1.20889 4.27251e-20)
(1.10178 1.23544 4.66791e-20)
(1.05055 1.21585 5.16985e-19)
(0.987876 1.18849 -7.25956e-19)
(0.916931 1.15756 -5.7566e-19)
(0.835205 1.12349 9.28298e-20)
(0.740497 1.08567 -1.4467e-18)
(0.627826 1.04285 -2.83501e-20)
(0.506337 0.998217 -4.66797e-18)
(0.390965 0.955723 1.80891e-19)
(0.284791 0.932834 -2.09535e-19)
(0.269111 1.44642 -2.51609e-19)
(0.349344 3.06161 3.50508e-20)
(0.377461 3.47307 2.17513e-21)
(0.333762 3.53736 1.1948e-18)
(0.294582 3.56103 6.39999e-19)
(0.243125 3.58499 -2.59957e-19)
(0.18145 3.57993 -2.1355e-19)
(0.250645 0.259392 -6.99231e-20)
(0.969065 1.06392 -2.41393e-19)
(1.09753 1.23376 1.19383e-19)
(1.09152 1.25969 1.78944e-19)
(1.04021 1.23991 0)
(0.977706 1.21257 -9.33275e-19)
(0.906777 1.18187 -8.04977e-19)
(0.825285 1.14856 8.75842e-20)
(0.730653 1.11224 -1.58133e-19)
(0.617695 1.07237 -2.2875e-18)
(0.495049 1.03275 -2.22175e-18)
(0.378527 0.997418 -1.54284e-18)
(0.289123 1.05463 -1.60323e-18)
(0.339504 2.1027 1.63823e-18)
(0.43923 3.37171 1.4211e-18)
(0.424937 3.53823 0)
(0.37408 3.58388 0)
(0.335532 3.62658 -2.27333e-19)
(0.277437 3.68902 0)
(0.193696 3.66035 -3.31716e-19)
(0.239648 0.260609 7.23852e-20)
(0.962786 1.08935 1.63563e-19)
(1.08763 1.25977 0)
(1.08002 1.28475 1.16893e-20)
(1.02871 1.26457 4.25989e-19)
(0.966482 1.2371 -1.29524e-18)
(0.895895 1.20665 -5.00134e-19)
(0.814854 1.17397 7.59846e-20)
(0.720552 1.13909 -1.14941e-18)
(0.607723 1.1021 1.24495e-19)
(0.484716 1.06761 0)