0.490941 	0.984509 	0.00646855 	3.0034 	0
0.561075 	0.984509 	0.00646855 	3.0034 	0
0.63121 	0.984509 	0.00646855 	3.0034 	0
0.701344 	0.984509 	0.00646855 	3.0034 	0
0.771478 	0.984509 	0.00646855 	3.0034 	0
0.841613 	0.984509 	0.00646855 	3.0034 	0
0.911747 	0.984509 	0.00646855 	3.0034 	0
0.981881 	0.984509 	0.00646855 	3.0034 	0
1.05202 	0.984509 	0.00646855 	3.0034 	0
1.12215 	0.984509 	0.00646855 	3.0034 	0
1.19228 	0.984509 	0.00646855 	3.0034 	0
1.26242 	0.958724 	0.0120565 	3.00739 	0
1.33255 	0.958724 	0.0120565 	3.00739 	0
1.40269 	0.958724 	0.0120565 	3.00739 	0
1.47282 	0.958724 	0.0120565 	3.00739 	0
1.54296 	0.958724 	0.0120565 	3.00739 	0
1.61309 	0.958724 	0.0120565 	3.00739 	0
1.68323 	0.958724 	0.0120565 	3.00739 	0
1.75336 	0.958724 	0.0120565 	3.00739 	0
1.82349 	0.908338 	0.0150353 	3.0235 	3.53849e-19
1.89363 	0.908338 	0.0150353 	3.0235 	3.53849e-19
1.96376 	0.908338 	0.0150353 	3.0235 	3.53849e-19
2.0339 	0.908338 	0.0150353 	3.0235 	3.53849e-19
2.10403 	0.908338 	0.0150353 	3.0235 	3.53849e-19
2.17417 	0.908338 	0.0150353 	3.0235 	3.53849e-19
2.2443 	0.908338 	0.0150353 	3.0235 	3.53849e-19
2.31443 	0.908338 	0.0150353 	3.0235 	3.53849e-19
2.38457 	0.908338 	0.0150353 	3.0235 	3.53849e-19
2.4547 	0.908338 	0.0150353 	3.0235 	3.53849e-19
2.52484 	0.908338 	0.0150353 	3.0235 	3.53849e-19
2.59497 	0.875353 	0.00768465 	3.03794 	-5.5488e-19
2.66511 	0.875353 	0.00768465 	3.03794 	-5.5488e-19
2.73524 	0.875353 	0.00768465 	3.03794 	-5.5488e-19
2.80538 	0.875353 	0.00768465 	3.03794 	-5.5488e-19
2.87551 	0.875353 	0.00768465 	3.03794 	-5.5488e-19
2.94564 	0.875353 	0.00768465 	3.03794 	-5.5488e-19
3.01578 	0.875353 	0.00768465 	3.03794 	-5.5488e-19
3.08591 	0.875353 	0.00768465 	3.03794 	-5.5488e-19
3.15605 	0.875353 	0.00768465 	3.03794 	-5.5488e-19
3.22618 	0.875353 	0.00768465 	3.03794 	-5.5488e-19
3.29632 	0.846689 	0.0192099 	3.04253 	5.44911e-19
3.36645 	0.846689 	0.0192099 	3.04253 	5.44911e-19
3.43659 	0.846689 	0.0192099 	3.04253 	5.44911e-19
3.50672 	0.846689 	0.0192099 	3.04253 	5.44911e-19
3.57685 	0.846689 	0.0192099 	3.04253 	5.44911e-19
3.64699 	0.846689 	0.0192099 	3.04253 	5.44911e-19
3.71712 	0.846689 	0.0192099 	3.04253 	5.44911e-19
3.78726 	0.846689 	0.0192099 	3.04253 	5.44911e-19
3.85739 	0.846689 	0.0192099 	3.04253 	5.44911e-19
3.92753 	0.846689 	0.0192099 	3.04253 	5.44911e-19
3.99766 	0.846689 	0.0192099 	3.04253 	5.44911e-19
4.06779 	0.828458 	0.00201521 	3.0501 	-1.55555e-20
4.13793 	0.828458 	0.00201521 	3.0501 	-1.55555e-20
4.20806 	0.828458 	0.00201521 	3.0501 	-1.55555e-20
4.2782 	0.828458 	0.00201521 	3.0501 	-1.55555e-20
4.34833 	0.828458 	0.00201521 	3.0501 	-1.55555e-20
4.41847 	0.828458 	0.00201521 	3.0501 	-1.55555e-20
4.4886 	0.802003 	0.0153248 	3.0576 	0
4.55874 	0.802003 	0.0153248 	3.0576 	0
4.62887 	0.802003 	0.0153248 	3.0576 	0
4.699 	0.802003 	0.0153248 	3.0576 	0
4.76914 	0.802003 	0.0153248 	3.0576 	0
4.83927 	0.802003 	0.0153248 	3.0576 	0
4.90941 	0.802003 	0.0153248 	3.0576 	0
4.97954 	0.802003 	0.0153248 	3.0576 	0
5.04968 	0.802003 	0.0153248 	3.0576 	0
5.11981 	0.802003 	0.0153248 	3.0576 	0
5.18994 	0.778172 	0.00599771 	3.06501 	-7.26754e-21
5.26008 	0.778172 	0.00599771 	3.06501 	-7.26754e-21
5.33021 	0.778172 	0.00599771 	3.06501 	-7.26754e-21
5.40035 	0.778172 	0.00599771 	3.06501 	-7.26754e-21
5.47048 	0.778172 	0.00599771 	3.06501 	-7.26754e-21
5.54062 	0.778172 	0.00599771 	3.06501 	-7.26754e-21
5.61075 	0.778172 	0.00599771 	3.06501 	-7.26754e-21
5.68089 	0.748988 	0.0124382 	3.07447 	0
5.75102 	0.748988 	0.0124382 	3.07447 	0
5.82115 	0.748988 	0.0124382 	3.07447 	0
5.89129 	0.748988 	0.0124382 	3.07447 	0
5.96142 	0.748988 	0.0124382 	3.07447 	0
6.03156 	0.748988 	0.0124382 	3.07447 	0
6.10169 	0.748988 	0.0124382 	3.07447 	0
6.17183 	0.748988 	0.0124382 	3.07447 	0
6.24196 	0.748988 	0.0124382 	3.07447 	0
6.3121 	0.723889 	0.00783933 	3.08217 	0
6.38223 	0.723889 	0.00783933 	3.08217 	0
6.45236 	0.723889 	0.00783933 	3.08217 	0
6.5225 	0.723889 	0.00783933 	3.08217 	0
6.59263 	0.723889 	0.00783933 	3.08217 	0
6.66277 	0.723889 	0.00783933 	3.08217 	0
6.7329 	0.723889 	0.00783933 	3.08217 	0
6.80304 	0.723889 	0.00783933 	3.08217 	0
6.87317 	0.70015 	0.00918142 	3.08721 	2.39064e-19
6.9433 	0.70015 	0.00918142 	3.08721 	2.39064e-19
7.01344 	0.70015 	0.00918142 	3.08721 	2.39064e-19
7.08357 	0.70015 	0.00918142 	3.08721 	2.39064e-19
7.15371 	0.70015 	0.00918142 	3.08721 	2.39064e-19
7.22384 	0.70015 	0.00918142 	3.08721 	2.39064e-19
7.29398 	0.70015 	0.00918142 	3.08721 	2.39064e-19
7.36411 	0.70015 	0.00918142 	3.08721 	2.39064e-19
7.43425 	0.70015 	0.00918142 	3.08721 	2.39064e-19
7.50438 	0.666825 	0.00890973 	3.09914 	-1.76923e-18
7.57451 	0.666825 	0.00890973 	3.09914 	-1.76923e-18
7.64465 	0.666825 	0.00890973 	3.09914 	-1.76923e-18
7.71478 	0.666825 	0.00890973 	3.09914 	-1.76923e-18
7.78492 	0.666825 	0.00890973 	3.09914 	-1.76923e-18
7.85505 	0.666825 	0.00890973 	3.09914 	-1.76923e-18
7.92519 	0.666825 	0.00890973 	3.09914 	-1.76923e-18
7.99532 	0.666825 	0.00890973 	3.09914 	-1.76923e-18
8.06545 	0.651142 	0.00578031 	3.1021 	1.76335e-18
8.13559 	0.651142 	0.00578031 	3.1021 	1.76335e-18
8.20572 	0.651142 	0.00578031 	3.1021 	1.76335e-18
8.27586 	0.651142 	0.00578031 	3.1021 	1.76335e-18
8.34599 	0.651142 	0.00578031 	3.1021 	1.76335e-18
8.41613 	0.651142 	0.00578031 	3.1021 	1.76335e-18
8.48626 	0.651142 	0.00578031 	3.1021 	1.76335e-18
8.5564 	0.651142 	0.00578031 	3.1021 	1.76335e-18
8.62653 	0.651142 	0.00578031 	3.1021 	1.76335e-18
8.69666 	0.621521 	0.0147067 	3.11396 	1.42237e-18
8.7668 	0.621521 	0.0147067 	3.11396 	1.42237e-18
8.83693 	0.621521 	0.0147067 	3.11396 	1.42237e-18
8.90707 	0.621521 	0.0147067 	3.11396 	1.42237e-18
8.9772 	0.621521 	0.0147067 	3.11396 	1.42237e-18
9.04734 	0.621521 	0.0147067 	3.11396 	1.42237e-18
9.11747 	0.621521 	0.0147067 	3.11396 	1.42237e-18
9.18761 	0.621521 	0.0147067 	3.11396 	1.42237e-18
9.25774 	0.586767 	0.0101686 	3.11241 	-1.31132e-18
9.32787 	0.586767 	0.0101686 	3.11241 	-1.31132e-18
9.39801 	0.586767 	0.0101686 	3.11241 	-1.31132e-18
9.46814 	0.586767 	0.0101686 	3.11241 	-1.31132e-18
9.53828 	0.586767 	0.0101686 	3.11241 	-1.31132e-18
9.60841 	0.586767 	0.0101686 	3.11241 	-1.31132e-18
9.67855 	0.586767 	0.0101686 	3.11241 	-1.31132e-18
9.74868 	0.586767 	0.0101686 	3.11241 	-1.31132e-18
9.81881 	0.563592 	0.0249165 	3.12557 	-4.36154e-19
9.88895 	0.563592 	0.0249165 	3.12557 	-4.36154e-19
9.95908 	0.563592 	0.0249165 	3.12557 	-4.36154e-19
10.0292 	0.563592 	0.0249165 	3.12557 	-4.36154e-19
10.0994 	0.563592 	0.0249165 	3.12557 	-4.36154e-19
10.1695 	0.563592 	0.0249165 	3.12557 	-4.36154e-19
10.2396 	0.563592 	0.0249165 	3.12557 	-4.36154e-19
10.3098 	0.563592 	0.0249165 	3.12557 	-4.36154e-19
10.3799 	0.563592 	0.0249165 	3.12557 	-4.36154e-19
10.45 	0.563592 	0.0249165 	3.12557 	-4.36154e-19
10.5202 	0.563592 	0.0249165 	3.12557 	-4.36154e-19
10.5903 	0.563592 	0.0249165 	3.12557 	-4.36154e-19
10.6604 	0.579267 	0.0246279 	3.12214 	6.41976e-19
10.7306 	0.521749 	0.0474202 	3.13508 	0
10.8007 	0.521749 	0.0474202 	3.13508 	0
10.8708 	0.521749 	0.0474202 	3.13508 	0
10.941 	0.521749 	0.0474202 	3.13508 	0
11.0111 	0.521749 	0.0474202 	3.13508 	0
11.0812 	0.521749 	0.0474202 	3.13508 	0
11.1514 	0.521749 	0.0474202 	3.13508 	0
11.2215 	0.521749 	0.0474202 	3.13508 	0
11.2916 	0.521749 	0.0474202 	3.13508 	0
11.3618 	0.521749 	0.0474202 	3.13508 	0
11.4319 	0.521749 	0.0474202 	3.13508 	0
11.502 	0.521749 	0.0474202 	3.13508 	0
11.5722 	0.521749 	0.0474202 	3.13508 	0
11.6423 	0.521749 	0.0474202 	3.13508 	0
11.7124 	0.534285 	0.0300996 	3.11867 	0
11.7826 	0.468948 	0.111864 	3.15361 	7.11051e-19
11.8527 	0.468948 	0.111864 	3.15361 	7.11051e-19
11.9228 	0.468948 	0.111864 	3.15361 	7.11051e-19
11.993 	0.468948 	0.111864 	3.15361 	7.11051e-19
12.0631 	0.468948 	0.111864 	3.15361 	7.11051e-19
12.1332 	0.468948 	0.111864 	3.15361 	7.11051e-19
12.2034 	0.34802 	0.0958651 	3.19558 	-3.30184e-19
12.2735 	0.34802 	0.0958651 	3.19558 	-3.30184e-19
12.3437 	0.34802 	0.0958651 	3.19558 	-3.30184e-19
12.4138 	0.34802 	0.0958651 	3.19558 	-3.30184e-19
12.4839 	0.34802 	0.0958651 	3.19558 	-3.30184e-19
12.5541 	0.34802 	0.0958651 	3.19558 	-3.30184e-19
12.6242 	0.34802 	0.0958651 	3.19558 	-3.30184e-19
12.6943 	0.34802 	0.0958651 	3.19558 	-3.30184e-19
12.7645 	0.34802 	0.0958651 	3.19558 	-3.30184e-19
12.8346 	0.223546 	0.0623056 	3.20822 	2.1387e-19
12.9047 	0.190628 	0.167224 	3.22498 	-3.56394e-20
12.9749 	0.190628 	0.167224 	3.22498 	-3.56394e-20
13.045 	0.190628 	0.167224 	3.22498 	-3.56394e-20
13.1151 	0.190628 	0.167224 	3.22498 	-3.56394e-20
13.1853 	0.190628 	0.167224 	3.22498 	-3.56394e-20
13.2554 	0.190628 	0.167224 	3.22498 	-3.56394e-20
13.3255 	0.190628 	0.167224 	3.22498 	-3.56394e-20
13.3957 	0.513664 	0.213223 	3.1789 	1.27254e-18
13.4658 	0.513664 	0.213223 	3.1789 	1.27254e-18
13.5359 	0.513664 	0.213223 	3.1789 	1.27254e-18
13.6061 	0.513664 	0.213223 	3.1789 	1.27254e-18
13.6762 	0.513664 	0.213223 	3.1789 	1.27254e-18
13.7463 	0.513664 	0.213223 	3.1789 	1.27254e-18
13.8165 	0.651848 	0.179233 	2.8445 	-1.03125e-18
13.8866 	0.770979 	0.235664 	2.93107 	6.83206e-20
13.9567 	0.770979 	0.235664 	2.93107 	6.83206e-20
14.0269 	-0.0902841 	0.339276 	3.11486 	-7.48527e-19
14.097 	-0.0902841 	0.339276 	3.11486 	-7.48527e-19
14.1671 	-0.0902841 	0.339276 	3.11486 	-7.48527e-19
14.2373 	-0.0902841 	0.339276 	3.11486 	-7.48527e-19
14.3074 	-0.0902841 	0.339276 	3.11486 	-7.48527e-19
14.3776 	-0.0902841 	0.339276 	3.11486 	-7.48527e-19
14.4477 	-0.0902841 	0.339276 	3.11486 	-7.48527e-19
14.5178 	-0.0902841 	0.339276 	3.11486 	-7.48527e-19
14.588 	-0.0902841 	0.339276 	3.11486 	-7.48527e-19
14.6581 	-0.0902841 	0.339276 	3.11486 	-7.48527e-19
14.7282 	-0.0902841 	0.339276 	3.11486 	-7.48527e-19
14.7984 	-0.0902841 	0.339276 	3.11486 	-7.48527e-19
14.8685 	-0.0902841 	0.339276 	3.11486 	-7.48527e-19
14.9386 	-0.485512 	0.473926 	3.32981 	0
15.0088 	-0.485512 	0.473926 	3.32981 	0
15.0789 	-0.485512 	0.473926 	3.32981 	0
15.149 	-0.485512 	0.473926 	3.32981 	0
15.2192 	-0.485512 	0.473926 	3.32981 	0
15.2893 	-0.877475 	0.338176 	3.52784 	-5.53839e-19
15.3594 	-0.877475 	0.338176 	3.52784 	-5.53839e-19
15.4296 	-0.877475 	0.338176 	3.52784 	-5.53839e-19
15.4997 	-0.877475 	0.338176 	3.52784 	-5.53839e-19
15.5698 	-0.877475 	0.338176 	3.52784 	-5.53839e-19
15.64 	-0.877475 	0.338176 	3.52784 	-5.53839e-19
15.7101 	-1.34011 	0.410013 	3.62013 	0
15.7802 	-1.34011 	0.410013 	3.62013 	0
15.8504 	-1.33709 	0.555191 	3.65395 	1.78632e-18
15.9205 	-1.33709 	0.555191 	3.65395 	1.78632e-18
15.9906 	-1.33709 	0.555191 	3.65395 	1.78632e-18
16.0608 	-1.33709 	0.555191 	3.65395 	1.78632e-18
16.1309 	-1.33709 	0.555191 	3.65395 	1.78632e-18
16.201 	-1.33709 	0.555191 	3.65395 	1.78632e-18
16.2712 	-1.33709 	0.555191 	3.65395 	1.78632e-18
16.3413 	-1.33709 	0.555191 	3.65395 	1.78632e-18
16.4114 	-1.33709 	0.555191 	3.65395 	1.78632e-18
16.4816 	-1.33709 	0.555191 	3.65395 	1.78632e-18
16.5517 	-1.33709 	0.555191 	3.65395 	1.78632e-18
16.6219 	-1.33709 	0.555191 	3.65395 	1.78632e-18
16.692 	-1.33709 	0.555191 	3.65395 	1.78632e-18
16.7621 	-1.33709 	0.555191 	3.65395 	1.78632e-18
16.8323 	-1.05895 	0.694117 	3.31448 	7.23325e-19
16.9024 	-1.05895 	0.694117 	3.31448 	7.23325e-19
16.9725 	-1.05895 	0.694117 	3.31448 	7.23325e-19
17.0427 	-1.05895 	0.694117 	3.31448 	7.23325e-19
17.1128 	-1.05895 	0.694117 	3.31448 	7.23325e-19
17.1829 	-1.05895 	0.694117 	3.31448 	7.23325e-19
17.2531 	-1.05895 	0.694117 	3.31448 	7.23325e-19
17.3232 	-1.05895 	0.694117 	3.31448 	7.23325e-19
17.3933 	-1.05895 	0.694117 	3.31448 	7.23325e-19
17.4635 	-1.05895 	0.694117 	3.31448 	7.23325e-19
17.5336 	-1.05067 	0.65715 	3.33358 	-8.0328e-19
17.6037 	-1.05067 	0.65715 	3.33358 	-8.0328e-19
17.6739 	-1.05067 	0.65715 	3.33358 	-8.0328e-19
17.744 	-1.07104 	0.742703 	3.39219 	9.20209e-19
17.8141 	-1.07104 	0.742703 	3.39219 	9.20209e-19
17.8843 	-1.07104 	0.742703 	3.39219 	9.20209e-19
17.9544 	-1.07104 	0.742703 	3.39219 	9.20209e-19
18.0245 	-1.07104 	0.742703 	3.39219 	9.20209e-19
18.0947 	-1.07104 	0.742703 	3.39219 	9.20209e-19
18.1648 	-1.07104 	0.742703 	3.39219 	9.20209e-19
18.2349 	-1.07104 	0.742703 	3.39219 	9.20209e-19
18.3051 	-1.07104 	0.742703 	3.39219 	9.20209e-19
18.3752 	-0.812134 	0.611159 	3.17513 	-6.77402e-19
18.4453 	-0.812134 	0.611159 	3.17513 	-6.77402e-19
18.5155 	-0.812134 	0.611159 	3.17513 	-6.77402e-19
18.5856 	-0.812134 	0.611159 	3.17513 	-6.77402e-19
18.6557 	-0.812134 	0.611159 	3.17513 	-6.77402e-19
18.7259 	-0.812134 	0.611159 	3.17513 	-6.77402e-19
18.796 	-0.812134 	0.611159 	3.17513 	-6.77402e-19
18.8662 	-0.573231 	0.594398 	3.10407 	6.24368e-19
18.9363 	-0.573231 	0.594398 	3.10407 	6.24368e-19
19.0064 	-0.573231 	0.594398 	3.10407 	6.24368e-19
19.0766 	-0.573231 	0.594398 	3.10407 	6.24368e-19
19.1467 	-0.573231 	0.594398 	3.10407 	6.24368e-19
19.2168 	-0.573231 	0.594398 	3.10407 	6.24368e-19
19.287 	-0.573231 	0.594398 	3.10407 	6.24368e-19
19.3571 	-0.573231 	0.594398 	3.10407 	6.24368e-19
19.4272 	-0.573231 	0.594398 	3.10407 	6.24368e-19
19.4974 	-0.573231 	0.594398 	3.10407 	6.24368e-19
19.5675 	-0.573231 	0.594398 	3.10407 	6.24368e-19
19.6376 	-0.573231 	0.594398 	3.10407 	6.24368e-19
19.7078 	-0.573231 	0.594398 	3.10407 	6.24368e-19
19.7779 	-0.368751 	0.461942 	2.91555 	-1.59437e-19
19.848 	-0.368751 	0.461942 	2.91555 	-1.59437e-19
19.9182 	-0.368751 	0.461942 	2.91555 	-1.59437e-19
19.9883 	-0.368751 	0.461942 	2.91555 	-1.59437e-19
20.0584 	-0.368751 	0.461942 	2.91555 	-1.59437e-19
20.1286 	-0.368751 	0.461942 	2.91555 	-1.59437e-19
20.1987 	-0.368751 	0.461942 	2.91555 	-1.59437e-19
20.2688 	-0.139063 	0.403056 	2.77906 	-2.7139e-19
20.339 	-0.139063 	0.403056 	2.77906 	-2.7139e-19
20.4091 	-0.139063 	0.403056 	2.77906 	-2.7139e-19
20.4792 	-0.139063 	0.403056 	2.77906 	-2.7139e-19
20.5494 	-0.139063 	0.403056 	2.77906 	-2.7139e-19
20.6195 	-0.139063 	0.403056 	2.77906 	-2.7139e-19
20.6896 	-0.139063 	0.403056 	2.77906 	-2.7139e-19
20.7598 	-0.139063 	0.403056 	2.77906 	-2.7139e-19
20.8299 	-0.139063 	0.403056 	2.77906 	-2.7139e-19
20.9 	-0.139063 	0.403056 	2.77906 	-2.7139e-19
20.9702 	-0.139063 	0.403056 	2.77906 	-2.7139e-19
21.0403 	-0.139063 	0.403056 	2.77906 	-2.7139e-19
21.1105 	-0.139063 	0.403056 	2.77906 	-2.7139e-19
21.1806 	-0.139063 	0.403056 	2.77906 	-2.7139e-19
21.2507 	-0.139063 	0.403056 	2.77906 	-2.7139e-19
21.3209 	-0.139063 	0.403056 	2.77906 	-2.7139e-19
21.391 	-0.139063 	0.403056 	2.77906 	-2.7139e-19
21.4611 	-0.0511003 	0.1862 	2.54934 	2.45977e-19
21.5313 	-0.0511003 	0.1862 	2.54934 	2.45977e-19
21.6014 	-0.0511003 	0.1862 	2.54934 	2.45977e-19
21.6715 	0.195779 	0.163769 	2.43465 	-1.72047e-19
21.7417 	0.195779 	0.163769 	2.43465 	-1.72047e-19
21.8118 	0.195779 	0.163769 	2.43465 	-1.72047e-19
21.8819 	0.195779 	0.163769 	2.43465 	-1.72047e-19
21.9521 	0.195779 	0.163769 	2.43465 	-1.72047e-19
22.0222 	0.300602 	0.455086 	2.40288 	3.03837e-19
22.0923 	0.300602 	0.455086 	2.40288 	3.03837e-19
22.1625 	0.300602 	0.455086 	2.40288 	3.03837e-19
22.2326 	0.300602 	0.455086 	2.40288 	3.03837e-19
22.3027 	0.300602 	0.455086 	2.40288 	3.03837e-19
22.3729 	0.300602 	0.455086 	2.40288 	3.03837e-19
22.443 	0.300602 	0.455086 	2.40288 	3.03837e-19
22.5131 	0.300602 	0.455086 	2.40288 	3.03837e-19
22.5833 	0.300602 	0.455086 	2.40288 	3.03837e-19
22.6534 	0.300602 	0.455086 	2.40288 	3.03837e-19
22.7235 	0.300602 	0.455086 	2.40288 	3.03837e-19
22.7937 	0.300602 	0.455086 	2.40288 	3.03837e-19
22.8638 	0.300602 	0.455086 	2.40288 	3.03837e-19
22.9339 	0.300602 	0.455086 	2.40288 	3.03837e-19
23.0041 	0.300602 	0.455086 	2.40288 	3.03837e-19
23.0742 	0.300602 	0.455086 	2.40288 	3.03837e-19
23.1443 	0.300602 	0.455086 	2.40288 	3.03837e-19
23.2145 	0.300602 	0.455086 	2.40288 	3.03837e-19
23.2846 	0.300602 	0.455086 	2.40288 	3.03837e-19
23.3548 	0.300602 	0.455086 	2.40288 	3.03837e-19
23.4249 	0.300602 	0.455086 	2.40288 	3.03837e-19
23.495 	0.426602 	0.512881 	2.21591 	-1.39381e-19
23.5652 	0.426602 	0.512881 	2.21591 	-1.39381e-19
23.6353 	0.426602 	0.512881 	2.21591 	-1.39381e-19
23.7054 	0.426602 	0.512881 	2.21591 	-1.39381e-19
23.7756 	0.426602 	0.512881 	2.21591 	-1.39381e-19
23.8457 	0.426602 	0.512881 	2.21591 	-1.39381e-19
23.9158 	0.426602 	0.512881 	2.21591 	-1.39381e-19
23.986 	0.522202 	0.563162 	2.01285 	7.21205e-21
24.0561 	0.522202 	0.563162 	2.01285 	7.21205e-21
24.1262 	0.522202 	0.563162 	2.01285 	7.21205e-21
24.1964 	0.522202 	0.563162 	2.01285 	7.21205e-21
24.2665 	0.522202 	0.563162 	2.01285 	7.21205e-21
24.3366 	0.522202 	0.563162 	2.01285 	7.21205e-21
24.4068 	0.522202 	0.563162 	2.01285 	7.21205e-21
24.4769 	0.522202 	0.563162 	2.01285 	7.21205e-21
24.547 	0.522202 	0.563162 	2.01285 	7.21205e-21
24.6172 	0.522202 	0.563162 	2.01285 	7.21205e-21
24.6873 	0.522202 	0.563162 	2.01285 	7.21205e-21
24.7574 	0.522202 	0.563162 	2.01285 	7.21205e-21
24.8276 	0.522202 	0.563162 	2.01285 	7.21205e-21
24.8977 	0.522202 	0.563162 	2.01285 	7.21205e-21
24.9678 	0.522202 	0.563162 	2.01285 	7.21205e-21
25.038 	0.522202 	0.563162 	2.01285 	7.21205e-21
25.1081 	0.522202 	0.563162 	2.01285 	7.21205e-21
25.1782 	0.347197 	0.441292 	1.84749 	0
25.2484 	0.347197 	0.441292 	1.84749 	0
25.3185 	0.347197 	0.441292 	1.84749 	0
25.3886 	0.347197 	0.441292 	1.84749 	0
25.4588 	0.347197 	0.441292 	1.84749 	0
25.5289 	0.347197 	0.441292 	1.84749 	0
25.5991 	0.347197 	0.441292 	1.84749 	0
25.6692 	0.347197 	0.441292 	1.84749 	0
25.7393 	0.347197 	0.441292 	1.84749 	0
25.8095 	0.347197 	0.441292 	1.84749 	0
25.8796 	0.347197 	0.441292 	1.84749 	0
25.9497 	0.347197 	0.441292 	1.84749 	0
26.0199 	0.347197 	0.441292 	1.84749 	0
26.09 	0.347197 	0.441292 	1.84749 	0
26.1601 	0.347197 	0.441292 	1.84749 	0
26.2303 	0.300436 	0.448377 	1.75624 	-6.24401e-19
26.3004 	0.300436 	0.448377 	1.75624 	-6.24401e-19
26.3705 	0.300436 	0.448377 	1.75624 	-6.24401e-19
26.4407 	0.300436 	0.448377 	1.75624 	-6.24401e-19
26.5108 	0.300436 	0.448377 	1.75624 	-6.24401e-19
26.5809 	0.300436 	0.448377 	1.75624 	-6.24401e-19
26.6511 	0.300436 	0.448377 	1.75624 	-6.24401e-19
26.7212 	0.300436 	0.448377 	1.75624 	-6.24401e-19
26.7913 	0.300436 	0.448377 	1.75624 	-6.24401e-19
26.8615 	0.300436 	0.448377 	1.75624 	-6.24401e-19
26.9316 	0.300436 	0.448377 	1.75624 	-6.24401e-19
27.0017 	0.300436 	0.448377 	1.75624 	-6.24401e-19
27.0719 	0.300436 	0.448377 	1.75624 	-6.24401e-19
27.142 	0.300436 	0.448377 	1.75624 	-6.24401e-19
27.2121 	0.300436 	0.448377 	1.75624 	-6.24401e-19
27.2823 	0.300436 	0.448377 	1.75624 	-6.24401e-19
27.3524 	0.314965 	0.429944 	1.70024 	6.40506e-19
27.4225 	0.314965 	0.429944 	1.70024 	6.40506e-19
27.4927 	0.314965 	0.429944 	1.70024 	6.40506e-19
27.5628 	0.314965 	0.429944 	1.70024 	6.40506e-19
27.6329 	0.314965 	0.429944 	1.70024 	6.40506e-19
27.7031 	0.314965 	0.429944 	1.70024 	6.40506e-19
27.7732 	0.314965 	0.429944 	1.70024 	6.40506e-19
27.8434 	0.314965 	0.429944 	1.70024 	6.40506e-19
27.9135 	0.314965 	0.429944 	1.70024 	6.40506e-19
27.9836 	0.314965 	0.429944 	1.70024 	6.40506e-19
28.0538 	0.314965 	0.429944 	1.70024 	6.40506e-19
28.1239 	0.314965 	0.429944 	1.70024 	6.40506e-19
28.194 	0.314965 	0.429944 	1.70024 	6.40506e-19
28.2642 	0.314965 	0.429944 	1.70024 	6.40506e-19
28.3343 	0.314965 	0.429944 	1.70024 	6.40506e-19
28.4044 	0.314965 	0.429944 	1.70024 	6.40506e-19
28.4746 	0.314965 	0.429944 	1.70024 	6.40506e-19
28.5447 	0.314965 	0.429944 	1.70024 	6.40506e-19
28.6148 	0.314965 	0.429944 	1.70024 	6.40506e-19
28.685 	0.314965 	0.429944 	1.70024 	6.40506e-19
28.7551 	0.314965 	0.429944 	1.70024 	6.40506e-19
28.8252 	0.314965 	0.429944 	1.70024 	6.40506e-19
28.8954 	0.314965 	0.429944 	1.70024 	6.40506e-19
28.9655 	0.250471 	0.428959 	1.70673 	2.5559e-20
29.0356 	0.250471 	0.428959 	1.70673 	2.5559e-20
29.1058 	0.250471 	0.428959 	1.70673 	2.5559e-20
29.1759 	0.250471 	0.428959 	1.70673 	2.5559e-20
29.246 	0.250471 	0.428959 	1.70673 	2.5559e-20
29.3162 	0.250471 	0.428959 	1.70673 	2.5559e-20
29.3863 	0.250471 	0.428959 	1.70673 	2.5559e-20
29.4564 	0.250471 	0.428959 	1.70673 	2.5559e-20
29.5266 	0.250471 	0.428959 	1.70673 	2.5559e-20
29.5967 	0.250471 	0.428959 	1.70673 	2.5559e-20
29.6668 	0.250471 	0.428959 	1.70673 	2.5559e-20
29.737 	0.250471 	0.428959 	1.70673 	2.5559e-20
29.8071 	0.250471 	0.428959 	1.70673 	2.5559e-20
29.8773 	0.250471 	0.428959 	1.70673 	2.5559e-20
29.9474 	0.250471 	0.428959 	1.70673 	2.5559e-20
30.0175 	0.250471 	0.428959 	1.70673 	2.5559e-20
30.0877 	0.250471 	0.428959 	1.70673 	2.5559e-20
30.1578 	0.250471 	0.428959 	1.70673 	2.5559e-20
30.2279 	0.250471 	0.428959 	1.70673 	2.5559e-20
30.2981 	0.250471 	0.428959 	1.70673 	2.5559e-20
30.3682 	0.250471 	0.428959 	1.70673 	2.5559e-20
30.4383 	0.250471 	0.428959 	1.70673 	2.5559e-20
30.5085 	0.250471 	0.428959 	1.70673 	2.5559e-20
30.5786 	0.250471 	0.428959 	1.70673 	2.5559e-20
30.6487 	0.250471 	0.428959 	1.70673 	2.5559e-20
30.7189 	0.250471 	0.428959 	1.70673 	2.5559e-20
30.789 	0.156769 	0.320123 	1.76001 	-2.51892e-19
30.8591 	0.156769 	0.320123 	1.76001 	-2.51892e-19
30.9293 	0.156769 	0.320123 	1.76001 	-2.51892e-19
30.9994 	0.156769 	0.320123 	1.76001 	-2.51892e-19
31.0695 	0.156769 	0.320123 	1.76001 	-2.51892e-19
31.1397 	0.156769 	0.320123 	1.76001 	-2.51892e-19
31.2098 	0.156769 	0.320123 	1.76001 	-2.51892e-19
31.2799 	0.156769 	0.320123 	1.76001 	-2.51892e-19
31.3501 	0.156769 	0.320123 	1.76001 	-2.51892e-19
31.4202 	0.156769 	0.320123 	1.76001 	-2.51892e-19
31.4903 	0.156769 	0.320123 	1.76001 	-2.51892e-19
31.5605 	0.156769 	0.320123 	1.76001 	-2.51892e-19
31.6306 	0.156769 	0.320123 	1.76001 	-2.51892e-19
31.7007 	0.156769 	0.320123 	1.76001 	-2.51892e-19
31.7709 	0.156769 	0.320123 	1.76001 	-2.51892e-19
31.841 	0.156769 	0.320123 	1.76001 	-2.51892e-19
31.9111 	0.156769 	0.320123 	1.76001 	-2.51892e-19
31.9813 	0.156769 	0.320123 	1.76001 	-2.51892e-19
32.0514 	0.156769 	0.320123 	1.76001 	-2.51892e-19
32.1216 	0.156769 	0.320123 	1.76001 	-2.51892e-19
32.1917 	0.156769 	0.320123 	1.76001 	-2.51892e-19
32.2618 	0.156769 	0.320123 	1.76001 	-2.51892e-19
32.332 	0.156769 	0.320123 	1.76001 	-2.51892e-19
32.4021 	0.156769 	0.320123 	1.76001 	-2.51892e-19
32.4722 	0.156769 	0.320123 	1.76001 	-2.51892e-19
32.5424 	0.156769 	0.320123 	1.76001 	-2.51892e-19
32.6125 	0.156769 	0.320123 	1.76001 	-2.51892e-19
32.6826 	0.156769 	0.320123 	1.76001 	-2.51892e-19
32.7528 	0.156769 	0.320123 	1.76001 	-2.51892e-19
32.8229 	0.156769 	0.320123 	1.76001 	-2.51892e-19
32.893 	0.156769 	0.320123 	1.76001 	-2.51892e-19
32.9632 	0.156769 	0.320123 	1.76001 	-2.51892e-19
33.0333 	0.156769 	0.320123 	1.76001 	-2.51892e-19
33.1034 	0.156769 	0.320123 	1.76001 	-2.51892e-19
33.1736 	0.156769 	0.320123 	1.76001 	-2.51892e-19
33.2437 	0.156769 	0.320123 	1.76001 	-2.51892e-19
33.3138 	0.156769 	0.320123 	1.76001 	-2.51892e-19
33.384 	0.156769 	0.320123 	1.76001 	-2.51892e-19
33.4541 	0.156769 	0.320123 	1.76001 	-2.51892e-19
33.5242 	0.156769 	0.320123 	1.76001 	-2.51892e-19
33.5944 	0.156769 	0.320123 	1.76001 	-2.51892e-19
33.6645 	0.156769 	0.320123 	1.76001 	-2.51892e-19
33.7346 	0.042181 	0.282919 	1.79751 	1.08069e-19
33.8048 	0.042181 	0.282919 	1.79751 	1.08069e-19
33.8749 	0.042181 	0.282919 	1.79751 	1.08069e-19
33.945 	0.042181 	0.282919 	1.79751 	1.08069e-19
34.0152 	0.042181 	0.282919 	1.79751 	1.08069e-19
34.0853 	0.042181 	0.282919 	1.79751 	1.08069e-19
34.1554 	0.0238313 	0.275837 	1.80318 	-8.71896e-20
34.2256 	0.0238313 	0.275837 	1.80318 	-8.71896e-20
34.2957 	0.0238313 	0.275837 	1.80318 	-8.71896e-20
34.3659 	0.0238313 	0.275837 	1.80318 	-8.71896e-20
34.436 	0.0238313 	0.275837 	1.80318 	-8.71896e-20
34.5061 	0.0238313 	0.275837 	1.80318 	-8.71896e-20
34.5763 	0.0238313 	0.275837 	1.80318 	-8.71896e-20
34.6464 	0.0238313 	0.275837 	1.80318 	-8.71896e-20
34.7165 	0.135106 	0.225047 	1.75722 	8.13704e-20
34.7867 	0.135106 	0.225047 	1.75722 	8.13704e-20
34.8568 	0.135106 	0.225047 	1.75722 	8.13704e-20
34.9269 	0.135106 	0.225047 	1.75722 	8.13704e-20
34.9971 	0.135106 	0.225047 	1.75722 	8.13704e-20
35.0672 	0.135106 	0.225047 	1.75722 	8.13704e-20
35.1373 	0.135106 	0.225047 	1.75722 	8.13704e-20
35.2075 	0.135106 	0.225047 	1.75722 	8.13704e-20
35.2776 	0.135106 	0.225047 	1.75722 	8.13704e-20
35.3477 	0.135106 	0.225047 	1.75722 	8.13704e-20
35.4179 	0.135106 	0.225047 	1.75722 	8.13704e-20
35.488 	0.135106 	0.225047 	1.75722 	8.13704e-20
35.5581 	0.135106 	0.225047 	1.75722 	8.13704e-20
35.6283 	0.135106 	0.225047 	1.75722 	8.13704e-20
35.6984 	0.135106 	0.225047 	1.75722 	8.13704e-20
35.7685 	0.135106 	0.225047 	1.75722 	8.13704e-20
35.8387 	0.135106 	0.225047 	1.75722 	8.13704e-20
35.9088 	0.135106 	0.225047 	1.75722 	8.13704e-20
35.9789 	0.135106 	0.225047 	1.75722 	8.13704e-20
36.0491 	0.146485 	0.222628 	1.75346 	0
36.1192 	0.146485 	0.222628 	1.75346 	0
36.1893 	0.146485 	0.222628 	1.75346 	0
36.2595 	0.146485 	0.222628 	1.75346 	0
36.3296 	0.146485 	0.222628 	1.75346 	0
36.3997 	0.146485 	0.222628 	1.75346 	0
36.4699 	0.146485 	0.222628 	1.75346 	0
36.54 	0.146485 	0.222628 	1.75346 	0
36.6102 	0.146485 	0.222628 	1.75346 	0
36.6803 	0.146485 	0.222628 	1.75346 	0
36.7504 	0.146485 	0.222628 	1.75346 	0
36.8206 	0.146485 	0.222628 	1.75346 	0
36.8907 	0.068887 	0.19152 	1.78312 	9.59946e-20
36.9608 	0.068887 	0.19152 	1.78312 	9.59946e-20
37.031 	0.068887 	0.19152 	1.78312 	9.59946e-20
37.1011 	0.068887 	0.19152 	1.78312 	9.59946e-20
37.1712 	0.068887 	0.19152 	1.78312 	9.59946e-20
37.2414 	0.068887 	0.19152 	1.78312 	9.59946e-20
37.3115 	0.068887 	0.19152 	1.78312 	9.59946e-20
37.3816 	0.068887 	0.19152 	1.78312 	9.59946e-20
37.4518 	0.068887 	0.19152 	1.78312 	9.59946e-20
37.5219 	0.068887 	0.19152 	1.78312 	9.59946e-20
37.592 	0.068887 	0.19152 	1.78312 	9.59946e-20
37.6622 	0.068887 	0.19152 	1.78312 	9.59946e-20
37.7323 	0.068887 	0.19152 	1.78312 	9.59946e-20
37.8024 	0.068887 	0.19152 	1.78312 	9.59946e-20
37.8726 	0.068887 	0.19152 	1.78312 	9.59946e-20
37.9427 	0.068887 	0.19152 	1.78312 	9.59946e-20
38.0128 	0.068887 	0.19152 	1.78312 	9.59946e-20
38.083 	0.068887 	0.19152 	1.78312 	9.59946e-20
38.1531 	0.068887 	0.19152 	1.78312 	9.59946e-20
38.2232 	0.127946 	0.151458 	1.75107 	-1.10468e-19
38.2934 	0.127946 	0.151458 	1.75107 	-1.10468e-19
38.3635 	0.127946 	0.151458 	1.75107 	-1.10468e-19
38.4336 	0.127946 	0.151458 	1.75107 	-1.10468e-19
38.5038 	0.127946 	0.151458 	1.75107 	-1.10468e-19
38.5739 	0.127946 	0.151458 	1.75107 	-1.10468e-19
38.644 	0.127946 	0.151458 	1.75107 	-1.10468e-19
38.7142 	0.127946 	0.151458 	1.75107 	-1.10468e-19
38.7843 	0.127946 	0.151458 	1.75107 	-1.10468e-19
38.8545 	0.127946 	0.151458 	1.75107 	-1.10468e-19
38.9246 	0.127946 	0.151458 	1.75107 	-1.10468e-19
38.9947 	0.127946 	0.151458 	1.75107 	-1.10468e-19
39.0649 	0.127946 	0.151458 	1.75107 	-1.10468e-19
39.135 	0.127946 	0.151458 	1.75107 	-1.10468e-19
39.2051 	0.0980086 	0.127693 	1.77624 	0
39.2753 	0.0980086 	0.127693 	1.77624 	0
39.3454 	0.0980086 	0.127693 	1.77624 	0
39.4155 	0.0980086 	0.127693 	1.77624 	0
39.4857 	0.0980086 	0.127693 	1.77624 	0
39.5558 	0.0980086 	0.127693 	1.77624 	0
39.6259 	0.0980086 	0.127693 	1.77624 	0
39.6961 	0.0980086 	0.127693 	1.77624 	0
39.7662 	0.0980086 	0.127693 	1.77624 	0
39.8363 	0.0980086 	0.127693 	1.77624 	0
39.9065 	0.0980086 	0.127693 	1.77624 	0
39.9766 	0.0980086 	0.127693 	1.77624 	0
40.0467 	0.0980086 	0.127693 	1.77624 	0
40.1169 	0.0980086 	0.127693 	1.77624 	0
40.187 	0.0980086 	0.127693 	1.77624 	0
40.2571 	0.0980086 	0.127693 	1.77624 	0
40.3273 	0.0980086 	0.127693 	1.77624 	0
40.3974 	0.0980086 	0.127693 	1.77624 	0
40.4675 	0.0980086 	0.127693 	1.77624 	0
40.5377 	0.0980086 	0.127693 	1.77624 	0
40.6078 	0.0980086 	0.127693 	1.77624 	0
40.6779 	0.0600154 	0.0885689 	1.7784 	-3.66508e-20
40.7481 	0.0600154 	0.0885689 	1.7784 	-3.66508e-20
40.8182 	0.0600154 	0.0885689 	1.7784 	-3.66508e-20
40.8883 	0.0600154 	0.0885689 	1.7784 	-3.66508e-20
40.9585 	0.0600154 	0.0885689 	1.7784 	-3.66508e-20
41.0286 	0.0600154 	0.0885689 	1.7784 	-3.66508e-20
41.0988 	0.0600154 	0.0885689 	1.7784 	-3.66508e-20
41.1689 	0.0600154 	0.0885689 	1.7784 	-3.66508e-20
41.239 	0.0647281 	0.0663217 	1.78632 	6.78219e-20
41.3092 	0.0647281 	0.0663217 	1.78632 	6.78219e-20
41.3793 	0.0647281 	0.0663217 	1.78632 	6.78219e-20
41.4494 	0.0647281 	0.0663217 	1.78632 	6.78219e-20
41.5196 	0.0647281 	0.0663217 	1.78632 	6.78219e-20
41.5897 	0.0647281 	0.0663217 	1.78632 	6.78219e-20
41.6598 	0.0647281 	0.0663217 	1.78632 	6.78219e-20
41.73 	0.0647281 	0.0663217 	1.78632 	6.78219e-20
41.8001 	0.0647281 	0.0663217 	1.78632 	6.78219e-20
41.8702 	0.0647281 	0.0663217 	1.78632 	6.78219e-20
41.9404 	0.0647281 	0.0663217 	1.78632 	6.78219e-20
42.0105 	0.0647281 	0.0663217 	1.78632 	6.78219e-20
42.0806 	0.0647281 	0.0663217 	1.78632 	6.78219e-20
42.1508 	0.0647281 	0.0663217 	1.78632 	6.78219e-20
42.2209 	0.0647281 	0.0663217 	1.78632 	6.78219e-20
42.291 	0.0647281 	0.0663217 	1.78632 	6.78219e-20
42.3612 	0.0647281 	0.0663217 	1.78632 	6.78219e-20
42.4313 	0.0647281 	0.0663217 	1.78632 	6.78219e-20
42.5014 	0.0647281 	0.0663217 	1.78632 	6.78219e-20
42.5716 	0.0647281 	0.0663217 	1.78632 	6.78219e-20
42.6417 	0.0647281 	0.0663217 	1.78632 	6.78219e-20
42.7118 	0.0552422 	0.0529725 	1.76736 	0
42.782 	0.0552422 	0.0529725 	1.76736 	0
42.8521 	0.0552422 	0.0529725 	1.76736 	0
42.9222 	0.0552422 	0.0529725 	1.76736 	0
42.9924 	0.0848951 	0.0467879 	1.76943 	0
43.0625 	0.0848951 	0.0467879 	1.76943 	0
43.1327 	0.0848951 	0.0467879 	1.76943 	0
43.2028 	0.0848951 	0.0467879 	1.76943 	0
43.2729 	0.0848951 	0.0467879 	1.76943 	0
43.3431 	0.0848951 	0.0467879 	1.76943 	0
43.4132 	0.0848951 	0.0467879 	1.76943 	0
43.4833 	0.0848951 	0.0467879 	1.76943 	0
43.5535 	0.0848951 	0.0467879 	1.76943 	0
43.6236 	0.0848951 	0.0467879 	1.76943 	0
43.6937 	0.0848951 	0.0467879 	1.76943 	0