/*--------------------------------*- C++ -*----------------------------------*\
| =========                 |                                                 |
| \\      /  F ield         | OpenFOAM: The Open Source CFD Toolbox           |
|  \\    /   O peration     | Version:  2306                                  |
|   \\  /    A nd           | Website:  www.openfoam.com                      |
|    \\/     M anipulation  |                                                 |
\*---------------------------------------------------------------------------*/
FoamFile
{
    version     2.0;
    format      ascii;
    arch        "LSB;label=32;scalar=64";
    class       volScalarField;
    location    "12";
    object      p;
}
// * * * * * * * * * * * * * * * * * * * * * * * * * * * * * * * * * * * * * //

dimensions      [0 2 -2 0 0 0 0];

internalField   nonuniform List<scalar> 
8800
(
0.43757
0.389559
0.351241
0.32268
0.302168
0.287552
0.277101
0.269733
0.264966
0.262842
0.263869
0.267726
0.274038
0.283038
0.295517
0.31289
0.33718
0.370684
0.413049
0.470145
0.269933
0.277175
0.285706
0.289244
0.287476
0.282132
0.275615
0.269599
0.264933
0.262062
0.261618
0.263827
0.267993
0.273645
0.280221
0.286532
0.290423
0.289731
0.283511
0.274434
0.246441
0.252699
0.25705
0.260609
0.263313
0.264318
0.263422
0.261473
0.259518
0.258484
0.259212
0.261241
0.263637
0.265428
0.2656
0.26375
0.26062
0.256734
0.252046
0.248231
0.240954
0.243736
0.246791
0.249461
0.251421
0.252996
0.254121
0.254482
0.254283
0.254163
0.254611
0.255343
0.255693
0.255195
0.253981
0.25237
0.250173
0.247233
0.244515
0.242996
0.235701
0.237183
0.239412
0.241987
0.244181
0.245793
0.246986
0.247963
0.248709
0.24924
0.24951
0.249454
0.249019
0.248249
0.247098
0.245354
0.243029
0.240544
0.238883
0.238102
0.231005
0.231874
0.233818
0.236228
0.23861
0.240836
0.24262
0.243859
0.244714
0.245312
0.24568
0.245665
0.245147
0.244011
0.242222
0.240076
0.237787
0.235554
0.234267
0.233889
0.228436
0.228881
0.2302
0.231923
0.233608
0.235162
0.236693
0.238179
0.239426
0.240334
0.2407
0.240464
0.239727
0.23868
0.237478
0.236065
0.234466
0.232939
0.232135
0.231976
0.226979
0.227226
0.227984
0.22907
0.230294
0.231662
0.233041
0.234338
0.235529
0.236511
0.237027
0.236989
0.236533
0.235745
0.234717
0.233681
0.232725
0.231875
0.231446
0.23136
0.225066
0.225206
0.225622
0.226281
0.227066
0.228016
0.229187
0.230454
0.231711
0.23283
0.233503
0.233615
0.23332
0.232794
0.232253
0.231741
0.231224
0.230807
0.230595
0.23054
0.222341
0.222422
0.222717
0.223228
0.223869
0.224542
0.225515
0.226622
0.227835
0.229055
0.229963
0.230397
0.230466
0.230321
0.23016
0.22988
0.229586
0.229332
0.229217
0.229186
0.219152
0.219195
0.219423
0.219865
0.220395
0.221231
0.222103
0.223207
0.224509
0.225922
0.227108
0.227832
0.22818
0.228289
0.228192
0.228122
0.227947
0.227793
0.22774
0.227726
0.215678
0.215706
0.215889
0.21627
0.216796
0.21749
0.218386
0.219538
0.220963
0.222626
0.224163
0.225249
0.225929
0.226322
0.226505
0.226556
0.226511
0.226459
0.226452
0.226443
0.211858
0.211883
0.212042
0.212382
0.212894
0.213606
0.214577
0.215869
0.217523
0.219541
0.221512
0.222998
0.224003
0.224649
0.225033
0.225242
0.225334
0.225377
0.225403
0.225394
0.207583
0.207609
0.207771
0.208107
0.208635
0.209409
0.210505
0.21201
0.213996
0.216484
0.218997
0.220961
0.222325
0.223256
0.223858
0.22423
0.224448
0.224571
0.224622
0.224613
0.202756
0.202781
0.202968
0.203336
0.203933
0.204829
0.206125
0.207939
0.210373
0.213471
0.216644
0.219151
0.220985
0.222232
0.223063
0.223599
0.223931
0.224121
0.224195
0.224184
0.197266
0.197296
0.197516
0.197956
0.198669
0.199752
0.201335
0.203571
0.206598
0.210479
0.214493
0.217717
0.220035
0.221648
0.222735
0.223445
0.223893
0.224149
0.224248
0.224235
0.190952
0.190991
0.191267
0.191811
0.192695
0.194043
0.196019
0.198816
0.202614
0.207494
0.21255
0.216611
0.219551
0.221602
0.222988
0.223898
0.224473
0.224802
0.224927
0.224911
0.183599
0.183647
0.183997
0.184691
0.185827
0.187542
0.190037
0.19357
0.198363
0.204509
0.210863
0.215959
0.219648
0.222223
0.223966
0.225112
0.225835
0.226247
0.226404
0.226385
0.174918
0.174979
0.175432
0.176335
0.1778
0.179994
0.18319
0.1877
0.193778
0.201526
0.209492
0.215856
0.220457
0.223668
0.225844
0.227273
0.228173
0.228683
0.228878
0.228854
0.164508
0.16459
0.165184
0.166367
0.168281
0.171133
0.175275
0.181058
0.188788
0.198556
0.208516
0.21643
0.222139
0.226123
0.228826
0.230603
0.231721
0.232351
0.232589
0.232557
0.151824
0.15194
0.152727
0.154304
0.156837
0.160599
0.165991
0.173454
0.183324
0.19563
0.208036
0.217829
0.224879
0.229802
0.233148
0.235357
0.236749
0.237533
0.237825
0.237779
0.136083
0.136248
0.137314
0.139461
0.142881
0.14789
0.15501
0.164735
0.17736
0.192819
0.208184
0.220227
0.228886
0.234943
0.239079
0.241823
0.243557
0.244518
0.244878
0.244821
0.116099
0.116335
0.117842
0.120876
0.125619
0.132471
0.142038
0.154786
0.17093
0.19025
0.209129
0.223815
0.23438
0.241808
0.246916
0.25034
0.25253
0.253752
0.254189
0.254112
0.0899817
0.090343
0.0926238
0.0971544
0.104016
0.113679
0.126737
0.143546
0.164141
0.188096
0.211047
0.228766
0.241548
0.250621
0.256943
0.261243
0.264037
0.265613
0.266178
0.266075
0.0545621
0.05523
0.0590747
0.0663955
0.0768545
0.0909051
0.108963
0.131144
0.157225
0.186577
0.214102
0.235197
0.250491
0.261509
0.269356
0.274839
0.278502
0.280598
0.281339
0.281197
0.00361488
0.00560357
0.0134991
0.0265461
0.0433355
0.0641485
0.0891081
0.118064
0.150599
0.185974
0.218426
0.243129
0.261162
0.274394
0.284107
0.291188
0.296168
0.299196
0.300293
0.300093
-0.0728111
-0.0624983
-0.044495
-0.0212586
0.00505328
0.0348489
0.0682011
0.104929
0.144619
0.186574
0.224419
0.253173
0.274424
0.290412
0.302624
0.312092
0.319338
0.324273
0.326435
0.326637
-0.153837
-0.131629
-0.103002
-0.069407
-0.0333885
0.00545452
0.0472379
0.091889
0.13911
0.188355
0.232608
0.266469
0.291923
0.311572
0.327122
0.339691
0.349881
0.358459
0.362674
0.36305
-0.217621
-0.192846
-0.155775
-0.114006
-0.0694965
-0.0223288
0.0274322
0.0796688
0.13409
0.190184
0.240242
0.278491
0.307311
0.329672
0.347444
0.361832
0.373437
0.382672
0.386663
0.387275
-0.268686
-0.241717
-0.20021
-0.152547
-0.101562
-0.0476323
0.00900137
0.0680187
0.128991
0.19132
0.246484
0.28826
0.319435
0.343334
0.362049
0.376984
0.388959
0.398116
0.402418
0.403035
-0.310001
-0.282354
-0.237415
-0.185419
-0.129507
-0.0702115
-0.00788859
0.0569727
0.123759
0.191632
0.251204
0.295862
0.328782
0.353688
0.372938
0.388085
0.400064
0.409039
0.413514
0.414142
-0.344925
-0.316988
-0.269697
-0.214239
-0.15431
-0.0905357
-0.0233816
0.0465586
0.118517
0.191466
0.255129
0.302373
0.336768
0.362443
0.381997
0.397154
0.409012
0.417766
0.422247
0.422886
-0.375502
-0.347494
-0.29841
-0.240166
-0.176878
-0.109269
-0.0378945
0.0365912
0.113297
0.190955
0.258397
0.308026
0.343778
0.370141
0.389981
0.405186
0.416962
0.425536
0.429981
0.430635
-0.403237
-0.375167
-0.324596
-0.264061
-0.197946
-0.127036
-0.0519125
0.0266709
0.107711
0.189802
0.260981
0.313064
0.350247
0.377381
0.397575
0.412885
0.424617
0.433093
0.437449
0.438103
-0.428951
-0.400767
-0.349008
-0.28649
-0.217947
-0.14417
-0.0657696
0.0165009
0.101626
0.188069
0.263044
0.317717
0.356476
0.384501
0.405147
0.420635
0.432381
0.440751
0.444996
0.445709
-0.45329
-0.424911
-0.372123
-0.30789
-0.237251
-0.160965
-0.0796179
0.00604875
0.0950133
0.185686
0.264543
0.322024
0.362588
0.391693
0.412927
0.428687
0.440506
0.448812
0.452925
0.45366
-0.476532
-0.447932
-0.394188
-0.328589
-0.256072
-0.177554
-0.0935808
-0.00483949
0.0877054
0.182526
0.265408
0.325969
0.368632
0.399055
0.421057
0.437209
0.449168
0.457451
0.461432
0.462129
-0.499028
-0.470092
-0.415537
-0.348726
-0.274566
-0.194103
-0.107798
-0.0162674
0.0796327
0.178489
0.265525
0.329463
0.374574
0.406621
0.429611
0.446309
0.458514
0.466823
0.470656
0.471272
-0.520801
-0.491555
-0.436432
-0.368393
-0.292809
-0.210654
-0.122287
-0.0282395
0.0707533
0.173489
0.264748
0.332366
0.380308
0.414345
0.438601
0.456034
0.468599
0.476982
0.480702
0.481162
-0.541924
-0.512332
-0.456706
-0.387605
-0.310807
-0.227181
-0.137023
-0.0407568
0.0610492
0.167459
0.26294
0.33449
0.385648
0.42209
0.447957
0.466367
0.479438
0.487959
0.491587
0.491856
-0.562468
-0.532552
-0.47637
-0.406379
-0.328557
-0.243671
-0.151975
-0.0537771
0.0505411
0.160353
0.259966
0.33561
0.390342
0.429644
0.457554
0.477245
0.491009
0.499721
0.503244
0.503312
-0.582483
-0.552189
-0.495454
-0.4247
-0.346005
-0.260067
-0.167072
-0.0672342
0.0392711
0.152154
0.2557
0.33548
0.394109
0.436775
0.467256
0.488588
0.503203
0.512119
0.515442
0.515335
-0.601802
-0.571155
-0.513906
-0.442527
-0.363095
-0.276287
-0.182236
-0.0810341
0.0273212
0.142908
0.250064
0.333887
0.396613
0.443146
0.476836
0.500349
0.516008
0.525045
0.528044
0.527719
-0.620393
-0.589423
-0.531721
-0.459799
-0.379764
-0.292264
-0.19737
-0.0950817
0.0147945
0.132664
0.243032
0.330648
0.397449
0.448199
0.485892
0.51249
0.529553
0.538348
0.540645
0.540079
-0.638309
-0.606937
-0.548876
-0.476482
-0.395953
-0.307914
-0.212382
-0.109264
0.00180504
0.121526
0.234603
0.325643
0.396253
0.451286
0.493743
0.524844
0.544472
0.552551
0.552858
0.551899
-0.655402
-0.623741
-0.565307
-0.492513
-0.411604
-0.323162
-0.227173
-0.123466
-0.0115153
0.109631
0.224857
0.318801
0.392784
0.451675
0.499261
0.536568
0.561501
0.570218
0.565958
0.562903
-0.671772
-0.639803
-0.581038
-0.507916
-0.426749
-0.338054
-0.2418
-0.137744
-0.0252305
0.096917
0.213707
0.309903
0.386784
0.448629
0.500717
0.545384
0.579407
0.595936
0.589798
0.571456
-0.687365
-0.655109
-0.596187
-0.522855
-0.441655
-0.352899
-0.256653
-0.152568
-0.0398812
0.0827223
0.200449
0.298105
0.377402
0.440915
0.494895
0.545439
0.587178
0.60601
0.593316
0.571878
-0.702055
-0.66978
-0.610598
-0.53711
-0.456083
-0.367389
-0.271512
-0.167609
-0.0551317
0.0673865
0.185329
0.283331
0.364293
0.428487
0.478021
0.526784
0.562535
0.566802
0.501099
0.458606
-0.715459
-0.684659
-0.623828
-0.550099
-0.469411
-0.381072
-0.286113
-0.182638
-0.0707384
0.0511212
0.168433
0.265627
0.346909
0.412373
0.451433
0.479588
0.499322
0.459101
0.383131
0.334176
-0.761938
-0.697135
-0.635701
-0.563058
-0.482738
-0.395073
-0.300469
-0.197852
-0.0869573
0.0336207
0.14942
0.244846
0.323501
0.393536
0.408923
0.408633
0.381712
0.315473
0.227464
0.17958
-0.724361
-0.709349
-0.652374
-0.582073
-0.501949
-0.415193
-0.322011
-0.22086
-0.111897
0.00601755
0.118013
0.209065
0.279457
0.336959
0.342654
0.218328
0.0993076
0.0163092
-0.0698278
-0.0191602
-0.75168
-0.723784
-0.666799
-0.596181
-0.516795
-0.430766
-0.337981
-0.238049
-0.130753
-0.0152449
0.0932006
0.179572
0.24274
0.271081
0.213457
0.0394128
-0.118156
-0.229547
-0.353358
-0.272399
-0.771449
-0.740598
-0.683017
-0.612014
-0.533068
-0.447578
-0.355487
-0.256981
-0.151707
-0.0391762
0.0650242
0.14527
0.198623
0.197543
0.0694289
-0.161713
-0.358529
-0.509362
-0.681384
-0.611226
-0.789969
-0.757819
-0.69949
-0.627974
-0.549259
-0.464319
-0.373259
-0.276325
-0.173238
-0.0640162
0.0353264
0.109051
0.149913
0.109644
-0.0988279
-0.371118
-0.625353
-0.853476
-1.10724
-1.07123
-0.807077
-0.774996
-0.716161
-0.64434
-0.565858
-0.481558
-0.391668
-0.296417
-0.195678
-0.0900693
0.0039495
0.0710795
0.0957321
0.0083286
-0.262748
-0.571777
-0.881603
-1.15528
-1.51484
-1.83292
-0.82381
-0.792161
-0.733239
-0.661381
-0.583158
-0.499511
-0.410793
-0.317256
-0.218971
-0.117131
-0.028691
0.0313624
0.0381669
-0.100263
-0.410786
-0.737802
-1.06607
-1.32832
-1.47337
-1.72916
-0.840739
-0.809485
-0.750945
-0.679246
-0.601429
-0.51857
-0.431167
-0.339574
-0.244135
-0.146602
-0.0643502
-0.0124037
-0.0258213
-0.229178
-0.543422
-0.866717
-1.1554
-1.32592
-1.36383
-1.39797
-0.85812
-0.827282
-0.769138
-0.697861
-0.620612
-0.538738
-0.45293
-0.363643
-0.271463
-0.178835
-0.103402
-0.0604921
-0.104686
-0.35535
-0.660791
-0.969794
-1.21597
-1.29677
-1.32044
-1.32612
-0.87605
-0.845569
-0.787732
-0.717011
-0.640474
-0.559824
-0.475915
-0.389317
-0.300884
-0.213784
-0.145766
-0.113707
-0.190108
-0.47498
-0.763441
-1.06021
-1.3001
-1.33597
-1.31271
-1.30548
-0.89429
-0.864145
-0.806643
-0.736469
-0.660778
-0.58158
-0.49987
-0.416358
-0.332202
-0.251199
-0.191736
-0.173315
-0.28439
-0.591633
-0.848463
-1.10587
-1.33379
-1.31841
-1.28791
-1.27567
-0.912518
-0.882689
-0.825539
-0.75591
-0.681228
-0.603628
-0.524597
-0.444609
-0.365257
-0.290835
-0.241171
-0.235405
-0.390302
-0.711751
-0.908583
-1.02902
-1.15463
-1.21822
-1.23326
-1.23311
-0.929972
-0.900478
-0.843931
-0.774824
-0.701283
-0.6256
-0.549437
-0.47354
-0.399692
-0.331966
-0.293023
-0.297552
-0.523223
-0.863938
-1.01367
-0.901282
-1.00686
-1.19067
-1.27673
-1.29309
-0.946095
-0.91694
-0.86098
-0.792567
-0.720199
-0.646676
-0.573664
-0.502602
-0.434608
-0.373815
-0.345786
-0.364315
-0.681704
-1.13115
-1.40735
-1.24753
-1.30084
-1.44773
-1.54853
-1.57485
-0.960067
-0.931326
-0.875844
-0.808038
-0.737027
-0.665892
-0.596638
-0.530949
-0.46925
-0.415741
-0.396521
-0.436141
-0.848595
-1.51621
-2.2097
-2.39272
-2.2469
-2.12363
-2.07901
-2.08488
-0.970516
-0.942315
-0.887358
-0.82017
-0.75066
-0.682203
-0.617282
-0.557727
-0.503473
-0.456048
-0.441502
-0.502792
-0.97606
-1.81312
-2.83878
-3.51018
-3.43506
-3.12419
-2.8198
-2.7291
-0.975971
-0.948448
-0.894082
-0.827622
-0.759767
-0.694274
-0.63428
-0.582399
-0.538388
-0.496926
-0.477298
-0.564111
-0.995673
-1.77798
-2.73033
-3.49182
-3.63186
-3.46819
-3.15599
-2.9719
-0.97482
-0.948049
-0.894412
-0.828863
-0.762831
-0.700609
-0.646343
-0.604373
-0.575627
-0.546931
-0.52189
-0.587876
-0.875238
-1.37749
-1.88293
-2.31683
-2.48619
-2.44814
-2.27435
-2.13472
-0.965472
-0.939421
-0.886713
-0.822349
-0.758349
-0.699734
-0.652286
-0.623382
-0.619979
-0.627201
-0.608173
-0.596944
-0.65785
-0.725155
-0.734463
-0.712028
-0.627772
-0.51447
-0.381888
-0.29665
-0.946106
-0.92088
-0.869439
-0.806671
-0.74491
-0.690128
-0.65048
-0.639417
-0.678386
-0.778617
-0.838261
-0.699888
-0.459198
-0.116949
0.34858
0.789207
1.12288
1.33378
1.44535
1.49292
-0.915293
-0.891027
-0.841365
-0.780657
-0.721319
-0.670261
-0.638821
-0.650357
-0.757842
-1.044
-1.27293
-0.938814
-0.406107
0.250609
0.969888
1.55367
1.99386
2.22235
2.31415
2.34207
-0.872536
-0.849309
-0.800799
-0.743323
-0.686485
-0.638378
-0.61333
-0.646445
-0.837397
-1.38257
-1.89147
-1.29097
-0.506869
0.328869
1.07634
1.6266
1.99455
2.16914
2.23702
2.25425
-0.816243
-0.794244
-0.749281
-0.694218
-0.63962
-0.592713
-0.568554
-0.607138
-0.823594
-1.47997
-2.06073
-1.3667
-0.516595
0.323446
0.959949
1.37506
1.62235
1.74378
1.80395
1.8127
-0.745867
-0.725745
-0.684605
-0.633374
-0.580694
-0.532779
-0.502092
-0.520977
-0.679689
-1.13196
-1.3929
-0.848192
-0.170033
0.439466
0.853053
1.11026
1.2621
1.35058
1.3926
1.39836
-0.662568
-0.644245
-0.608421
-0.561671
-0.511302
-0.461684
-0.420206
-0.404156
-0.452316
-0.594241
-0.569363
-0.200766
0.214757
0.54257
0.762759
0.906579
1.00131
1.0628
1.0975
1.10831
-0.570418
-0.557304
-0.524435
-0.482225
-0.435226
-0.385338
-0.335382
-0.29072
-0.258031
-0.21978
-0.103144
0.132478
0.35964
0.521968
0.638533
0.721588
0.782473
0.824931
0.848012
0.854442
-0.458166
-0.451329
-0.428117
-0.394393
-0.354806
-0.310043
-0.260503
-0.207119
-0.148495
-0.0700434
0.0515636
0.20839
0.351438
0.455747
0.531897
0.58617
0.624781
0.652128
0.66844
0.671362
-0.35171
-0.348445
-0.332361
-0.307331
-0.276617
-0.239923
-0.196575
-0.145576
-0.0837504
-0.00123968
0.10446
0.216797
0.31406
0.386293
0.438067
0.47389
0.497975
0.512929
0.520077
0.521605
-0.254683
-0.252974
-0.243215
-0.225912
-0.203541
-0.175516
-0.140461
-0.0966226
-0.0405626
0.034004
0.121553
0.204948
0.273497
0.324147
0.35961
0.383179
0.397929
0.406386
0.410141
0.410404
-0.167209
-0.166869
-0.161652
-0.151398
-0.136984
-0.117404
-0.0910883
-0.055987
-0.00926642
0.0530617
0.123584
0.186782
0.236782
0.272919
0.297493
0.313142
0.322235
0.326858
0.328563
0.328403
-0.0926226
-0.0931288
-0.0919987
-0.0880544
-0.0803899
-0.0680121
-0.0494663
-0.0228769
0.0141195
0.064046
0.119698
0.167713
0.204568
0.23057
0.247661
0.257958
0.263505
0.266001
0.266744
0.266482
-0.0366501
-0.0375118
-0.0387685
-0.0388781
-0.0361369
-0.0292016
-0.0167502
0.00278752
0.0311548
0.0699849
0.112984
0.149288
0.176527
0.195215
0.207145
0.214131
0.217643
0.218973
0.21926
0.218988
0.000955805
0.000107259
-0.00187277
-0.00360171
-0.0034167
-0.000116947
0.00773339
0.0215683
0.0427814
0.0724743
0.105325
0.132609
0.152657
0.166266
0.174766
0.179467
0.181601
0.182233
0.182264
0.182017
0.0242003
0.0235297
0.0217061
0.0198013
0.0192095
0.0208644
0.025808
0.0353631
0.0508773
0.0731855
0.0979989
0.118522
0.133343
0.143108
0.148937
0.152021
0.153261
0.153426
0.153295
0.153083
0.0378308
0.0373602
0.0359959
0.03442
0.0336642
0.034541
0.0379255
0.0447504
0.0560336
0.0725676
0.0911001
0.106312
0.11706
0.12403
0.12814
0.130175
0.130828
0.130735
0.130537
0.130366
0.0455859
0.0452674
0.0443335
0.0431981
0.0425701
0.0430086
0.045228
0.0500798
0.058377
0.0706236
0.0843308
0.0955571
0.103453
0.108493
0.111328
0.112627
0.112933
0.112728
0.112524
0.112389
0.0497895
0.0495705
0.0489317
0.0481329
0.0476806
0.0479838
0.0495319
0.0529463
0.0589098
0.067907
0.0780586
0.0863276
0.0920467
0.0956017
0.0975498
0.0983811
0.0984918
0.0982563
0.0980704
0.0979639
0.0516175
0.0514597
0.0509904
0.0503875
0.0500211
0.0501951
0.0512876
0.053762
0.0581085
0.0646712
0.0720849
0.0781013
0.0822245
0.084761
0.0861017
0.0866206
0.0866229
0.0863935
0.0862329
0.0861485
0.0516726
0.0515566
0.0512004
0.0507302
0.050428
0.0505119
0.0512533
0.0529996
0.0561372
0.0609218
0.0663395
0.070719
0.0736884
0.075474
0.076383
0.0766986
0.0766449
0.0764375
0.0763029
0.0762363
0.0503805
0.0502949
0.050024
0.0496567
0.0494082
0.0494396
0.0499504
0.0511945
0.0534453
0.0569088
0.060835
0.063992
0.0661106
0.0673605
0.0679722
0.0681523
0.0680686
0.0678848
0.067773
0.0677207
0.0480858
0.0480216
0.0478166
0.0475311
0.0473276
0.0473241
0.0476666
0.0485417
0.0501559
0.0526538
0.0554854
0.0577516
0.0592568
0.0601254
0.060529
0.0606216
0.0605271
0.0603694
0.0602781
0.060237
0.0450643
0.0450156
0.0448622
0.0446445
0.0444824
0.0444627
0.0446912
0.0453033
0.0464518
0.0482408
0.0502729
0.0518901
0.0529504
0.0535474
0.0538081
0.0538457
0.0537512
0.0536178
0.0535432
0.0535109
0.0415266
0.041489
0.0413736
0.0412084
0.0410809
0.0410537
0.0412037
0.0416295
0.0424419
0.0437165
0.045165
0.0463102
0.0470498
0.0474541
0.047617
0.0476217
0.0475347
0.0474248
0.0473644
0.0473387
0.0376239
0.0375943
0.0375066
0.0373809
0.0372805
0.0372503
0.0373458
0.0376392
0.0382093
0.0391115
0.0401376
0.0409409
0.0414512
0.0417217
0.0418191
0.0418048
0.0417268
0.0416363
0.0415871
0.0415667
0.0334627
0.0334392
0.0333717
0.0332753
0.0331956
0.0331651
0.0332231
0.0334209
0.0338164
0.0344488
0.0351678
0.0357277
0.0360768
0.0362527
0.0363059
0.0362806
0.0362123
0.0361385
0.036099
0.0360831
0.0291169
0.0290984
0.0290456
0.0289703
0.0289056
0.028875
0.0289066
0.0290374
0.0293089
0.029748
0.030248
0.0306326
0.0308666
0.0309776
0.0310019
0.0309717
0.0309122
0.0308514
0.0308194
0.030807
0.0246375
0.0246229
0.0245815
0.024522
0.0244689
0.0244394
0.0244535
0.0245372
0.0247197
0.02502
0.025361
0.0256207
0.0257737
0.0258405
0.0258474
0.0258168
0.0257663
0.0257168
0.0256911
0.0256814
0.0200613
0.0200499
0.0200172
0.0199701
0.0199268
0.0198996
0.0199023
0.0199535
0.0200729
0.0202733
0.0205019
0.0206737
0.0207711
0.0208084
0.0208041
0.0207741
0.0207318
0.0206921
0.0206717
0.0206642
0.0154142
0.0154056
0.0153803
0.0153433
0.0153084
0.0152842
0.0152802
0.015309
0.0153839
0.0155138
0.0156627
0.0157727
0.0158325
0.0158508
0.0158402
0.0158126
0.0157772
0.0157453
0.0157293
0.0157237
0.0107145
0.0107082
0.0106889
0.0106606
0.0106337
0.0106143
0.0106082
0.0106229
0.010667
0.0107459
0.0108362
0.0109015
0.0109344
0.0109413
0.0109304
0.0109083
0.0108805
0.0108556
0.0108437
0.0108399
0.00597431
0.00597002
0.00595695
0.00593843
0.00592149
0.00590928
0.00590446
0.00591123
0.00593428
0.0059746
0.00602078
0.0060527
0.00606714
0.00606868
0.00606091
0.00604642
0.00602797
0.00601066
0.00600219
0.00599966
0.00120318
0.00120295
0.00120225
0.00119726
0.00119203
0.00118796
0.0011853
0.00118463
0.00118644
0.00119127
0.00119857
0.00120529
0.00120928
0.00121036
0.001209
0.00120552
0.00120083
0.00119534
0.00119213
0.00119212
-0.822769
-0.554843
-0.272666
-0.0517863
0.127957
0.273704
0.398235
0.503211
0.549555
0.533869
-0.36104
-0.190698
-0.0182745
0.129055
0.254006
0.359361
0.445316
0.506805
0.539836
0.551513
-0.0611711
0.0498114
0.163554
0.26511
0.352772
0.426451
0.485035
0.528163
0.558346
0.575128
0.144175
0.219798
0.29939
0.371547
0.43428
0.487344
0.53063
0.564858
0.591188
0.608751
0.297725
0.351551
0.408707
0.461959
0.509088
0.549832
0.584273
0.612639
0.634863
0.652344
0.41974
0.458881
0.504251
0.545876
0.583815
0.617506
0.646629
0.670891
0.689519
0.706882
0.522768
0.555366
0.594048
0.630122
0.663407
0.693424
0.719503
0.740984
0.756669
0.774043
0.618055
0.649785
0.686566
0.721158
0.752867
0.781246
0.805591
0.825084
0.838474
0.855951
0.717514
0.752512
0.790615
0.825827
0.857171
0.884417
0.907226
0.924989
0.936939
0.954796
0.834919
0.874373
0.913562
0.948654
0.978709
1.00407
1.02493
1.04108
1.05275
1.07116
0.981123
1.02111
1.05726
1.0882
1.11426
1.13675
1.15612
1.17193
1.1848
1.20299
1.15679
1.18915
1.21529
1.23796
1.2583
1.27729
1.29512
1.31184
1.32773
1.34598
1.34495
1.36266
1.3784
1.39521
1.41153
1.4262
1.43937
1.45344
1.47061
1.49033
1.52684
1.5379
1.55015
1.56101
1.57033
1.58001
1.59104
1.60271
1.61271
1.62791
1.73812
1.74017
1.72503
1.70982
1.70357
1.70932
1.72794
1.75841
1.79058
1.82134
2.04402
1.90698
1.83081
1.78887
1.77141
1.77546
1.80288
1.85901
1.96248
2.17778
0.33379
0.330436
0.32457
0.314857
0.302037
0.289759
0.2796
0.27181
0.266274
0.263016
0.262502
0.264913
0.269669
0.276567
0.285697
0.29713
0.310051
0.321884
0.329236
0.333897
0.251613
0.257523
0.264558
0.269937
0.27295
0.272819
0.270153
0.266447
0.263006
0.260694
0.260353
0.262264
0.26558
0.269529
0.273079
0.274739
0.273364
0.269053
0.262974
0.255824
0.243643
0.245999
0.249543
0.252729
0.255225
0.257299
0.258503
0.258434
0.257514
0.256594
0.256558
0.257664
0.259077
0.259942
0.259572
0.25799
0.255798
0.253091
0.24963
0.246537
0.238304
0.239365
0.241475
0.244252
0.24658
0.248237
0.249508
0.250536
0.251181
0.25153
0.25184
0.252114
0.252111
0.251594
0.250682
0.249421
0.247559
0.245003
0.242469
0.240931
0.233179
0.233746
0.235242
0.237695
0.240217
0.242458
0.24418
0.245391
0.246274
0.246925
0.247369
0.247541
0.247321
0.24669
0.245512
0.243706
0.241422
0.238971
0.236944
0.236024
0.229438
0.229676
0.230765
0.232773
0.234875
0.236884
0.238809
0.240486
0.24178
0.242696
0.243268
0.24338
0.242949
0.241945
0.240469
0.238736
0.236841
0.23484
0.233236
0.232714
0.227705
0.227818
0.228454
0.229712
0.231137
0.232543
0.233898
0.235239
0.236525
0.237636
0.238356
0.23848
0.238096
0.237374
0.236464
0.235379
0.234145
0.232898
0.231959
0.231679
0.226123
0.226185
0.226533
0.227249
0.22813
0.229338
0.230623
0.231967
0.233256
0.234418
0.235268
0.235573
0.23536
0.234784
0.233975
0.233023
0.232325
0.231659
0.231189
0.231042
0.223788
0.223824
0.224032
0.224484
0.225102
0.225797
0.226687
0.22777
0.22898
0.230191
0.2312
0.23172
0.231782
0.231576
0.231268
0.23096
0.230591
0.230243
0.230006
0.229928
0.220784
0.220798
0.220944
0.221327
0.22187
0.222542
0.223377
0.224405
0.225589
0.226884
0.228099
0.228919
0.229287
0.229334
0.229246
0.229131
0.228896
0.228642
0.228491
0.228455
0.217451
0.217453
0.217559
0.217871
0.21836
0.21898
0.219774
0.220775
0.222015
0.223474
0.224958
0.2261
0.226788
0.227167
0.227317
0.227314
0.227256
0.227136
0.227072
0.227063
0.213819
0.21382
0.213906
0.21417
0.214609
0.21521
0.216015
0.217079
0.218448
0.220132
0.221978
0.223524
0.224569
0.225228
0.225619
0.225816
0.225884
0.225886
0.225892
0.225896
0.209784
0.209779
0.209869
0.210113
0.210535
0.211152
0.212024
0.213221
0.214814
0.216843
0.219148
0.22116
0.222599
0.223564
0.224187
0.224569
0.224785
0.224899
0.224962
0.224976
0.205246
0.205239
0.20534
0.205596
0.206044
0.206726
0.207719
0.209123
0.211034
0.213522
0.216411
0.219007
0.220871
0.222205
0.22309
0.223662
0.224018
0.224229
0.224337
0.22436
0.200106
0.200097
0.20021
0.200512
0.201029
0.201829
0.203016
0.204717
0.207065
0.210156
0.213788
0.217078
0.219535
0.221238
0.222407
0.22318
0.223675
0.223976
0.224127
0.224158
0.194227
0.194214
0.194354
0.194718
0.195351
0.19633
0.197791
0.199901
0.202828
0.2067
0.211272
0.215441
0.218536
0.220726
0.222228
0.223229
0.223876
0.224272
0.224469
0.224509
0.187423
0.187407
0.187587
0.18805
0.188843
0.190064
0.191898
0.194556
0.198244
0.20312
0.208874
0.214121
0.218014
0.220777
0.222675
0.223944
0.22477
0.225276
0.225525
0.225575
0.179448
0.179428
0.179663
0.180257
0.181263
0.182823
0.185171
0.188553
0.193222
0.19938
0.206618
0.213196
0.218067
0.221523
0.223899
0.225491
0.226529
0.227169
0.227483
0.227544
0.169966
0.169941
0.170252
0.171025
0.172331
0.174353
0.17738
0.181705
0.187659
0.195454
0.204548
0.212764
0.218828
0.223126
0.226081
0.228062
0.22936
0.230165
0.23056
0.230634
0.158502
0.158472
0.158893
0.159922
0.161639
0.164288
0.168218
0.173818
0.181453
0.19133
0.202728
0.212946
0.220458
0.225777
0.229434
0.231888
0.233499
0.234504
0.234995
0.235089
0.144378
0.14434
0.144931
0.14633
0.148636
0.152165
0.157367
0.164682
0.174498
0.187013
0.201249
0.213885
0.223139
0.229692
0.234204
0.237235
0.239227
0.240472
0.241081
0.241199
0.126615
0.126578
0.127439
0.129391
0.132564
0.13738
0.144365
0.154
0.166691
0.182537
0.200224
0.215742
0.227066
0.2351
0.240658
0.24441
0.246885
0.248443
0.249221
0.249366
0.103746
0.103737
0.105047
0.107863
0.112373
0.119121
0.128684
0.141549
0.158013
0.177999
0.199803
0.218682
0.232423
0.24222
0.249061
0.253729
0.256837
0.258804
0.259788
0.259974
0.0733342
0.0734188
0.0755481
0.0798944
0.0866844
0.0965366
0.109965
0.127298
0.148614
0.173618
0.20019
0.222877
0.239367
0.251221
0.259625
0.265471
0.269439
0.271989
0.273262
0.273497
0.0309049
0.0312802
0.0352919
0.0428569
0.0539102
0.0689409
0.0881212
0.11148
0.138844
0.169717
0.201612
0.228456
0.247965
0.262153
0.272429
0.279792
0.28496
0.28841
0.290148
0.290445
-0.0316543
-0.0296823
-0.0202491
-0.00576258
0.0132269
0.0364847
0.0636969
0.0947182
0.129231
0.166651
0.204229
0.235414
0.258093
0.274807
0.287222
0.296473
0.303294
0.308056
0.31063
0.31098
-0.106736
-0.10314
-0.0854785
-0.0598289
-0.0302994
0.00241122
0.0383663
0.0775509
0.119721
0.164393
0.208638
0.245331
0.27237
0.29279
0.30851
0.320778
0.330492
0.337574
0.340568
0.341841
-0.18336
-0.173494
-0.14737
-0.11155
-0.0724828
-0.030616
0.0139429
0.0611751
0.110939
0.162844
0.213781
0.255963
0.287236
0.311167
0.329962
0.345013
0.357164
0.366498
0.371759
0.373886
-0.241213
-0.230246
-0.199094
-0.156862
-0.110443
-0.0610283
-0.00893725
0.0456729
0.10252
0.161155
0.218183
0.265117
0.29975
0.32613
0.346712
0.363024
0.376033
0.386013
0.391983
0.394268
-0.287714
-0.276313
-0.241837
-0.194977
-0.14319
-0.0879405
-0.0296917
0.031202
0.0942942
0.158993
0.221424
0.272296
0.309421
0.337339
0.358826
0.375653
0.388933
0.399079
0.405125
0.407384
-0.325947
-0.314622
-0.278105
-0.227651
-0.171683
-0.11181
-0.0484986
0.01776
0.0863359
0.156425
0.223694
0.278066
0.317297
0.346422
0.36854
0.38562
0.398912
0.408996
0.415008
0.417197
-0.35888
-0.347676
-0.30977
-0.256579
-0.197144
-0.133338
-0.0657029
0.00519885
0.0786598
0.153717
0.225514
0.283086
0.324175
0.354299
0.376874
0.394089
0.407345
0.417346
0.423386
0.425457
-0.388184
-0.377103
-0.338152
-0.282744
-0.220484
-0.153362
-0.0819488
-0.00687761
0.0710415
0.150665
0.226682
0.287337
0.330266
0.361407
0.38448
0.40189
0.415175
0.425101
0.431155
0.433134
-0.415059
-0.404051
-0.364292
-0.306985
-0.242327
-0.172354
-0.0976427
-0.0188779
0.0630732
0.147017
0.227233
0.291067
0.33595
0.368212
0.391872
0.409538
0.422904
0.432816
0.438867
0.440746
-0.440199
-0.429231
-0.388728
-0.32981
-0.263108
-0.190672
-0.113084
-0.0309967
0.0547172
0.142812
0.227206
0.294348
0.341371
0.374929
0.39931
0.417333
0.430834
0.440739
0.446814
0.448575
-0.464071
-0.45309
-0.411946
-0.351661
-0.283186
-0.208572
-0.128408
-0.0433117
0.04587
0.137905
0.226484
0.297149
0.346581
0.381682
0.406972
0.425479
0.4392
0.449171
0.455186
0.456887
-0.487028
-0.475991
-0.434232
-0.37278
-0.302743
-0.226208
-0.143769
-0.0559848
0.036384
0.132194
0.224969
0.2994
0.351562
0.388501
0.414936
0.434091
0.448133
0.458207
0.464182
0.465847
-0.509271
-0.498091
-0.455707
-0.393353
-0.321894
-0.243708
-0.159271
-0.0690706
0.0262243
0.125615
0.222566
0.300971
0.356212
0.395339
0.423209
0.44323
0.45774
0.468008
0.47393
0.475567
-0.530811
-0.519478
-0.476613
-0.413392
-0.340692
-0.261073
-0.174892
-0.08256
0.0153712
0.118095
0.219151
0.3017
0.36037
0.402083
0.431741
0.45289
0.468047
0.478603
0.48451
0.486082
-0.551777
-0.540234
-0.496982
-0.432874
-0.359148
-0.278298
-0.190615
-0.0964317
0.0038408
0.109627
0.214617
0.301399
0.363818
0.408581
0.440446
0.463026
0.479019
0.489968
0.495896
0.497346
-0.572106
-0.560374
-0.516729
-0.451849
-0.377246
-0.295351
-0.206392
-0.110628
-0.00831533
0.100214
0.208897
0.299893
0.3663
0.414566
0.449133
0.473542
0.490608
0.502049
0.508005
0.509273
-0.59184
-0.579885
-0.535815
-0.470287
-0.394942
-0.31217
-0.222151
-0.125063
-0.021023
0.0898994
0.201952
0.297021
0.367507
0.419628
0.457483
0.484276
0.502741
0.514727
0.520624
0.521662
-0.610808
-0.598726
-0.554207
-0.488144
-0.41217
-0.328674
-0.237811
-0.139653
-0.034189
0.078764
0.193776
0.292638
0.367155
0.423356
0.465132
0.495092
0.515451
0.527961
0.533519
0.534203
-0.629123
-0.616842
-0.571911
-0.505392
-0.42889
-0.344817
-0.253281
-0.1543
-0.0477056
0.0669146
0.184428
0.286665
0.365004
0.425322
0.471515
0.505682
0.528951
0.542047
0.546506
0.546439
-0.646655
-0.634163
-0.58891
-0.521977
-0.44503
-0.360516
-0.268477
-0.16888
-0.0614473
0.0544512
0.174
0.279092
0.360861
0.425017
0.475789
0.515294
0.543405
0.558281
0.56029
0.557764
-0.663447
-0.650802
-0.605148
-0.53785
-0.460551
-0.375711
-0.28332
-0.183312
-0.0752928
0.0415376
0.162625
0.269937
0.354639
0.422017
0.476837
0.522298
0.557803
0.578548
0.579913
0.568028
-0.679443
-0.666685
-0.620717
-0.553146
-0.475641
-0.390665
-0.29813