0.490941 	0.874221 	0.00632976 	3.00322 	0
0.561075 	0.874221 	0.00632976 	3.00322 	0
0.63121 	0.874221 	0.00632976 	3.00322 	0
0.701344 	0.874221 	0.00632976 	3.00322 	0
0.771478 	0.874221 	0.00632976 	3.00322 	0
0.841613 	0.874221 	0.00632976 	3.00322 	0
0.911747 	0.874221 	0.00632976 	3.00322 	0
0.981881 	0.874221 	0.00632976 	3.00322 	0
1.05202 	0.874221 	0.00632976 	3.00322 	0
1.12215 	0.874221 	0.00632976 	3.00322 	0
1.19228 	0.874221 	0.00632976 	3.00322 	0
1.26242 	0.84807 	0.0117227 	3.00715 	0
1.33255 	0.84807 	0.0117227 	3.00715 	0
1.40269 	0.84807 	0.0117227 	3.00715 	0
1.47282 	0.84807 	0.0117227 	3.00715 	0
1.54296 	0.84807 	0.0117227 	3.00715 	0
1.61309 	0.84807 	0.0117227 	3.00715 	0
1.68323 	0.84807 	0.0117227 	3.00715 	0
1.75336 	0.84807 	0.0117227 	3.00715 	0
1.82349 	0.798818 	0.0141511 	3.02547 	3.02739e-19
1.89363 	0.798818 	0.0141511 	3.02547 	3.02739e-19
1.96376 	0.798818 	0.0141511 	3.02547 	3.02739e-19
2.0339 	0.798818 	0.0141511 	3.02547 	3.02739e-19
2.10403 	0.798818 	0.0141511 	3.02547 	3.02739e-19
2.17417 	0.798818 	0.0141511 	3.02547 	3.02739e-19
2.2443 	0.798818 	0.0141511 	3.02547 	3.02739e-19
2.31443 	0.798818 	0.0141511 	3.02547 	3.02739e-19
2.38457 	0.798818 	0.0141511 	3.02547 	3.02739e-19
2.4547 	0.798818 	0.0141511 	3.02547 	3.02739e-19
2.52484 	0.798818 	0.0141511 	3.02547 	3.02739e-19
2.59497 	0.764585 	0.00685005 	3.03601 	-4.7405e-19
2.66511 	0.764585 	0.00685005 	3.03601 	-4.7405e-19
2.73524 	0.764585 	0.00685005 	3.03601 	-4.7405e-19
2.80538 	0.764585 	0.00685005 	3.03601 	-4.7405e-19
2.87551 	0.764585 	0.00685005 	3.03601 	-4.7405e-19
2.94564 	0.764585 	0.00685005 	3.03601 	-4.7405e-19
3.01578 	0.764585 	0.00685005 	3.03601 	-4.7405e-19
3.08591 	0.764585 	0.00685005 	3.03601 	-4.7405e-19
3.15605 	0.764585 	0.00685005 	3.03601 	-4.7405e-19
3.22618 	0.764585 	0.00685005 	3.03601 	-4.7405e-19
3.29632 	0.731852 	0.0195376 	3.04423 	4.85598e-19
3.36645 	0.731852 	0.0195376 	3.04423 	4.85598e-19
3.43659 	0.731852 	0.0195376 	3.04423 	4.85598e-19
3.50672 	0.731852 	0.0195376 	3.04423 	4.85598e-19
3.57685 	0.731852 	0.0195376 	3.04423 	4.85598e-19
3.64699 	0.731852 	0.0195376 	3.04423 	4.85598e-19
3.71712 	0.731852 	0.0195376 	3.04423 	4.85598e-19
3.78726 	0.731852 	0.0195376 	3.04423 	4.85598e-19
3.85739 	0.731852 	0.0195376 	3.04423 	4.85598e-19
3.92753 	0.731852 	0.0195376 	3.04423 	4.85598e-19
3.99766 	0.731852 	0.0195376 	3.04423 	4.85598e-19
4.06779 	0.713176 	0.00417338 	3.04964 	-1.34353e-20
4.13793 	0.713176 	0.00417338 	3.04964 	-1.34353e-20
4.20806 	0.713176 	0.00417338 	3.04964 	-1.34353e-20
4.2782 	0.713176 	0.00417338 	3.04964 	-1.34353e-20
4.34833 	0.713176 	0.00417338 	3.04964 	-1.34353e-20
4.41847 	0.713176 	0.00417338 	3.04964 	-1.34353e-20
4.4886 	0.687737 	0.0161562 	3.05817 	0
4.55874 	0.687737 	0.0161562 	3.05817 	0
4.62887 	0.687737 	0.0161562 	3.05817 	0
4.699 	0.687737 	0.0161562 	3.05817 	0
4.76914 	0.687737 	0.0161562 	3.05817 	0
4.83927 	0.687737 	0.0161562 	3.05817 	0
4.90941 	0.687737 	0.0161562 	3.05817 	0
4.97954 	0.687737 	0.0161562 	3.05817 	0
5.04968 	0.687737 	0.0161562 	3.05817 	0
5.11981 	0.687737 	0.0161562 	3.05817 	0
5.18994 	0.665202 	0.00580902 	3.06517 	-6.22644e-21
5.26008 	0.665202 	0.00580902 	3.06517 	-6.22644e-21
5.33021 	0.665202 	0.00580902 	3.06517 	-6.22644e-21
5.40035 	0.665202 	0.00580902 	3.06517 	-6.22644e-21
5.47048 	0.665202 	0.00580902 	3.06517 	-6.22644e-21
5.54062 	0.665202 	0.00580902 	3.06517 	-6.22644e-21
5.61075 	0.665202 	0.00580902 	3.06517 	-6.22644e-21
5.68089 	0.637634 	0.0107763 	3.07363 	0
5.75102 	0.637634 	0.0107763 	3.07363 	0
5.82115 	0.637634 	0.0107763 	3.07363 	0
5.89129 	0.637634 	0.0107763 	3.07363 	0
5.96142 	0.637634 	0.0107763 	3.07363 	0
6.03156 	0.637634 	0.0107763 	3.07363 	0
6.10169 	0.637634 	0.0107763 	3.07363 	0
6.17183 	0.637634 	0.0107763 	3.07363 	0
6.24196 	0.637634 	0.0107763 	3.07363 	0
6.3121 	0.608106 	0.00734878 	3.08237 	0
6.38223 	0.608106 	0.00734878 	3.08237 	0
6.45236 	0.608106 	0.00734878 	3.08237 	0
6.5225 	0.608106 	0.00734878 	3.08237 	0
6.59263 	0.608106 	0.00734878 	3.08237 	0
6.66277 	0.608106 	0.00734878 	3.08237 	0
6.7329 	0.608106 	0.00734878 	3.08237 	0
6.80304 	0.608106 	0.00734878 	3.08237 	0
6.87317 	0.582133 	0.00615172 	3.09118 	1.98119e-19
6.9433 	0.582133 	0.00615172 	3.09118 	1.98119e-19
7.01344 	0.582133 	0.00615172 	3.09118 	1.98119e-19
7.08357 	0.582133 	0.00615172 	3.09118 	1.98119e-19
7.15371 	0.582133 	0.00615172 	3.09118 	1.98119e-19
7.22384 	0.582133 	0.00615172 	3.09118 	1.98119e-19
7.29398 	0.582133 	0.00615172 	3.09118 	1.98119e-19
7.36411 	0.582133 	0.00615172 	3.09118 	1.98119e-19
7.43425 	0.582133 	0.00615172 	3.09118 	1.98119e-19
7.50438 	0.55037 	0.00910392 	3.09898 	-1.45437e-18
7.57451 	0.55037 	0.00910392 	3.09898 	-1.45437e-18
7.64465 	0.55037 	0.00910392 	3.09898 	-1.45437e-18
7.71478 	0.55037 	0.00910392 	3.09898 	-1.45437e-18
7.78492 	0.55037 	0.00910392 	3.09898 	-1.45437e-18
7.85505 	0.55037 	0.00910392 	3.09898 	-1.45437e-18
7.92519 	0.55037 	0.00910392 	3.09898 	-1.45437e-18
7.99532 	0.55037 	0.00910392 	3.09898 	-1.45437e-18
8.06545 	0.532297 	0.00256295 	3.10622 	1.41334e-18
8.13559 	0.532297 	0.00256295 	3.10622 	1.41334e-18
8.20572 	0.532297 	0.00256295 	3.10622 	1.41334e-18
8.27586 	0.532297 	0.00256295 	3.10622 	1.41334e-18
8.34599 	0.532297 	0.00256295 	3.10622 	1.41334e-18
8.41613 	0.532297 	0.00256295 	3.10622 	1.41334e-18
8.48626 	0.532297 	0.00256295 	3.10622 	1.41334e-18
8.5564 	0.532297 	0.00256295 	3.10622 	1.41334e-18
8.62653 	0.532297 	0.00256295 	3.10622 	1.41334e-18
8.69666 	0.502248 	0.0175598 	3.11764 	1.25978e-18
8.7668 	0.502248 	0.0175598 	3.11764 	1.25978e-18
8.83693 	0.502248 	0.0175598 	3.11764 	1.25978e-18
8.90707 	0.502248 	0.0175598 	3.11764 	1.25978e-18
8.9772 	0.502248 	0.0175598 	3.11764 	1.25978e-18
9.04734 	0.502248 	0.0175598 	3.11764 	1.25978e-18
9.11747 	0.502248 	0.0175598 	3.11764 	1.25978e-18
9.18761 	0.502248 	0.0175598 	3.11764 	1.25978e-18
9.25774 	0.470932 	0.00262118 	3.11783 	-1.17843e-18
9.32787 	0.470932 	0.00262118 	3.11783 	-1.17843e-18
9.39801 	0.470932 	0.00262118 	3.11783 	-1.17843e-18
9.46814 	0.470932 	0.00262118 	3.11783 	-1.17843e-18
9.53828 	0.470932 	0.00262118 	3.11783 	-1.17843e-18
9.60841 	0.470932 	0.00262118 	3.11783 	-1.17843e-18
9.67855 	0.470932 	0.00262118 	3.11783 	-1.17843e-18
9.74868 	0.470932 	0.00262118 	3.11783 	-1.17843e-18
9.81881 	0.454084 	0.0171059 	3.12962 	-3.57123e-19
9.88895 	0.454084 	0.0171059 	3.12962 	-3.57123e-19
9.95908 	0.454084 	0.0171059 	3.12962 	-3.57123e-19
10.0292 	0.454084 	0.0171059 	3.12962 	-3.57123e-19
10.0994 	0.454084 	0.0171059 	3.12962 	-3.57123e-19
10.1695 	0.454084 	0.0171059 	3.12962 	-3.57123e-19
10.2396 	0.454084 	0.0171059 	3.12962 	-3.57123e-19
10.3098 	0.454084 	0.0171059 	3.12962 	-3.57123e-19
10.3799 	0.454084 	0.0171059 	3.12962 	-3.57123e-19
10.45 	0.454084 	0.0171059 	3.12962 	-3.57123e-19
10.5202 	0.454084 	0.0171059 	3.12962 	-3.57123e-19
10.5903 	0.454084 	0.0171059 	3.12962 	-3.57123e-19
10.6604 	0.479528 	0.0152262 	3.12512 	5.25634e-19
10.7306 	0.423377 	0.0376185 	3.14071 	0
10.8007 	0.423377 	0.0376185 	3.14071 	0
10.8708 	0.423377 	0.0376185 	3.14071 	0
10.941 	0.423377 	0.0376185 	3.14071 	0
11.0111 	0.423377 	0.0376185 	3.14071 	0
11.0812 	0.423377 	0.0376185 	3.14071 	0
11.1514 	0.423377 	0.0376185 	3.14071 	0
11.2215 	0.423377 	0.0376185 	3.14071 	0
11.2916 	0.423377 	0.0376185 	3.14071 	0
11.3618 	0.423377 	0.0376185 	3.14071 	0
11.4319 	0.423377 	0.0376185 	3.14071 	0
11.502 	0.423377 	0.0376185 	3.14071 	0
11.5722 	0.423377 	0.0376185 	3.14071 	0
11.6423 	0.423377 	0.0376185 	3.14071 	0
11.7124 	0.429675 	0.0293628 	3.12791 	0
11.7826 	0.360731 	0.0771885 	3.1671 	5.2787e-19
11.8527 	0.360731 	0.0771885 	3.1671 	5.2787e-19
11.9228 	0.360731 	0.0771885 	3.1671 	5.2787e-19
11.993 	0.360731 	0.0771885 	3.1671 	5.2787e-19
12.0631 	0.360731 	0.0771885 	3.1671 	5.2787e-19
12.1332 	0.360731 	0.0771885 	3.1671 	5.2787e-19
12.2034 	0.256233 	0.0729806 	3.19183 	-2.31187e-19
12.2735 	0.256233 	0.0729806 	3.19183 	-2.31187e-19
12.3437 	0.256233 	0.0729806 	3.19183 	-2.31187e-19
12.4138 	0.256233 	0.0729806 	3.19183 	-2.31187e-19
12.4839 	0.256233 	0.0729806 	3.19183 	-2.31187e-19
12.5541 	0.256233 	0.0729806 	3.19183 	-2.31187e-19
12.6242 	0.256233 	0.0729806 	3.19183 	-2.31187e-19
12.6943 	0.256233 	0.0729806 	3.19183 	-2.31187e-19
12.7645 	0.256233 	0.0729806 	3.19183 	-2.31187e-19
12.8346 	0.133533 	0.0393979 	3.18234 	1.19477e-19
12.9047 	0.104352 	0.134022 	3.23362 	-1.49288e-20
12.9749 	0.104352 	0.134022 	3.23362 	-1.49288e-20
13.045 	0.104352 	0.134022 	3.23362 	-1.49288e-20
13.1151 	0.104352 	0.134022 	3.23362 	-1.49288e-20
13.1853 	0.104352 	0.134022 	3.23362 	-1.49288e-20
13.2554 	0.104352 	0.134022 	3.23362 	-1.49288e-20
13.3255 	0.104352 	0.134022 	3.23362 	-1.49288e-20
13.3957 	0.314804 	0.136297 	3.20995 	7.03835e-19
13.4658 	0.314804 	0.136297 	3.20995 	7.03835e-19
13.5359 	0.314804 	0.136297 	3.20995 	7.03835e-19
13.6061 	0.314804 	0.136297 	3.20995 	7.03835e-19
13.6762 	0.314804 	0.136297 	3.20995 	7.03835e-19
13.7463 	0.314804 	0.136297 	3.20995 	7.03835e-19
13.8165 	0.344475 	0.126894 	2.89744 	-6.4031e-19
13.8866 	0.489001 	0.135919 	3.00113 	8.33673e-20
13.9567 	0.489001 	0.135919 	3.00113 	8.33673e-20
14.0269 	0.00274135 	0.243996 	3.057 	-5.76969e-19
14.097 	0.00274135 	0.243996 	3.057 	-5.76969e-19
14.1671 	0.00274135 	0.243996 	3.057 	-5.76969e-19
14.2373 	0.00274135 	0.243996 	3.057 	-5.76969e-19
14.3074 	0.00274135 	0.243996 	3.057 	-5.76969e-19
14.3776 	0.00274135 	0.243996 	3.057 	-5.76969e-19
14.4477 	0.00274135 	0.243996 	3.057 	-5.76969e-19
14.5178 	0.00274135 	0.243996 	3.057 	-5.76969e-19
14.588 	0.00274135 	0.243996 	3.057 	-5.76969e-19
14.6581 	0.00274135 	0.243996 	3.057 	-5.76969e-19
14.7282 	0.00274135 	0.243996 	3.057 	-5.76969e-19
14.7984 	0.00274135 	0.243996 	3.057 	-5.76969e-19
14.8685 	0.00274135 	0.243996 	3.057 	-5.76969e-19
14.9386 	-0.115146 	0.317741 	3.19355 	0
15.0088 	-0.115146 	0.317741 	3.19355 	0
15.0789 	-0.115146 	0.317741 	3.19355 	0
15.149 	-0.115146 	0.317741 	3.19355 	0
15.2192 	-0.115146 	0.317741 	3.19355 	0
15.2893 	-0.615608 	0.330538 	3.41097 	-4.10751e-19
15.3594 	-0.615608 	0.330538 	3.41097 	-4.10751e-19
15.4296 	-0.615608 	0.330538 	3.41097 	-4.10751e-19
15.4997 	-0.615608 	0.330538 	3.41097 	-4.10751e-19
15.5698 	-0.615608 	0.330538 	3.41097 	-4.10751e-19
15.64 	-0.615608 	0.330538 	3.41097 	-4.10751e-19
15.7101 	-1.10748 	0.382919 	3.48033 	0
15.7802 	-1.10748 	0.382919 	3.48033 	0
15.8504 	-0.998676 	0.643715 	3.53489 	1.57114e-18
15.9205 	-0.998676 	0.643715 	3.53489 	1.57114e-18
15.9906 	-0.998676 	0.643715 	3.53489 	1.57114e-18
16.0608 	-0.998676 	0.643715 	3.53489 	1.57114e-18
16.1309 	-0.998676 	0.643715 	3.53489 	1.57114e-18
16.201 	-0.998676 	0.643715 	3.53489 	1.57114e-18
16.2712 	-0.998676 	0.643715 	3.53489 	1.57114e-18
16.3413 	-0.998676 	0.643715 	3.53489 	1.57114e-18
16.4114 	-0.998676 	0.643715 	3.53489 	1.57114e-18
16.4816 	-0.998676 	0.643715 	3.53489 	1.57114e-18
16.5517 	-0.998676 	0.643715 	3.53489 	1.57114e-18
16.6219 	-0.998676 	0.643715 	3.53489 	1.57114e-18
16.692 	-0.998676 	0.643715 	3.53489 	1.57114e-18
16.7621 	-0.998676 	0.643715 	3.53489 	1.57114e-18
16.8323 	-0.508846 	0.86197 	3.09745 	2.7983e-19
16.9024 	-0.508846 	0.86197 	3.09745 	2.7983e-19
16.9725 	-0.508846 	0.86197 	3.09745 	2.7983e-19
17.0427 	-0.508846 	0.86197 	3.09745 	2.7983e-19
17.1128 	-0.508846 	0.86197 	3.09745 	2.7983e-19
17.1829 	-0.508846 	0.86197 	3.09745 	2.7983e-19
17.2531 	-0.508846 	0.86197 	3.09745 	2.7983e-19
17.3232 	-0.508846 	0.86197 	3.09745 	2.7983e-19
17.3933 	-0.508846 	0.86197 	3.09745 	2.7983e-19
17.4635 	-0.508846 	0.86197 	3.09745 	2.7983e-19
17.5336 	-0.384854 	0.928402 	2.97272 	-2.55625e-19
17.6037 	-0.384854 	0.928402 	2.97272 	-2.55625e-19
17.6739 	-0.384854 	0.928402 	2.97272 	-2.55625e-19
17.744 	-0.481012 	1.06918 	3.09186 	3.53982e-19
17.8141 	-0.481012 	1.06918 	3.09186 	3.53982e-19
17.8843 	-0.481012 	1.06918 	3.09186 	3.53982e-19
17.9544 	-0.481012 	1.06918 	3.09186 	3.53982e-19
18.0245 	-0.481012 	1.06918 	3.09186 	3.53982e-19
18.0947 	-0.481012 	1.06918 	3.09186 	3.53982e-19
18.1648 	-0.481012 	1.06918 	3.09186 	3.53982e-19
18.2349 	-0.481012 	1.06918 	3.09186 	3.53982e-19
18.3051 	-0.481012 	1.06918 	3.09186 	3.53982e-19
18.3752 	-0.218881 	1.03724 	2.73763 	-2.68239e-19
18.4453 	-0.218881 	1.03724 	2.73763 	-2.68239e-19
18.5155 	-0.218881 	1.03724 	2.73763 	-2.68239e-19
18.5856 	-0.218881 	1.03724 	2.73763 	-2.68239e-19
18.6557 	-0.218881 	1.03724 	2.73763 	-2.68239e-19
18.7259 	-0.218881 	1.03724 	2.73763 	-2.68239e-19
18.796 	-0.218881 	1.03724 	2.73763 	-2.68239e-19
18.8662 	-0.194871 	1.0718 	2.73305 	2.11818e-19
18.9363 	-0.194871 	1.0718 	2.73305 	2.11818e-19
19.0064 	-0.194871 	1.0718 	2.73305 	2.11818e-19
19.0766 	-0.194871 	1.0718 	2.73305 	2.11818e-19
19.1467 	-0.194871 	1.0718 	2.73305 	2.11818e-19
19.2168 	-0.194871 	1.0718 	2.73305 	2.11818e-19
19.287 	-0.194871 	1.0718 	2.73305 	2.11818e-19
19.3571 	-0.194871 	1.0718 	2.73305 	2.11818e-19
19.4272 	-0.194871 	1.0718 	2.73305 	2.11818e-19
19.4974 	-0.194871 	1.0718 	2.73305 	2.11818e-19
19.5675 	-0.194871 	1.0718 	2.73305 	2.11818e-19
19.6376 	-0.194871 	1.0718 	2.73305 	2.11818e-19
19.7078 	-0.194871 	1.0718 	2.73305 	2.11818e-19
19.7779 	-0.0744003 	1.09881 	2.40807 	-3.46465e-20
19.848 	-0.0744003 	1.09881 	2.40807 	-3.46465e-20
19.9182 	-0.0744003 	1.09881 	2.40807 	-3.46465e-20
19.9883 	-0.0744003 	1.09881 	2.40807 	-3.46465e-20
20.0584 	-0.0744003 	1.09881 	2.40807 	-3.46465e-20
20.1286 	-0.0744003 	1.09881 	2.40807 	-3.46465e-20
20.1987 	-0.0744003 	1.09881 	2.40807 	-3.46465e-20
20.2688 	-0.137428 	1.10845 	2.39375 	-1.68584e-19
20.339 	-0.137428 	1.10845 	2.39375 	-1.68584e-19
20.4091 	-0.137428 	1.10845 	2.39375 	-1.68584e-19
20.4792 	-0.137428 	1.10845 	2.39375 	-1.68584e-19
20.5494 	-0.137428 	1.10845 	2.39375 	-1.68584e-19
20.6195 	-0.137428 	1.10845 	2.39375 	-1.68584e-19
20.6896 	-0.137428 	1.10845 	2.39375 	-1.68584e-19
20.7598 	-0.137428 	1.10845 	2.39375 	-1.68584e-19
20.8299 	-0.137428 	1.10845 	2.39375 	-1.68584e-19
20.9 	-0.137428 	1.10845 	2.39375 	-1.68584e-19
20.9702 	-0.137428 	1.10845 	2.39375 	-1.68584e-19
21.0403 	-0.137428 	1.10845 	2.39375 	-1.68584e-19
21.1105 	-0.137428 	1.10845 	2.39375 	-1.68584e-19
21.1806 	-0.137428 	1.10845 	2.39375 	-1.68584e-19
21.2507 	-0.137428 	1.10845 	2.39375 	-1.68584e-19
21.3209 	-0.137428 	1.10845 	2.39375 	-1.68584e-19
21.391 	-0.137428 	1.10845 	2.39375 	-1.68584e-19
21.4611 	-0.143524 	0.977563 	1.85373 	6.61937e-20
21.5313 	-0.143524 	0.977563 	1.85373 	6.61937e-20
21.6014 	-0.143524 	0.977563 	1.85373 	6.61937e-20
21.6715 	-0.557026 	0.982689 	1.71559 	4.12218e-19
21.7417 	-0.557026 	0.982689 	1.71559 	4.12218e-19
21.8118 	-0.557026 	0.982689 	1.71559 	4.12218e-19
21.8819 	-0.557026 	0.982689 	1.71559 	4.12218e-19
21.9521 	-0.557026 	0.982689 	1.71559 	4.12218e-19
22.0222 	-0.663304 	1.0748 	2.62207 	-6.55222e-19
22.0923 	-0.663304 	1.0748 	2.62207 	-6.55222e-19
22.1625 	-0.663304 	1.0748 	2.62207 	-6.55222e-19
22.2326 	-0.663304 	1.0748 	2.62207 	-6.55222e-19
22.3027 	-0.663304 	1.0748 	2.62207 	-6.55222e-19
22.3729 	-0.663304 	1.0748 	2.62207 	-6.55222e-19
22.443 	-0.663304 	1.0748 	2.62207 	-6.55222e-19
22.5131 	-0.663304 	1.0748 	2.62207 	-6.55222e-19
22.5833 	-0.663304 	1.0748 	2.62207 	-6.55222e-19
22.6534 	-0.663304 	1.0748 	2.62207 	-6.55222e-19
22.7235 	-0.663304 	1.0748 	2.62207 	-6.55222e-19
22.7937 	-0.663304 	1.0748 	2.62207 	-6.55222e-19
22.8638 	-0.663304 	1.0748 	2.62207 	-6.55222e-19
22.9339 	-0.663304 	1.0748 	2.62207 	-6.55222e-19
23.0041 	-0.663304 	1.0748 	2.62207 	-6.55222e-19
23.0742 	-0.663304 	1.0748 	2.62207 	-6.55222e-19
23.1443 	-0.663304 	1.0748 	2.62207 	-6.55222e-19
23.2145 	-0.663304 	1.0748 	2.62207 	-6.55222e-19
23.2846 	-0.663304 	1.0748 	2.62207 	-6.55222e-19
23.3548 	-0.663304 	1.0748 	2.62207 	-6.55222e-19
23.4249 	-0.663304 	1.0748 	2.62207 	-6.55222e-19
23.495 	-0.585765 	1.01681 	2.64349 	1.28203e-19
23.5652 	-0.585765 	1.01681 	2.64349 	1.28203e-19
23.6353 	-0.585765 	1.01681 	2.64349 	1.28203e-19
23.7054 	-0.585765 	1.01681 	2.64349 	1.28203e-19
23.7756 	-0.585765 	1.01681 	2.64349 	1.28203e-19
23.8457 	-0.585765 	1.01681 	2.64349 	1.28203e-19
23.9158 	-0.585765 	1.01681 	2.64349 	1.28203e-19
23.986 	-0.495876 	0.727563 	2.76785 	-8.17274e-21
24.0561 	-0.495876 	0.727563 	2.76785 	-8.17274e-21
24.1262 	-0.495876 	0.727563 	2.76785 	-8.17274e-21
24.1964 	-0.495876 	0.727563 	2.76785 	-8.17274e-21
24.2665 	-0.495876 	0.727563 	2.76785 	-8.17274e-21
24.3366 	-0.495876 	0.727563 	2.76785 	-8.17274e-21
24.4068 	-0.495876 	0.727563 	2.76785 	-8.17274e-21
24.4769 	-0.495876 	0.727563 	2.76785 	-8.17274e-21
24.547 	-0.495876 	0.727563 	2.76785 	-8.17274e-21
24.6172 	-0.495876 	0.727563 	2.76785 	-8.17274e-21
24.6873 	-0.495876 	0.727563 	2.76785 	-8.17274e-21
24.7574 	-0.495876 	0.727563 	2.76785 	-8.17274e-21
24.8276 	-0.495876 	0.727563 	2.76785 	-8.17274e-21
24.8977 	-0.495876 	0.727563 	2.76785 	-8.17274e-21
24.9678 	-0.495876 	0.727563 	2.76785 	-8.17274e-21
25.038 	-0.495876 	0.727563 	2.76785 	-8.17274e-21
25.1081 	-0.495876 	0.727563 	2.76785 	-8.17274e-21
25.1782 	-0.59777 	0.473812 	2.13433 	0
25.2484 	-0.59777 	0.473812 	2.13433 	0
25.3185 	-0.59777 	0.473812 	2.13433 	0
25.3886 	-0.59777 	0.473812 	2.13433 	0
25.4588 	-0.59777 	0.473812 	2.13433 	0
25.5289 	-0.59777 	0.473812 	2.13433 	0
25.5991 	-0.59777 	0.473812 	2.13433 	0
25.6692 	-0.59777 	0.473812 	2.13433 	0
25.7393 	-0.59777 	0.473812 	2.13433 	0
25.8095 	-0.59777 	0.473812 	2.13433 	0
25.8796 	-0.59777 	0.473812 	2.13433 	0
25.9497 	-0.59777 	0.473812 	2.13433 	0
26.0199 	-0.59777 	0.473812 	2.13433 	0
26.09 	-0.59777 	0.473812 	2.13433 	0
26.1601 	-0.59777 	0.473812 	2.13433 	0
26.2303 	-0.401302 	0.23638 	2.0909 	6.44842e-19
26.3004 	-0.401302 	0.23638 	2.0909 	6.44842e-19
26.3705 	-0.401302 	0.23638 	2.0909 	6.44842e-19
26.4407 	-0.401302 	0.23638 	2.0909 	6.44842e-19
26.5108 	-0.401302 	0.23638 	2.0909 	6.44842e-19
26.5809 	-0.401302 	0.23638 	2.0909 	6.44842e-19
26.6511 	-0.401302 	0.23638 	2.0909 	6.44842e-19
26.7212 	-0.401302 	0.23638 	2.0909 	6.44842e-19
26.7913 	-0.401302 	0.23638 	2.0909 	6.44842e-19
26.8615 	-0.401302 	0.23638 	2.0909 	6.44842e-19
26.9316 	-0.401302 	0.23638 	2.0909 	6.44842e-19
27.0017 	-0.401302 	0.23638 	2.0909 	6.44842e-19
27.0719 	-0.401302 	0.23638 	2.0909 	6.44842e-19
27.142 	-0.401302 	0.23638 	2.0909 	6.44842e-19
27.2121 	-0.401302 	0.23638 	2.0909 	6.44842e-19
27.2823 	-0.401302 	0.23638 	2.0909 	6.44842e-19
27.3524 	-0.242549 	0.0609405 	2.1059 	-6.96635e-19
27.4225 	-0.242549 	0.0609405 	2.1059 	-6.96635e-19
27.4927 	-0.242549 	0.0609405 	2.1059 	-6.96635e-19
27.5628 	-0.242549 	0.0609405 	2.1059 	-6.96635e-19
27.6329 	-0.242549 	0.0609405 	2.1059 	-6.96635e-19
27.7031 	-0.242549 	0.0609405 	2.1059 	-6.96635e-19
27.7732 	-0.242549 	0.0609405 	2.1059 	-6.96635e-19
27.8434 	-0.242549 	0.0609405 	2.1059 	-6.96635e-19
27.9135 	-0.242549 	0.0609405 	2.1059 	-6.96635e-19
27.9836 	-0.242549 	0.0609405 	2.1059 	-6.96635e-19
28.0538 	-0.242549 	0.0609405 	2.1059 	-6.96635e-19
28.1239 	-0.242549 	0.0609405 	2.1059 	-6.96635e-19
28.194 	-0.242549 	0.0609405 	2.1059 	-6.96635e-19
28.2642 	-0.242549 	0.0609405 	2.1059 	-6.96635e-19
28.3343 	-0.242549 	0.0609405 	2.1059 	-6.96635e-19
28.4044 	-0.242549 	0.0609405 	2.1059 	-6.96635e-19
28.4746 	-0.242549 	0.0609405 	2.1059 	-6.96635e-19
28.5447 	-0.242549 	0.0609405 	2.1059 	-6.96635e-19
28.6148 	-0.242549 	0.0609405 	2.1059 	-6.96635e-19
28.685 	-0.242549 	0.0609405 	2.1059 	-6.96635e-19
28.7551 	-0.242549 	0.0609405 	2.1059 	-6.96635e-19
28.8252 	-0.242549 	0.0609405 	2.1059 	-6.96635e-19
28.8954 	-0.242549 	0.0609405 	2.1059 	-6.96635e-19
28.9655 	-0.175152 	-0.0193461 	2.12042 	-2.0324e-20
29.0356 	-0.175152 	-0.0193461 	2.12042 	-2.0324e-20
29.1058 	-0.175152 	-0.0193461 	2.12042 	-2.0324e-20
29.1759 	-0.175152 	-0.0193461 	2.12042 	-2.0324e-20
29.246 	-0.175152 	-0.0193461 	2.12042 	-2.0324e-20
29.3162 	-0.175152 	-0.0193461 	2.12042 	-2.0324e-20
29.3863 	-0.175152 	-0.0193461 	2.12042 	-2.0324e-20
29.4564 	-0.175152 	-0.0193461 	2.12042 	-2.0324e-20
29.5266 	-0.175152 	-0.0193461 	2.12042 	-2.0324e-20
29.5967 	-0.175152 	-0.0193461 	2.12042 	-2.0324e-20
29.6668 	-0.175152 	-0.0193461 	2.12042 	-2.0324e-20
29.737 	-0.175152 	-0.0193461 	2.12042 	-2.0324e-20
29.8071 	-0.175152 	-0.0193461 	2.12042 	-2.0324e-20
29.8773 	-0.175152 	-0.0193461 	2.12042 	-2.0324e-20
29.9474 	-0.175152 	-0.0193461 	2.12042 	-2.0324e-20
30.0175 	-0.175152 	-0.0193461 	2.12042 	-2.0324e-20
30.0877 	-0.175152 	-0.0193461 	2.12042 	-2.0324e-20
30.1578 	-0.175152 	-0.0193461 	2.12042 	-2.0324e-20
30.2279 	-0.175152 	-0.0193461 	2.12042 	-2.0324e-20
30.2981 	-0.175152 	-0.0193461 	2.12042 	-2.0324e-20
30.3682 	-0.175152 	-0.0193461 	2.12042 	-2.0324e-20
30.4383 	-0.175152 	-0.0193461 	2.12042 	-2.0324e-20
30.5085 	-0.175152 	-0.0193461 	2.12042 	-2.0324e-20
30.5786 	-0.175152 	-0.0193461 	2.12042 	-2.0324e-20
30.6487 	-0.175152 	-0.0193461 	2.12042 	-2.0324e-20
30.7189 	-0.175152 	-0.0193461 	2.12042 	-2.0324e-20
30.789 	0.0522984 	-0.0432789 	1.82479 	2.08164e-20
30.8591 	0.0522984 	-0.0432789 	1.82479 	2.08164e-20
30.9293 	0.0522984 	-0.0432789 	1.82479 	2.08164e-20
30.9994 	0.0522984 	-0.0432789 	1.82479 	2.08164e-20
31.0695 	0.0522984 	-0.0432789 	1.82479 	2.08164e-20
31.1397 	0.0522984 	-0.0432789 	1.82479 	2.08164e-20
31.2098 	0.0522984 	-0.0432789 	1.82479 	2.08164e-20
31.2799 	0.0522984 	-0.0432789 	1.82479 	2.08164e-20
31.3501 	0.0522984 	-0.0432789 	1.82479 	2.08164e-20
31.4202 	0.0522984 	-0.0432789 	1.82479 	2.08164e-20
31.4903 	0.0522984 	-0.0432789 	1.82479 	2.08164e-20
31.5605 	0.0522984 	-0.0432789 	1.82479 	2.08164e-20
31.6306 	0.0522984 	-0.0432789 	1.82479 	2.08164e-20
31.7007 	0.0522984 	-0.0432789 	1.82479 	2.08164e-20
31.7709 	0.0522984 	-0.0432789 	1.82479 	2.08164e-20
31.841 	0.0522984 	-0.0432789 	1.82479 	2.08164e-20
31.9111 	0.0522984 	-0.0432789 	1.82479 	2.08164e-20
31.9813 	0.0522984 	-0.0432789 	1.82479 	2.08164e-20
32.0514 	0.0522984 	-0.0432789 	1.82479 	2.08164e-20
32.1216 	0.0522984 	-0.0432789 	1.82479 	2.08164e-20
32.1917 	0.0522984 	-0.0432789 	1.82479 	2.08164e-20
32.2618 	0.0522984 	-0.0432789 	1.82479 	2.08164e-20
32.332 	0.0522984 	-0.0432789 	1.82479 	2.08164e-20
32.4021 	0.0522984 	-0.0432789 	1.82479 	2.08164e-20
32.4722 	0.0522984 	-0.0432789 	1.82479 	2.08164e-20
32.5424 	0.0522984 	-0.0432789 	1.82479 	2.08164e-20
32.6125 	0.0522984 	-0.0432789 	1.82479 	2.08164e-20
32.6826 	0.0522984 	-0.0432789 	1.82479 	2.08164e-20
32.7528 	0.0522984 	-0.0432789 	1.82479 	2.08164e-20
32.8229 	0.0522984 	-0.0432789 	1.82479 	2.08164e-20
32.893 	0.0522984 	-0.0432789 	1.82479 	2.08164e-20
32.9632 	0.0522984 	-0.0432789 	1.82479 	2.08164e-20
33.0333 	0.0522984 	-0.0432789 	1.82479 	2.08164e-20
33.1034 	0.0522984 	-0.0432789 	1.82479 	2.08164e-20
33.1736 	0.0522984 	-0.0432789 	1.82479 	2.08164e-20
33.2437 	0.0522984 	-0.0432789 	1.82479 	2.08164e-20
33.3138 	0.0522984 	-0.0432789 	1.82479 	2.08164e-20
33.384 	0.0522984 	-0.0432789 	1.82479 	2.08164e-20
33.4541 	0.0522984 	-0.0432789 	1.82479 	2.08164e-20
33.5242 	0.0522984 	-0.0432789 	1.82479 	2.08164e-20
33.5944 	0.0522984 	-0.0432789 	1.82479 	2.08164e-20
33.6645 	0.0522984 	-0.0432789 	1.82479 	2.08164e-20
33.7346 	-0.03453 	0.0258339 	1.78133 	-1.43222e-21
33.8048 	-0.03453 	0.0258339 	1.78133 	-1.43222e-21
33.8749 	-0.03453 	0.0258339 	1.78133 	-1.43222e-21
33.945 	-0.03453 	0.0258339 	1.78133 	-1.43222e-21
34.0152 	-0.03453 	0.0258339 	1.78133 	-1.43222e-21
34.0853 	-0.03453 	0.0258339 	1.78133 	-1.43222e-21
34.1554 	-0.0261612 	0.0526471 	1.77802 	-4.85058e-20
34.2256 	-0.0261612 	0.0526471 	1.77802 	-4.85058e-20
34.2957 	-0.0261612 	0.0526471 	1.77802 	-4.85058e-20
34.3659 	-0.0261612 	0.0526471 	1.77802 	-4.85058e-20
34.436 	-0.0261612 	0.0526471 	1.77802 	-4.85058e-20
34.5061 	-0.0261612 	0.0526471 	1.77802 	-4.85058e-20
34.5763 	-0.0261612 	0.0526471 	1.77802 	-4.85058e-20
34.6464 	-0.0261612 	0.0526471 	1.77802 	-4.85058e-20
34.7165 	0.160399 	0.082977 	1.8165 	6.7128e-20
34.7867 	0.160399 	0.082977 	1.8165 	6.7128e-20
34.8568 	0.160399 	0.082977 	1.8165 	6.7128e-20
34.9269 	0.160399 	0.082977 	1.8165 	6.7128e-20
34.9971 	0.160399 	0.082977 	1.8165 	6.7128e-20
35.0672 	0.160399 	0.082977 	1.8165 	6.7128e-20
35.1373 	0.160399 	0.082977 	1.8165 	6.7128e-20
35.2075 	0.160399 	0.082977 	1.8165 	6.7128e-20
35.2776 	0.160399 	0.082977 	1.8165 	6.7128e-20
35.3477 	0.160399 	0.082977 	1.8165 	6.7128e-20
35.4179 	0.160399 	0.082977 	1.8165 	6.7128e-20
35.488 	0.160399 	0.082977 	1.8165 	6.7128e-20
35.5581 	0.160399 	0.082977 	1.8165 	6.7128e-20
35.6283 	0.160399 	0.082977 	1.8165 	6.7128e-20
35.6984 	0.160399 	0.082977 	1.8165 	6.7128e-20
35.7685 	0.160399 	0.082977 	1.8165 	6.7128e-20
35.8387 	0.160399 	0.082977 	1.8165 	6.7128e-20
35.9088 	0.160399 	0.082977 	1.8165 	6.7128e-20
35.9789 	0.160399 	0.082977 	1.8165 	6.7128e-20
36.0491 	0.172132 	0.092165 	1.80529 	0
36.1192 	0.172132 	0.092165 	1.80529 	0
36.1893 	0.172132 	0.092165 	1.80529 	0
36.2595 	0.172132 	0.092165 	1.80529 	0
36.3296 	0.172132 	0.092165 	1.80529 	0
36.3997 	0.172132 	0.092165 	1.80529 	0
36.4699 	0.172132 	0.092165 	1.80529 	0
36.54 	0.172132 	0.092165 	1.80529 	0
36.6102 	0.172132 	0.092165 	1.80529 	0
36.6803 	0.172132 	0.092165 	1.80529 	0
36.7504 	0.172132 	0.092165 	1.80529 	0
36.8206 	0.172132 	0.092165 	1.80529 	0
36.8907 	0.0784225 	0.0693142 	1.81289 	1.01931e-19
36.9608 	0.0784225 	0.0693142 	1.81289 	1.01931e-19
37.031 	0.0784225 	0.0693142 	1.81289 	1.01931e-19
37.1011 	0.0784225 	0.0693142 	1.81289 	1.01931e-19
37.1712 	0.0784225 	0.0693142 	1.81289 	1.01931e-19
37.2414 	0.0784225 	0.0693142 	1.81289 	1.01931e-19
37.3115 	0.0784225 	0.0693142 	1.81289 	1.01931e-19
37.3816 	0.0784225 	0.0693142 	1.81289 	1.01931e-19
37.4518 	0.0784225 	0.0693142 	1.81289 	1.01931e-19
37.5219 	0.0784225 	0.0693142 	1.81289 	1.01931e-19
37.592 	0.0784225 	0.0693142 	1.81289 	1.01931e-19
37.6622 	0.0784225 	0.0693142 	1.81289 	1.01931e-19
37.7323 	0.0784225 	0.0693142 	1.81289 	1.01931e-19
37.8024 	0.0784225 	0.0693142 	1.81289 	1.01931e-19
37.8726 	0.0784225 	0.0693142 	1.81289 	1.01931e-19
37.9427 	0.0784225 	0.0693142 	1.81289 	1.01931e-19
38.0128 	0.0784225 	0.0693142 	1.81289 	1.01931e-19
38.083 	0.0784225 	0.0693142 	1.81289 	1.01931e-19
38.1531 	0.0784225 	0.0693142 	1.81289 	1.01931e-19
38.2232 	0.135939 	0.0546398 	1.78959 	-1.13985e-19
38.2934 	0.135939 	0.0546398 	1.78959 	-1.13985e-19
38.3635 	0.135939 	0.0546398 	1.78959 	-1.13985e-19
38.4336 	0.135939 	0.0546398 	1.78959 	-1.13985e-19
38.5038 	0.135939 	0.0546398 	1.78959 	-1.13985e-19
38.5739 	0.135939 	0.0546398 	1.78959 	-1.13985e-19
38.644 	0.135939 	0.0546398 	1.78959 	-1.13985e-19
38.7142 	0.135939 	0.0546398 	1.78959 	-1.13985e-19
38.7843 	0.135939 	0.0546398 	1.78959 	-1.13985e-19
38.8545 	0.135939 	0.0546398 	1.78959 	-1.13985e-19
38.9246 	0.135939 	0.0546398 	1.78959 	-1.13985e-19
38.9947 	0.135939 	0.0546398 	1.78959 	-1.13985e-19
39.0649 	0.135939 	0.0546398 	1.78959 	-1.13985e-19
39.135 	0.135939 	0.0546398 	1.78959 	-1.13985e-19
39.2051 	0.106085 	0.0541655 	1.79331 	0
39.2753 	0.106085 	0.0541655 	1.79331 	0
39.3454 	0.106085 	0.0541655 	1.79331 	0
39.4155 	0.106085 	0.0541655 	1.79331 	0
39.4857 	0.106085 	0.0541655 	1.79331 	0
39.5558 	0.106085 	0.0541655 	1.79331 	0
39.6259 	0.106085 	0.0541655 	1.79331 	0
39.6961 	0.106085 	0.0541655 	1.79331 	0
39.7662 	0.106085 	0.0541655 	1.79331 	0
39.8363 	0.106085 	0.0541655 	1.79331 	0
39.9065 	0.106085 	0.0541655 	1.79331 	0
39.9766 	0.106085 	0.0541655 	1.79331 	0
40.0467 	0.106085 	0.0541655 	1.79331 	0
40.1169 	0.106085 	0.0541655 	1.79331 	0
40.187 	0.106085 	0.0541655 	1.79331 	0
40.2571 	0.106085 	0.0541655 	1.79331 	0
40.3273 	0.106085 	0.0541655 	1.79331 	0
40.3974 	0.106085 	0.0541655 	1.79331 	0
40.4675 	0.106085 	0.0541655 	1.79331 	0
40.5377 	0.106085 	0.0541655 	1.79331 	0
40.6078 	0.106085 	0.0541655 	1.79331 	0
40.6779 	0.0574376 	0.0367985 	1.79858 	-3.95519e-20
40.7481 	0.0574376 	0.0367985 	1.79858 	-3.95519e-20
40.8182 	0.0574376 	0.0367985 	1.79858 	-3.95519e-20
40.8883 	0.0574376 	0.0367985 	1.79858 	-3.95519e-20
40.9585 	0.0574376 	0.0367985 	1.79858 	-3.95519e-20
41.0286 	0.0574376 	0.0367985 	1.79858 	-3.95519e-20
41.0988 	0.0574376 	0.0367985 	1.79858 	-3.95519e-20
41.1689 	0.0574376 	0.0367985 	1.79858 	-3.95519e-20
41.239 	0.0742277 	0.0354794 	1.79223 	7.09367e-20
41.3092 	0.0742277 	0.0354794 	1.79223 	7.09367e-20
41.3793 	0.0742277 	0.0354794 	1.79223 	7.09367e-20
41.4494 	0.0742277 	0.0354794 	1.79223 	7.09367e-20
41.5196 	0.0742277 	0.0354794 	1.79223 	7.09367e-20
41.5897 	0.0742277 	0.0354794 	1.79223 	7.09367e-20
41.6598 	0.0742277 	0.0354794 	1.79223 	7.09367e-20
41.73 	0.0742277 	0.0354794 	1.79223 	7.09367e-20
41.8001 	0.0742277 	0.0354794 	1.79223 	7.09367e-20
41.8702 	0.0742277 	0.0354794 	1.79223 	7.09367e-20
41.9404 	0.0742277 	0.0354794 	1.79223 	7.09367e-20
42.0105 	0.0742277 	0.0354794 	1.79223 	7.09367e-20
42.0806 	0.0742277 	0.0354794 	1.79223 	7.09367e-20
42.1508 	0.0742277 	0.0354794 	1.79223 	7.09367e-20
42.2209 	0.0742277 	0.0354794 	1.79223 	7.09367e-20
42.291 	0.0742277 	0.0354794 	1.79223 	7.09367e-20
42.3612 	0.0742277 	0.0354794 	1.79223 	7.09367e-20
42.4313 	0.0742277 	0.0354794 	1.79223 	7.09367e-20
42.5014 	0.0742277 	0.0354794 	1.79223 	7.09367e-20
42.5716 	0.0742277 	0.0354794 	1.79223 	7.09367e-20
42.6417 	0.0742277 	0.0354794 	1.79223 	7.09367e-20
42.7118 	0.0595251 	0.0390556 	1.79354 	0
42.782 	0.0595251 	0.0390556 	1.79354 	0
42.8521 	0.0595251 	0.0390556 	1.79354 	0
42.9222 	0.0595251 	0.0390556 	1.79354 	0
42.9924 	0.0805949 	0.0359749 	1.79568 	0
43.0625 	0.0805949 	0.0359749 	1.79568 	0
43.1327 	0.0805949 	0.0359749 	1.79568 	0
43.2028 	0.0805949 	0.0359749 	1.79568 	0