0.490941 	1.93396 	0.00562634 	3.00061 	-5.97735e-20
0.561075 	1.93396 	0.00562634 	3.00061 	-5.97735e-20
0.63121 	1.93396 	0.00562634 	3.00061 	-5.97735e-20
0.701344 	1.93396 	0.00562634 	3.00061 	-5.97735e-20
0.771478 	1.93396 	0.00562634 	3.00061 	-5.97735e-20
0.841613 	1.93396 	0.00562634 	3.00061 	-5.97735e-20
0.911747 	1.93396 	0.00562634 	3.00061 	-5.97735e-20
0.981881 	1.93396 	0.00562634 	3.00061 	-5.97735e-20
1.05202 	1.93396 	0.00562634 	3.00061 	-5.97735e-20
1.12215 	1.93396 	0.00562634 	3.00061 	-5.97735e-20
1.19228 	1.93396 	0.00562634 	3.00061 	-5.97735e-20
1.26242 	1.93396 	0.00562634 	3.00061 	-5.97735e-20
1.33255 	1.8946 	0.0142135 	3.01443 	-6.16024e-20
1.40269 	1.8946 	0.0142135 	3.01443 	-6.16024e-20
1.47282 	1.8946 	0.0142135 	3.01443 	-6.16024e-20
1.54296 	1.8946 	0.0142135 	3.01443 	-6.16024e-20
1.61309 	1.8946 	0.0142135 	3.01443 	-6.16024e-20
1.68323 	1.8946 	0.0142135 	3.01443 	-6.16024e-20
1.75336 	1.8946 	0.0142135 	3.01443 	-6.16024e-20
1.82349 	1.8946 	0.0142135 	3.01443 	-6.16024e-20
1.89363 	1.8946 	0.0142135 	3.01443 	-6.16024e-20
1.96376 	1.8946 	0.0142135 	3.01443 	-6.16024e-20
2.0339 	1.8946 	0.0142135 	3.01443 	-6.16024e-20
2.10403 	1.8946 	0.0142135 	3.01443 	-6.16024e-20
2.17417 	1.83385 	0.014068 	3.03183 	1.28035e-19
2.2443 	1.83385 	0.014068 	3.03183 	1.28035e-19
2.31443 	1.83385 	0.014068 	3.03183 	1.28035e-19
2.38457 	1.83385 	0.014068 	3.03183 	1.28035e-19
2.4547 	1.83385 	0.014068 	3.03183 	1.28035e-19
2.52484 	1.83385 	0.014068 	3.03183 	1.28035e-19
2.59497 	1.83385 	0.014068 	3.03183 	1.28035e-19
2.66511 	1.83385 	0.014068 	3.03183 	1.28035e-19
2.73524 	1.83385 	0.014068 	3.03183 	1.28035e-19
2.80538 	1.83385 	0.014068 	3.03183 	1.28035e-19
2.87551 	1.83385 	0.014068 	3.03183 	1.28035e-19
2.94564 	1.83385 	0.014068 	3.03183 	1.28035e-19
3.01578 	1.75991 	0.0165771 	3.05891 	-1.49988e-20
3.08591 	1.75991 	0.0165771 	3.05891 	-1.49988e-20
3.15605 	1.75991 	0.0165771 	3.05891 	-1.49988e-20
3.22618 	1.75991 	0.0165771 	3.05891 	-1.49988e-20
3.29632 	1.75991 	0.0165771 	3.05891 	-1.49988e-20
3.36645 	1.75991 	0.0165771 	3.05891 	-1.49988e-20
3.43659 	1.75991 	0.0165771 	3.05891 	-1.49988e-20
3.50672 	1.75991 	0.0165771 	3.05891 	-1.49988e-20
3.57685 	1.75991 	0.0165771 	3.05891 	-1.49988e-20
3.64699 	1.75991 	0.0165771 	3.05891 	-1.49988e-20
3.71712 	1.75991 	0.0165771 	3.05891 	-1.49988e-20
3.78726 	1.75273 	0.00718012 	3.0554 	2.93678e-20
3.85739 	1.67381 	-0.000828975 	3.08429 	-2.1858e-19
3.92753 	1.67381 	-0.000828975 	3.08429 	-2.1858e-19
3.99766 	1.67381 	-0.000828975 	3.08429 	-2.1858e-19
4.06779 	1.67381 	-0.000828975 	3.08429 	-2.1858e-19
4.13793 	1.67381 	-0.000828975 	3.08429 	-2.1858e-19
4.20806 	1.67381 	-0.000828975 	3.08429 	-2.1858e-19
4.2782 	1.67381 	-0.000828975 	3.08429 	-2.1858e-19
4.34833 	1.67381 	-0.000828975 	3.08429 	-2.1858e-19
4.41847 	1.67381 	-0.000828975 	3.08429 	-2.1858e-19
4.4886 	1.67381 	-0.000828975 	3.08429 	-2.1858e-19
4.55874 	1.67381 	-0.000828975 	3.08429 	-2.1858e-19
4.62887 	1.67381 	-0.000828975 	3.08429 	-2.1858e-19
4.699 	1.67381 	-0.000828975 	3.08429 	-2.1858e-19
4.76914 	1.5951 	0.00555595 	3.10649 	4.26784e-19
4.83927 	1.5951 	0.00555595 	3.10649 	4.26784e-19
4.90941 	1.5951 	0.00555595 	3.10649 	4.26784e-19
4.97954 	1.5951 	0.00555595 	3.10649 	4.26784e-19
5.04968 	1.5951 	0.00555595 	3.10649 	4.26784e-19
5.11981 	1.5951 	0.00555595 	3.10649 	4.26784e-19
5.18994 	1.5951 	0.00555595 	3.10649 	4.26784e-19
5.26008 	1.5951 	0.00555595 	3.10649 	4.26784e-19
5.33021 	1.5951 	0.00555595 	3.10649 	4.26784e-19
5.40035 	1.5951 	0.00555595 	3.10649 	4.26784e-19
5.47048 	1.5951 	0.00555595 	3.10649 	4.26784e-19
5.54062 	1.5951 	0.00555595 	3.10649 	4.26784e-19
5.61075 	1.52044 	-0.00217148 	3.13373 	-2.07976e-19
5.68089 	1.52044 	-0.00217148 	3.13373 	-2.07976e-19
5.75102 	1.52044 	-0.00217148 	3.13373 	-2.07976e-19
5.82115 	1.52044 	-0.00217148 	3.13373 	-2.07976e-19
5.89129 	1.52044 	-0.00217148 	3.13373 	-2.07976e-19
5.96142 	1.52044 	-0.00217148 	3.13373 	-2.07976e-19
6.03156 	1.52044 	-0.00217148 	3.13373 	-2.07976e-19
6.10169 	1.52044 	-0.00217148 	3.13373 	-2.07976e-19
6.17183 	1.52044 	-0.00217148 	3.13373 	-2.07976e-19
6.24196 	1.52044 	-0.00217148 	3.13373 	-2.07976e-19
6.3121 	1.52044 	-0.00217148 	3.13373 	-2.07976e-19
6.38223 	1.52044 	-0.00217148 	3.13373 	-2.07976e-19
6.45236 	1.44915 	0.00537504 	3.15314 	0
6.5225 	1.44915 	0.00537504 	3.15314 	0
6.59263 	1.44915 	0.00537504 	3.15314 	0
6.66277 	1.44915 	0.00537504 	3.15314 	0
6.7329 	1.44915 	0.00537504 	3.15314 	0
6.80304 	1.44915 	0.00537504 	3.15314 	0
6.87317 	1.44915 	0.00537504 	3.15314 	0
6.9433 	1.44915 	0.00537504 	3.15314 	0
7.01344 	1.44915 	0.00537504 	3.15314 	0
7.08357 	1.44915 	0.00537504 	3.15314 	0
7.15371 	1.44915 	0.00537504 	3.15314 	0
7.22384 	1.44915 	0.00537504 	3.15314 	0
7.29398 	1.38115 	-0.0012354 	3.17805 	0
7.36411 	1.38115 	-0.0012354 	3.17805 	0
7.43425 	1.38115 	-0.0012354 	3.17805 	0
7.50438 	1.38115 	-0.0012354 	3.17805 	0
7.57451 	1.38115 	-0.0012354 	3.17805 	0
7.64465 	1.38115 	-0.0012354 	3.17805 	0
7.71478 	1.38115 	-0.0012354 	3.17805 	0
7.78492 	1.38115 	-0.0012354 	3.17805 	0
7.85505 	1.38115 	-0.0012354 	3.17805 	0
7.92519 	1.38115 	-0.0012354 	3.17805 	0
7.99532 	1.38115 	-0.0012354 	3.17805 	0
8.06545 	1.38115 	-0.0012354 	3.17805 	0
8.13559 	1.38115 	-0.0012354 	3.17805 	0
8.20572 	1.31398 	0.00796344 	3.1958 	3.71284e-22
8.27586 	1.31398 	0.00796344 	3.1958 	3.71284e-22
8.34599 	1.31398 	0.00796344 	3.1958 	3.71284e-22
8.41613 	1.31398 	0.00796344 	3.1958 	3.71284e-22
8.48626 	1.31398 	0.00796344 	3.1958 	3.71284e-22
8.5564 	1.31398 	0.00796344 	3.1958 	3.71284e-22
8.62653 	1.31398 	0.00796344 	3.1958 	3.71284e-22
8.69666 	1.31398 	0.00796344 	3.1958 	3.71284e-22
8.7668 	1.31398 	0.00796344 	3.1958 	3.71284e-22
8.83693 	1.31398 	0.00796344 	3.1958 	3.71284e-22
8.90707 	1.31398 	0.00796344 	3.1958 	3.71284e-22
8.9772 	1.31398 	0.00796344 	3.1958 	3.71284e-22
9.04734 	1.24757 	0.0037771 	3.21999 	3.24101e-19
9.11747 	1.24757 	0.0037771 	3.21999 	3.24101e-19
9.18761 	1.24757 	0.0037771 	3.21999 	3.24101e-19
9.25774 	1.24757 	0.0037771 	3.21999 	3.24101e-19
9.32787 	1.24757 	0.0037771 	3.21999 	3.24101e-19
9.39801 	1.24757 	0.0037771 	3.21999 	3.24101e-19
9.46814 	1.24757 	0.0037771 	3.21999 	3.24101e-19
9.53828 	1.24757 	0.0037771 	3.21999 	3.24101e-19
9.60841 	1.24757 	0.0037771 	3.21999 	3.24101e-19
9.67855 	1.24757 	0.0037771 	3.21999 	3.24101e-19
9.74868 	1.24757 	0.0037771 	3.21999 	3.24101e-19
9.81881 	1.24757 	0.0037771 	3.21999 	3.24101e-19
9.88895 	1.24757 	0.0037771 	3.21999 	3.24101e-19
9.95908 	1.18041 	0.0180754 	3.23745 	1.29922e-21
10.0292 	1.18041 	0.0180754 	3.23745 	1.29922e-21
10.0994 	1.18041 	0.0180754 	3.23745 	1.29922e-21
10.1695 	1.18041 	0.0180754 	3.23745 	1.29922e-21
10.2396 	1.18041 	0.0180754 	3.23745 	1.29922e-21
10.3098 	1.18041 	0.0180754 	3.23745 	1.29922e-21
10.3799 	1.18041 	0.0180754 	3.23745 	1.29922e-21
10.45 	1.18041 	0.0180754 	3.23745 	1.29922e-21
10.5202 	1.18041 	0.0180754 	3.23745 	1.29922e-21
10.5903 	1.18041 	0.0180754 	3.23745 	1.29922e-21
10.6604 	1.18041 	0.0180754 	3.23745 	1.29922e-21
10.7306 	1.18041 	0.0180754 	3.23745 	1.29922e-21
10.8007 	1.11244 	0.0241224 	3.26182 	-3.22963e-19
10.8708 	1.11244 	0.0241224 	3.26182 	-3.22963e-19
10.941 	1.11244 	0.0241224 	3.26182 	-3.22963e-19
11.0111 	1.11244 	0.0241224 	3.26182 	-3.22963e-19
11.0812 	1.11244 	0.0241224 	3.26182 	-3.22963e-19
11.1514 	1.11244 	0.0241224 	3.26182 	-3.22963e-19
11.2215 	1.11244 	0.0241224 	3.26182 	-3.22963e-19
11.2916 	1.11244 	0.0241224 	3.26182 	-3.22963e-19
11.3618 	1.11244 	0.0241224 	3.26182 	-3.22963e-19
11.4319 	1.11244 	0.0241224 	3.26182 	-3.22963e-19
11.502 	1.11244 	0.0241224 	3.26182 	-3.22963e-19
11.5722 	1.11244 	0.0241224 	3.26182 	-3.22963e-19
11.6423 	1.11244 	0.0241224 	3.26182 	-3.22963e-19
11.7124 	1.03838 	0.0557115 	3.28162 	-5.13323e-19
11.7826 	1.03838 	0.0557115 	3.28162 	-5.13323e-19
11.8527 	1.03838 	0.0557115 	3.28162 	-5.13323e-19
11.9228 	1.03838 	0.0557115 	3.28162 	-5.13323e-19
11.993 	1.03838 	0.0557115 	3.28162 	-5.13323e-19
12.0631 	1.03838 	0.0557115 	3.28162 	-5.13323e-19
12.1332 	1.03838 	0.0557115 	3.28162 	-5.13323e-19
12.2034 	1.03838 	0.0557115 	3.28162 	-5.13323e-19
12.2735 	1.03838 	0.0557115 	3.28162 	-5.13323e-19
12.3437 	1.03838 	0.0557115 	3.28162 	-5.13323e-19
12.4138 	1.03838 	0.0557115 	3.28162 	-5.13323e-19
12.4839 	1.03838 	0.0557115 	3.28162 	-5.13323e-19
12.5541 	1.03838 	0.0557115 	3.28162 	-5.13323e-19
12.6242 	0.954231 	0.0818108 	3.30889 	9.97155e-19
12.6943 	0.954231 	0.0818108 	3.30889 	9.97155e-19
12.7645 	0.954231 	0.0818108 	3.30889 	9.97155e-19
12.8346 	0.954231 	0.0818108 	3.30889 	9.97155e-19
12.9047 	0.954231 	0.0818108 	3.30889 	9.97155e-19
12.9749 	0.954231 	0.0818108 	3.30889 	9.97155e-19
13.045 	0.954231 	0.0818108 	3.30889 	9.97155e-19
13.1151 	0.954231 	0.0818108 	3.30889 	9.97155e-19
13.1853 	0.954231 	0.0818108 	3.30889 	9.97155e-19
13.2554 	0.954231 	0.0818108 	3.30889 	9.97155e-19
13.3255 	0.954231 	0.0818108 	3.30889 	9.97155e-19
13.3957 	0.954231 	0.0818108 	3.30889 	9.97155e-19
13.4658 	0.954231 	0.0818108 	3.30889 	9.97155e-19
13.5359 	0.844247 	0.158214 	3.34429 	-4.86322e-19
13.6061 	0.844247 	0.158214 	3.34429 	-4.86322e-19
13.6762 	0.844247 	0.158214 	3.34429 	-4.86322e-19
13.7463 	0.844247 	0.158214 	3.34429 	-4.86322e-19
13.8165 	0.844247 	0.158214 	3.34429 	-4.86322e-19
13.8866 	0.844247 	0.158214 	3.34429 	-4.86322e-19
13.9567 	0.844247 	0.158214 	3.34429 	-4.86322e-19
14.0269 	0.844247 	0.158214 	3.34429 	-4.86322e-19
14.097 	0.844247 	0.158214 	3.34429 	-4.86322e-19
14.1671 	0.844247 	0.158214 	3.34429 	-4.86322e-19
14.2373 	0.844247 	0.158214 	3.34429 	-4.86322e-19
14.3074 	0.844247 	0.158214 	3.34429 	-4.86322e-19
14.3776 	0.739382 	0.183084 	3.36638 	0
14.4477 	0.532868 	0.18064 	3.42578 	5.27612e-19
14.5178 	0.532868 	0.18064 	3.42578 	5.27612e-19
14.588 	0.532868 	0.18064 	3.42578 	5.27612e-19
14.6581 	0.532868 	0.18064 	3.42578 	5.27612e-19
14.7282 	0.532868 	0.18064 	3.42578 	5.27612e-19
14.7984 	0.532868 	0.18064 	3.42578 	5.27612e-19
14.8685 	0.55757 	0.20604 	3.41681 	-1.05621e-18
14.9386 	0.55757 	0.20604 	3.41681 	-1.05621e-18
15.0088 	0.55757 	0.20604 	3.41681 	-1.05621e-18
15.0789 	0.55757 	0.20604 	3.41681 	-1.05621e-18
15.149 	0.55757 	0.20604 	3.41681 	-1.05621e-18
15.2192 	0.315164 	0.270948 	3.48433 	6.68184e-19
15.2893 	0.315164 	0.270948 	3.48433 	6.68184e-19
15.3594 	0.315164 	0.270948 	3.48433 	6.68184e-19
15.4296 	0.442709 	0.342804 	3.44009 	-1.29688e-20
15.4997 	0.442709 	0.342804 	3.44009 	-1.29688e-20
15.5698 	0.442709 	0.342804 	3.44009 	-1.29688e-20
15.64 	0.442709 	0.342804 	3.44009 	-1.29688e-20
15.7101 	0.442709 	0.342804 	3.44009 	-1.29688e-20
15.7802 	0.442709 	0.342804 	3.44009 	-1.29688e-20
15.8504 	0.442709 	0.342804 	3.44009 	-1.29688e-20
15.9205 	0.181579 	0.344676 	3.54011 	9.4785e-20
15.9906 	0.181579 	0.344676 	3.54011 	9.4785e-20
16.0608 	0.181579 	0.344676 	3.54011 	9.4785e-20
16.1309 	0.395022 	0.431548 	3.45236 	3.10944e-19
16.201 	0.395022 	0.431548 	3.45236 	3.10944e-19
16.2712 	0.395022 	0.431548 	3.45236 	3.10944e-19
16.3413 	0.395022 	0.431548 	3.45236 	3.10944e-19
16.4114 	0.395022 	0.431548 	3.45236 	3.10944e-19
16.4816 	0.395022 	0.431548 	3.45236 	3.10944e-19
16.5517 	0.395022 	0.431548 	3.45236 	3.10944e-19
16.6219 	0.205104 	0.532228 	3.52981 	0
16.692 	0.205104 	0.532228 	3.52981 	0
16.7621 	0.205104 	0.532228 	3.52981 	0
16.8323 	0.205104 	0.532228 	3.52981 	0
16.9024 	0.205104 	0.532228 	3.52981 	0
16.9725 	0.440192 	0.538523 	3.43131 	2.80277e-19
17.0427 	0.440192 	0.538523 	3.43131 	2.80277e-19
17.1128 	0.440192 	0.538523 	3.43131 	2.80277e-19
17.1829 	0.440192 	0.538523 	3.43131 	2.80277e-19
17.2531 	0.285417 	0.625987 	3.48488 	3.06485e-19
17.3232 	0.285417 	0.625987 	3.48488 	3.06485e-19
17.3933 	0.285417 	0.625987 	3.48488 	3.06485e-19
17.4635 	0.285417 	0.625987 	3.48488 	3.06485e-19
17.5336 	0.285417 	0.625987 	3.48488 	3.06485e-19
17.6037 	0.285417 	0.625987 	3.48488 	3.06485e-19
17.6739 	0.285417 	0.625987 	3.48488 	3.06485e-19
17.744 	0.285417 	0.625987 	3.48488 	3.06485e-19
17.8141 	0.285417 	0.625987 	3.48488 	3.06485e-19
17.8843 	0.285417 	0.625987 	3.48488 	3.06485e-19
17.9544 	0.365191 	0.644173 	3.40445 	0
18.0245 	0.365191 	0.644173 	3.40445 	0
18.0947 	0.365191 	0.644173 	3.40445 	0
18.1648 	0.365191 	0.644173 	3.40445 	0
18.2349 	0.365191 	0.644173 	3.40445 	0
18.3051 	0.365191 	0.644173 	3.40445 	0
18.3752 	0.365191 	0.644173 	3.40445 	0
18.4453 	0.365191 	0.644173 	3.40445 	0
18.5155 	0.365191 	0.644173 	3.40445 	0
18.5856 	0.267058 	0.731621 	3.44349 	0
18.6557 	0.267058 	0.731621 	3.44349 	0
18.7259 	0.267058 	0.731621 	3.44349 	0
18.796 	0.267058 	0.731621 	3.44349 	0
18.8662 	0.267058 	0.731621 	3.44349 	0
18.9363 	0.267058 	0.731621 	3.44349 	0
19.0064 	0.267058 	0.731621 	3.44349 	0
19.0766 	0.267058 	0.731621 	3.44349 	0
19.1467 	0.267058 	0.731621 	3.44349 	0
19.2168 	0.215167 	0.788763 	3.43447 	-2.96013e-20
19.287 	0.448942 	0.714245 	3.21748 	-1.08932e-19
19.3571 	0.448942 	0.714245 	3.21748 	-1.08932e-19
19.4272 	0.448942 	0.714245 	3.21748 	-1.08932e-19
19.4974 	0.448942 	0.714245 	3.21748 	-1.08932e-19
19.5675 	0.448942 	0.714245 	3.21748 	-1.08932e-19
19.6376 	0.448942 	0.714245 	3.21748 	-1.08932e-19
19.7078 	0.448942 	0.714245 	3.21748 	-1.08932e-19
19.7779 	0.448942 	0.714245 	3.21748 	-1.08932e-19
19.848 	0.448942 	0.714245 	3.21748 	-1.08932e-19
19.9182 	0.397506 	0.768137 	3.28543 	-3.68976e-19
19.9883 	0.397506 	0.768137 	3.28543 	-3.68976e-19
20.0584 	0.397506 	0.768137 	3.28543 	-3.68976e-19
20.1286 	0.397506 	0.768137 	3.28543 	-3.68976e-19
20.1987 	0.397506 	0.768137 	3.28543 	-3.68976e-19
20.2688 	0.397506 	0.768137 	3.28543 	-3.68976e-19
20.339 	0.397506 	0.768137 	3.28543 	-3.68976e-19
20.4091 	0.397506 	0.768137 	3.28543 	-3.68976e-19
20.4792 	0.397506 	0.768137 	3.28543 	-3.68976e-19
20.5494 	0.397506 	0.768137 	3.28543 	-3.68976e-19
20.6195 	0.33671 	0.830526 	3.3275 	-3.20754e-20
20.6896 	0.33671 	0.830526 	3.3275 	-3.20754e-20
20.7598 	0.33671 	0.830526 	3.3275 	-3.20754e-20
20.8299 	0.33671 	0.830526 	3.3275 	-3.20754e-20
20.9 	0.426282 	0.715477 	2.73339 	-4.75621e-19
20.9702 	0.426282 	0.715477 	2.73339 	-4.75621e-19
21.0403 	0.426282 	0.715477 	2.73339 	-4.75621e-19
21.1105 	0.426282 	0.715477 	2.73339 	-4.75621e-19
21.1806 	0.426282 	0.715477 	2.73339 	-4.75621e-19
21.2507 	0.426282 	0.715477 	2.73339 	-4.75621e-19
21.3209 	0.383864 	0.771472 	2.92498 	0
21.391 	0.383864 	0.771472 	2.92498 	0
21.4611 	0.383864 	0.771472 	2.92498 	0
21.5313 	0.383864 	0.771472 	2.92498 	0
21.6014 	0.383864 	0.771472 	2.92498 	0
21.6715 	0.383864 	0.771472 	2.92498 	0
21.7417 	0.383864 	0.771472 	2.92498 	0
21.8118 	0.383864 	0.771472 	2.92498 	0
21.8819 	0.383864 	0.771472 	2.92498 	0
21.9521 	0.383864 	0.771472 	2.92498 	0
22.0222 	0.383864 	0.771472 	2.92498 	0
22.0923 	0.341112 	0.822468 	3.05492 	-2.29284e-19
22.1625 	0.341112 	0.822468 	3.05492 	-2.29284e-19
22.2326 	0.341112 	0.822468 	3.05492 	-2.29284e-19
22.3027 	0.341112 	0.822468 	3.05492 	-2.29284e-19
22.3729 	0.341112 	0.822468 	3.05492 	-2.29284e-19
22.443 	0.341112 	0.822468 	3.05492 	-2.29284e-19
22.5131 	0.341112 	0.822468 	3.05492 	-2.29284e-19
22.5833 	0.341112 	0.822468 	3.05492 	-2.29284e-19
22.6534 	0.341112 	0.822468 	3.05492 	-2.29284e-19
22.7235 	0.341112 	0.822468 	3.05492 	-2.29284e-19
22.7937 	0.341112 	0.822468 	3.05492 	-2.29284e-19
22.8638 	0.291489 	0.870013 	3.12852 	4.28683e-19
22.9339 	0.291489 	0.870013 	3.12852 	4.28683e-19
23.0041 	0.291489 	0.870013 	3.12852 	4.28683e-19
23.0742 	0.312943 	0.700523 	2.21139 	1.41562e-19
23.1443 	0.312943 	0.700523 	2.21139 	1.41562e-19
23.2145 	0.312943 	0.700523 	2.21139 	1.41562e-19
23.2846 	0.312943 	0.700523 	2.21139 	1.41562e-19
23.3548 	0.312943 	0.700523 	2.21139 	1.41562e-19
23.4249 	0.312943 	0.700523 	2.21139 	1.41562e-19
23.495 	0.312943 	0.700523 	2.21139 	1.41562e-19
23.5652 	0.312943 	0.700523 	2.21139 	1.41562e-19
23.6353 	0.312943 	0.700523 	2.21139 	1.41562e-19
23.7054 	0.263889 	0.74378 	2.38561 	-3.56822e-20
23.7756 	0.263889 	0.74378 	2.38561 	-3.56822e-20
23.8457 	0.263889 	0.74378 	2.38561 	-3.56822e-20
23.9158 	0.263889 	0.74378 	2.38561 	-3.56822e-20
23.986 	0.263889 	0.74378 	2.38561 	-3.56822e-20
24.0561 	0.263889 	0.74378 	2.38561 	-3.56822e-20
24.1262 	0.263889 	0.74378 	2.38561 	-3.56822e-20
24.1964 	0.263889 	0.74378 	2.38561 	-3.56822e-20
24.2665 	0.263889 	0.74378 	2.38561 	-3.56822e-20
24.3366 	0.263889 	0.74378 	2.38561 	-3.56822e-20
24.4068 	0.263889 	0.74378 	2.38561 	-3.56822e-20
24.4769 	0.263889 	0.74378 	2.38561 	-3.56822e-20
24.547 	0.263889 	0.74378 	2.38561 	-3.56822e-20
24.6172 	0.217082 	0.790253 	2.53566 	2.80806e-19
24.6873 	0.217082 	0.790253 	2.53566 	2.80806e-19
24.7574 	0.217082 	0.790253 	2.53566 	2.80806e-19
24.8276 	0.217082 	0.790253 	2.53566 	2.80806e-19
24.8977 	0.217082 	0.790253 	2.53566 	2.80806e-19
24.9678 	0.217082 	0.790253 	2.53566 	2.80806e-19
25.038 	0.217082 	0.790253 	2.53566 	2.80806e-19
25.1081 	0.217082 	0.790253 	2.53566 	2.80806e-19
25.1782 	0.217082 	0.790253 	2.53566 	2.80806e-19
25.2484 	0.217082 	0.790253 	2.53566 	2.80806e-19
25.3185 	0.217082 	0.790253 	2.53566 	2.80806e-19
25.3886 	0.217082 	0.790253 	2.53566 	2.80806e-19
25.4588 	0.171597 	0.829326 	2.64962 	-2.22052e-19
25.5289 	0.171597 	0.829326 	2.64962 	-2.22052e-19
25.5991 	0.171597 	0.829326 	2.64962 	-2.22052e-19
25.6692 	0.171597 	0.829326 	2.64962 	-2.22052e-19
25.7393 	0.171597 	0.829326 	2.64962 	-2.22052e-19
25.8095 	0.171597 	0.829326 	2.64962 	-2.22052e-19
25.8796 	0.171597 	0.829326 	2.64962 	-2.22052e-19
25.9497 	0.171597 	0.829326 	2.64962 	-2.22052e-19
26.0199 	0.171597 	0.829326 	2.64962 	-2.22052e-19
26.09 	0.189137 	0.62237 	1.71713 	-6.68286e-20
26.1601 	0.189137 	0.62237 	1.71713 	-6.68286e-20
26.2303 	0.189137 	0.62237 	1.71713 	-6.68286e-20
26.3004 	0.189137 	0.62237 	1.71713 	-6.68286e-20
26.3705 	0.189137 	0.62237 	1.71713 	-6.68286e-20
26.4407 	0.148881 	0.63574 	1.7829 	3.09594e-20
26.5108 	0.148881 	0.63574 	1.7829 	3.09594e-20
26.5809 	0.148881 	0.63574 	1.7829 	3.09594e-20
26.6511 	0.148881 	0.63574 	1.7829 	3.09594e-20
26.7212 	0.148881 	0.63574 	1.7829 	3.09594e-20
26.7913 	0.148881 	0.63574 	1.7829 	3.09594e-20
26.8615 	0.148881 	0.63574 	1.7829 	3.09594e-20
26.9316 	0.148881 	0.63574 	1.7829 	3.09594e-20
27.0017 	0.148881 	0.63574 	1.7829 	3.09594e-20
27.0719 	0.148881 	0.63574 	1.7829 	3.09594e-20
27.142 	0.148881 	0.63574 	1.7829 	3.09594e-20
27.2121 	0.148881 	0.63574 	1.7829 	3.09594e-20
27.2823 	0.148881 	0.63574 	1.7829 	3.09594e-20
27.3524 	0.111816 	0.650834 	1.83467 	0
27.4225 	0.111816 	0.650834 	1.83467 	0
27.4927 	0.111816 	0.650834 	1.83467 	0
27.5628 	0.111816 	0.650834 	1.83467 	0
27.6329 	0.111816 	0.650834 	1.83467 	0
27.7031 	0.111816 	0.650834 	1.83467 	0
27.7732 	0.111816 	0.650834 	1.83467 	0
27.8434 	0.111816 	0.650834 	1.83467 	0
27.9135 	0.111816 	0.650834 	1.83467 	0
27.9836 	0.111816 	0.650834 	1.83467 	0
28.0538 	0.111816 	0.650834 	1.83467 	0
28.1239 	0.111816 	0.650834 	1.83467 	0
28.194 	0.111816 	0.650834 	1.83467 	0
28.2642 	0.111816 	0.650834 	1.83467 	0
28.3343 	0.111816 	0.650834 	1.83467 	0
28.4044 	0.076175 	0.657069 	1.86461 	0
28.4746 	0.076175 	0.657069 	1.86461 	0
28.5447 	0.076175 	0.657069 	1.86461 	0
28.6148 	0.076175 	0.657069 	1.86461 	0
28.685 	0.076175 	0.657069 	1.86461 	0
28.7551 	0.076175 	0.657069 	1.86461 	0
28.8252 	0.076175 	0.657069 	1.86461 	0
28.8954 	0.076175 	0.657069 	1.86461 	0
28.9655 	0.076175 	0.657069 	1.86461 	0
29.0356 	0.076175 	0.657069 	1.86461 	0
29.1058 	0.076175 	0.657069 	1.86461 	0
29.1759 	0.076175 	0.657069 	1.86461 	0
29.246 	0.076175 	0.657069 	1.86461 	0
29.3162 	0.076175 	0.657069 	1.86461 	0
29.3863 	0.076175 	0.657069 	1.86461 	0
29.4564 	0.0447739 	0.657072 	1.86954 	1.56628e-20
29.5266 	0.0447739 	0.657072 	1.86954 	1.56628e-20
29.5967 	0.0447739 	0.657072 	1.86954 	1.56628e-20
29.6668 	0.0447739 	0.657072 	1.86954 	1.56628e-20
29.737 	0.0447739 	0.657072 	1.86954 	1.56628e-20
29.8071 	0.0447739 	0.657072 	1.86954 	1.56628e-20
29.8773 	0.0447739 	0.657072 	1.86954 	1.56628e-20
29.9474 	0.0447739 	0.657072 	1.86954 	1.56628e-20
30.0175 	0.0447739 	0.657072 	1.86954 	1.56628e-20
30.0877 	0.0447739 	0.657072 	1.86954 	1.56628e-20
30.1578 	0.0447739 	0.657072 	1.86954 	1.56628e-20
30.2279 	0.0447739 	0.657072 	1.86954 	1.56628e-20
30.2981 	0.0447739 	0.657072 	1.86954 	1.56628e-20
30.3682 	0.0447739 	0.657072 	1.86954 	1.56628e-20
30.4383 	0.0447739 	0.657072 	1.86954 	1.56628e-20
30.5085 	0.0447739 	0.657072 	1.86954 	1.56628e-20
30.5786 	0.0287619 	0.645565 	1.84625 	2.05349e-21
30.6487 	0.0287619 	0.645565 	1.84625 	2.05349e-21
30.7189 	0.0287619 	0.645565 	1.84625 	2.05349e-21
30.789 	0.0287619 	0.645565 	1.84625 	2.05349e-21
30.8591 	0.0287619 	0.645565 	1.84625 	2.05349e-21
30.9293 	0.0287619 	0.645565 	1.84625 	2.05349e-21
30.9994 	0.0287619 	0.645565 	1.84625 	2.05349e-21
31.0695 	0.0287619 	0.645565 	1.84625 	2.05349e-21
31.1397 	0.0287619 	0.645565 	1.84625 	2.05349e-21
31.2098 	0.0287619 	0.645565 	1.84625 	2.05349e-21
31.2799 	0.0287619 	0.645565 	1.84625 	2.05349e-21
31.3501 	0.0287619 	0.645565 	1.84625 	2.05349e-21
31.4202 	0.0287619 	0.645565 	1.84625 	2.05349e-21
31.4903 	0.0287619 	0.645565 	1.84625 	2.05349e-21
31.5605 	-0.00609307 	0.525527 	1.58323 	1.82066e-21
31.6306 	-0.00609307 	0.525527 	1.58323 	1.82066e-21
31.7007 	0.00394445 	0.506124 	1.57371 	-7.74313e-23
31.7709 	0.00394445 	0.506124 	1.57371 	-7.74313e-23
31.841 	0.00394445 	0.506124 	1.57371 	-7.74313e-23
31.9111 	0.00394445 	0.506124 	1.57371 	-7.74313e-23
31.9813 	0.00394445 	0.506124 	1.57371 	-7.74313e-23
32.0514 	0.00394445 	0.506124 	1.57371 	-7.74313e-23
32.1216 	0.00394445 	0.506124 	1.57371 	-7.74313e-23
32.1917 	0.00394445 	0.506124 	1.57371 	-7.74313e-23
32.2618 	0.00394445 	0.506124 	1.57371 	-7.74313e-23
32.332 	0.00394445 	0.506124 	1.57371 	-7.74313e-23
32.4021 	0.00394445 	0.506124 	1.57371 	-7.74313e-23
32.4722 	0.00394445 	0.506124 	1.57371 	-7.74313e-23
32.5424 	0.00394445 	0.506124 	1.57371 	-7.74313e-23
32.6125 	0.00394445 	0.506124 	1.57371 	-7.74313e-23
32.6826 	0.00394445 	0.506124 	1.57371 	-7.74313e-23
32.7528 	0.00394445 	0.506124 	1.57371 	-7.74313e-23
32.8229 	0.00394445 	0.506124 	1.57371 	-7.74313e-23
32.893 	0.00394445 	0.506124 	1.57371 	-7.74313e-23
32.9632 	0.0357982 	0.479061 	1.55229 	2.28237e-21
33.0333 	0.0357982 	0.479061 	1.55229 	2.28237e-21
33.1034 	0.0357982 	0.479061 	1.55229 	2.28237e-21
33.1736 	0.0357982 	0.479061 	1.55229 	2.28237e-21
33.2437 	0.0357982 	0.479061 	1.55229 	2.28237e-21
33.3138 	0.0357982 	0.479061 	1.55229 	2.28237e-21
33.384 	0.0357982 	0.479061 	1.55229 	2.28237e-21
33.4541 	0.0357982 	0.479061 	1.55229 	2.28237e-21
33.5242 	0.0357982 	0.479061 	1.55229 	2.28237e-21
33.5944 	0.0357982 	0.479061 	1.55229 	2.28237e-21
33.6645 	0.0357982 	0.479061 	1.55229 	2.28237e-21
33.7346 	0.0357982 	0.479061 	1.55229 	2.28237e-21
33.8048 	0.0357982 	0.479061 	1.55229 	2.28237e-21
33.8749 	0.0357982 	0.479061 	1.55229 	2.28237e-21
33.945 	0.0357982 	0.479061 	1.55229 	2.28237e-21
34.0152 	0.0357982 	0.479061 	1.55229 	2.28237e-21
34.0853 	0.0357982 	0.479061 	1.55229 	2.28237e-21
34.1554 	0.0357982 	0.479061 	1.55229 	2.28237e-21
34.2256 	0.0862882 	0.43172 	1.52028 	1.12984e-20
34.2957 	0.0862882 	0.43172 	1.52028 	1.12984e-20
34.3659 	0.0862882 	0.43172 	1.52028 	1.12984e-20
34.436 	0.0862882 	0.43172 	1.52028 	1.12984e-20
34.5061 	0.0862882 	0.43172 	1.52028 	1.12984e-20
34.5763 	0.0862882 	0.43172 	1.52028 	1.12984e-20
34.6464 	0.0862882 	0.43172 	1.52028 	1.12984e-20
34.7165 	0.0862882 	0.43172 	1.52028 	1.12984e-20
34.7867 	0.0862882 	0.43172 	1.52028 	1.12984e-20
34.8568 	0.0862882 	0.43172 	1.52028 	1.12984e-20
34.9269 	0.0862882 	0.43172 	1.52028 	1.12984e-20
34.9971 	0.0862882 	0.43172 	1.52028 	1.12984e-20
35.0672 	0.0862882 	0.43172 	1.52028 	1.12984e-20
35.1373 	0.0862882 	0.43172 	1.52028 	1.12984e-20
35.2075 	0.0862882 	0.43172 	1.52028 	1.12984e-20
35.2776 	0.0862882 	0.43172 	1.52028 	1.12984e-20
35.3477 	0.0862882 	0.43172 	1.52028 	1.12984e-20
35.4179 	0.0862882 	0.43172 	1.52028 	1.12984e-20
35.488 	0.0862882 	0.43172 	1.52028 	1.12984e-20
35.5581 	0.0862882 	0.43172 	1.52028 	1.12984e-20
35.6283 	0.135057 	0.35663 	1.48751 	1.5055e-21
35.6984 	0.135057 	0.35663 	1.48751 	1.5055e-21
35.7685 	0.135057 	0.35663 	1.48751 	1.5055e-21
35.8387 	0.135057 	0.35663 	1.48751 	1.5055e-21
35.9088 	0.135057 	0.35663 	1.48751 	1.5055e-21
35.9789 	0.135057 	0.35663 	1.48751 	1.5055e-21
36.0491 	0.135057 	0.35663 	1.48751 	1.5055e-21
36.1192 	0.135057 	0.35663 	1.48751 	1.5055e-21
36.1893 	0.135057 	0.35663 	1.48751 	1.5055e-21
36.2595 	0.135057 	0.35663 	1.48751 	1.5055e-21
36.3296 	0.135057 	0.35663 	1.48751 	1.5055e-21
36.3997 	0.135057 	0.35663 	1.48751 	1.5055e-21
36.4699 	0.135057 	0.35663 	1.48751 	1.5055e-21
36.54 	0.135057 	0.35663 	1.48751 	1.5055e-21
36.6102 	0.135057 	0.35663 	1.48751 	1.5055e-21
36.6803 	0.135057 	0.35663 	1.48751 	1.5055e-21
36.7504 	0.135057 	0.35663 	1.48751 	1.5055e-21
36.8206 	0.135057 	0.35663 	1.48751 	1.5055e-21
36.8907 	0.135057 	0.35663 	1.48751 	1.5055e-21
36.9608 	0.135057 	0.35663 	1.48751 	1.5055e-21
37.031 	0.135057 	0.35663 	1.48751 	1.5055e-21
37.1011 	0.158674 	0.282216 	1.46944 	0
37.1712 	0.158674 	0.282216 	1.46944 	0
37.2414 	0.158674 	0.282216 	1.46944 	0
37.3115 	0.158674 	0.282216 	1.46944 	0
37.3816 	0.158674 	0.282216 	1.46944 	0
37.4518 	0.158674 	0.282216 	1.46944 	0
37.5219 	0.158674 	0.282216 	1.46944 	0
37.592 	0.158674 	0.282216 	1.46944 	0
37.6622 	0.158674 	0.282216 	1.46944 	0
37.7323 	0.158674 	0.282216 	1.46944 	0
37.8024 	0.158674 	0.282216 	1.46944 	0
37.8726 	0.158674 	0.282216 	1.46944 	0
37.9427 	0.158674 	0.282216 	1.46944 	0
38.0128 	0.158674 	0.282216 	1.46944 	0
38.083 	0.158674 	0.282216 	1.46944 	0
38.1531 	0.158674 	0.282216 	1.46944 	0
38.2232 	0.158674 	0.282216 	1.46944 	0
38.2934 	0.159215 	0.216807 	1.46851 	0
38.3635 	0.159215 	0.216807 	1.46851 	0
38.4336 	0.159215 	0.216807 	1.46851 	0
38.5038 	0.159215 	0.216807 	1.46851 	0
38.5739 	0.159215 	0.216807 	1.46851 	0
38.644 	0.159215 	0.216807 	1.46851 	0
38.7142 	0.159215 	0.216807 	1.46851 	0
38.7843 	0.159215 	0.216807 	1.46851 	0
38.8545 	0.159215 	0.216807 	1.46851 	0
38.9246 	0.159215 	0.216807 	1.46851 	0
38.9947 	0.159215 	0.216807 	1.46851 	0
39.0649 	0.159215 	0.216807 	1.46851 	0
39.135 	0.159215 	0.216807 	1.46851 	0
39.2051 	0.159215 	0.216807 	1.46851 	0
39.2753 	0.159215 	0.216807 	1.46851 	0
39.3454 	0.159215 	0.216807 	1.46851 	0
39.4155 	0.159215 	0.216807 	1.46851 	0
39.4857 	0.159215 	0.216807 	1.46851 	0
39.5558 	0.148083 	0.156632 	1.47626 	0
39.6259 	0.148083 	0.156632 	1.47626 	0
39.6961 	0.148083 	0.156632 	1.47626 	0
39.7662 	0.148083 	0.156632 	1.47626 	0
39.8363 	0.148083 	0.156632 	1.47626 	0
39.9065 	0.148083 	0.156632 	1.47626 	0
39.9766 	0.148083 	0.156632 	1.47626 	0
40.0467 	0.148083 	0.156632 	1.47626 	0
40.1169 	0.148083 	0.156632 	1.47626 	0
40.187 	0.148083 	0.156632 	1.47626 	0
40.2571 	0.148083 	0.156632 	1.47626 	0
40.3273 	0.148083 	0.156632 	1.47626 	0
40.3974 	0.148083 	0.156632 	1.47626 	0
40.4675 	0.148083 	0.156632 	1.47626 	0
40.5377 	0.148083 	0.156632 	1.47626 	0
40.6078 	0.148083 	0.156632 	1.47626 	0
40.6779 	0.148083 	0.156632 	1.47626 	0
40.7481 	0.136678 	0.107169 	1.48131 	0
40.8182 	0.136678 	0.107169 	1.48131 	0
40.8883 	0.136678 	0.107169 	1.48131 	0
40.9585 	0.136678 	0.107169 	1.48131 	0
41.0286 	0.136678 	0.107169 	1.48131 	0
41.0988 	0.136678 	0.107169 	1.48131 	0
41.1689 	0.136678 	0.107169 	1.48131 	0
41.239 	0.136678 	0.107169 	1.48131 	0
41.3092 	0.136678 	0.107169 	1.48131 	0
41.3793 	0.136678 	0.107169 	1.48131 	0
41.4494 	0.136678 	0.107169 	1.48131 	0
41.5196 	0.136678 	0.107169 	1.48131 	0
41.5897 	0.136678 	0.107169 	1.48131 	0
41.6598 	0.136678 	0.107169 	1.48131 	0
41.73 	0.136678 	0.107169 	1.48131 	0
41.8001 	0.136678 	0.107169 	1.48131 	0
41.8702 	0.136678 	0.107169 	1.48131 	0
41.9404 	0.136678 	0.107169 	1.48131 	0
42.0105 	0.131161 	0.0670023 	1.48119 	0
42.0806 	0.131161 	0.0670023 	1.48119 	0
42.1508 	0.131161 	0.0670023 	1.48119 	0
42.2209 	0.131161 	0.0670023 	1.48119 	0
42.291 	0.131161 	0.0670023 	1.48119 	0
42.3612 	0.131161 	0.0670023 	1.48119 	0
42.4313 	0.131161 	0.0670023 	1.48119 	0
42.5014 	0.131161 	0.0670023 	1.48119 	0
42.5716 	0.131161 	0.0670023 	1.48119 	0
42.6417 	0.131161 	0.0670023 	1.48119 	0
42.7118 	0.131161 	0.0670023 	1.48119 	0
42.782 	0.131161 	0.0670023 	1.48119 	0
42.8521 	0.131161 	0.0670023 	1.48119 	0
42.9222 	0.131161 	0.0670023 	1.48119 	0
42.9924 	0.131161 	0.0670023 	1.48119 	0
43.0625 	0.131161 	0.0670023 	1.48119 	0
43.1327 	0.131161 	0.0670023 	1.48119 	0
43.2028 	0.134211 	0.0325443 	1.47498 	0
43.2729 	0.134211 	0.0325443 	1.47498 	0
43.3431 	0.134211 	0.0325443 	1.47498 	0
43.4132 	0.134211 	0.0325443 	1.47498 	0
43.4833 	0.134211 	0.0325443 	1.47498 	0
43.5535 	0.134211 	0.0325443 	1.47498 	0
43.6236 	0.134211 	0.0325443 	1.47498 	0
43.6937 	0.134211 	0.0325443 	1.47498 	0
43.7639 	0.134211 	0.0325443 	1.47498 	0
43.834 	0.134211 	0.0325443 	1.47498 	0
43.9041 	0.134211 	0.0325443 	1.47498 	0
43.9743 	0.134211 	0.0325443 	1.47498 	0
44.0444 	0.134211 	0.0325443 	1.47498 	0
44.1145 	0.134211 	0.0325443 	1.47498 	0
44.1847 	0.134211 	0.0325443 	1.47498 	0
44.2548 	0.134211 	0.0325443 	1.47498 	0
44.3249 	0.134211 	0.0325443 	1.47498 	0
44.3951 	0.134211 	0.0325443 	1.47498 	0
44.4652 	0.142767 	0.00479513 	1.46587 	0
44.5353 	0.142767 	0.00479513 	1.46587 	0
44.6055 	0.142767 	0.00479513 	1.46587 	0
44.6756 	0.142767 	0.00479513 	1.46587 	0
44.7457 	0.142767 	0.00479513 	1.46587 	0
44.8159 	0.142767 	0.00479513 	1.46587 	0
44.886 	0.142767 	0.00479513 	1.46587 	0
44.9561 	0.142767 	0.00479513 	1.46587 	0
45.0263 	0.142767 	0.00479513 	1.46587 	0