0.490941 	1.40961 	0.00627686 	3.00062 	-4.335e-20
0.561075 	1.40961 	0.00627686 	3.00062 	-4.335e-20
0.63121 	1.40961 	0.00627686 	3.00062 	-4.335e-20
0.701344 	1.40961 	0.00627686 	3.00062 	-4.335e-20
0.771478 	1.40961 	0.00627686 	3.00062 	-4.335e-20
0.841613 	1.40961 	0.00627686 	3.00062 	-4.335e-20
0.911747 	1.40961 	0.00627686 	3.00062 	-4.335e-20
0.981881 	1.40961 	0.00627686 	3.00062 	-4.335e-20
1.05202 	1.40961 	0.00627686 	3.00062 	-4.335e-20
1.12215 	1.40961 	0.00627686 	3.00062 	-4.335e-20
1.19228 	1.40961 	0.00627686 	3.00062 	-4.335e-20
1.26242 	1.40961 	0.00627686 	3.00062 	-4.335e-20
1.33255 	1.37019 	0.0131711 	3.01473 	-4.37597e-20
1.40269 	1.37019 	0.0131711 	3.01473 	-4.37597e-20
1.47282 	1.37019 	0.0131711 	3.01473 	-4.37597e-20
1.54296 	1.37019 	0.0131711 	3.01473 	-4.37597e-20
1.61309 	1.37019 	0.0131711 	3.01473 	-4.37597e-20
1.68323 	1.37019 	0.0131711 	3.01473 	-4.37597e-20
1.75336 	1.37019 	0.0131711 	3.01473 	-4.37597e-20
1.82349 	1.37019 	0.0131711 	3.01473 	-4.37597e-20
1.89363 	1.37019 	0.0131711 	3.01473 	-4.37597e-20
1.96376 	1.37019 	0.0131711 	3.01473 	-4.37597e-20
2.0339 	1.37019 	0.0131711 	3.01473 	-4.37597e-20
2.10403 	1.37019 	0.0131711 	3.01473 	-4.37597e-20
2.17417 	1.31002 	0.0149029 	3.0313 	9.20386e-20
2.2443 	1.31002 	0.0149029 	3.0313 	9.20386e-20
2.31443 	1.31002 	0.0149029 	3.0313 	9.20386e-20
2.38457 	1.31002 	0.0149029 	3.0313 	9.20386e-20
2.4547 	1.31002 	0.0149029 	3.0313 	9.20386e-20
2.52484 	1.31002 	0.0149029 	3.0313 	9.20386e-20
2.59497 	1.31002 	0.0149029 	3.0313 	9.20386e-20
2.66511 	1.31002 	0.0149029 	3.0313 	9.20386e-20
2.73524 	1.31002 	0.0149029 	3.0313 	9.20386e-20
2.80538 	1.31002 	0.0149029 	3.0313 	9.20386e-20
2.87551 	1.31002 	0.0149029 	3.0313 	9.20386e-20
2.94564 	1.31002 	0.0149029 	3.0313 	9.20386e-20
3.01578 	1.23608 	0.0163553 	3.05889 	-1.05118e-20
3.08591 	1.23608 	0.0163553 	3.05889 	-1.05118e-20
3.15605 	1.23608 	0.0163553 	3.05889 	-1.05118e-20
3.22618 	1.23608 	0.0163553 	3.05889 	-1.05118e-20
3.29632 	1.23608 	0.0163553 	3.05889 	-1.05118e-20
3.36645 	1.23608 	0.0163553 	3.05889 	-1.05118e-20
3.43659 	1.23608 	0.0163553 	3.05889 	-1.05118e-20
3.50672 	1.23608 	0.0163553 	3.05889 	-1.05118e-20
3.57685 	1.23608 	0.0163553 	3.05889 	-1.05118e-20
3.64699 	1.23608 	0.0163553 	3.05889 	-1.05118e-20
3.71712 	1.23608 	0.0163553 	3.05889 	-1.05118e-20
3.78726 	1.22924 	0.00756285 	3.0552 	2.06117e-20
3.85739 	1.15032 	-0.00131348 	3.08393 	-1.48508e-19
3.92753 	1.15032 	-0.00131348 	3.08393 	-1.48508e-19
3.99766 	1.15032 	-0.00131348 	3.08393 	-1.48508e-19
4.06779 	1.15032 	-0.00131348 	3.08393 	-1.48508e-19
4.13793 	1.15032 	-0.00131348 	3.08393 	-1.48508e-19
4.20806 	1.15032 	-0.00131348 	3.08393 	-1.48508e-19
4.2782 	1.15032 	-0.00131348 	3.08393 	-1.48508e-19
4.34833 	1.15032 	-0.00131348 	3.08393 	-1.48508e-19
4.41847 	1.15032 	-0.00131348 	3.08393 	-1.48508e-19
4.4886 	1.15032 	-0.00131348 	3.08393 	-1.48508e-19
4.55874 	1.15032 	-0.00131348 	3.08393 	-1.48508e-19
4.62887 	1.15032 	-0.00131348 	3.08393 	-1.48508e-19
4.699 	1.15032 	-0.00131348 	3.08393 	-1.48508e-19
4.76914 	1.07063 	0.00585856 	3.10607 	2.86568e-19
4.83927 	1.07063 	0.00585856 	3.10607 	2.86568e-19
4.90941 	1.07063 	0.00585856 	3.10607 	2.86568e-19
4.97954 	1.07063 	0.00585856 	3.10607 	2.86568e-19
5.04968 	1.07063 	0.00585856 	3.10607 	2.86568e-19
5.11981 	1.07063 	0.00585856 	3.10607 	2.86568e-19
5.18994 	1.07063 	0.00585856 	3.10607 	2.86568e-19
5.26008 	1.07063 	0.00585856 	3.10607 	2.86568e-19
5.33021 	1.07063 	0.00585856 	3.10607 	2.86568e-19
5.40035 	1.07063 	0.00585856 	3.10607 	2.86568e-19
5.47048 	1.07063 	0.00585856 	3.10607 	2.86568e-19
5.54062 	1.07063 	0.00585856 	3.10607 	2.86568e-19
5.61075 	0.995296 	-0.00193138 	3.13412 	-1.37827e-19
5.68089 	0.995296 	-0.00193138 	3.13412 	-1.37827e-19
5.75102 	0.995296 	-0.00193138 	3.13412 	-1.37827e-19
5.82115 	0.995296 	-0.00193138 	3.13412 	-1.37827e-19
5.89129 	0.995296 	-0.00193138 	3.13412 	-1.37827e-19
5.96142 	0.995296 	-0.00193138 	3.13412 	-1.37827e-19
6.03156 	0.995296 	-0.00193138 	3.13412 	-1.37827e-19
6.10169 	0.995296 	-0.00193138 	3.13412 	-1.37827e-19
6.17183 	0.995296 	-0.00193138 	3.13412 	-1.37827e-19
6.24196 	0.995296 	-0.00193138 	3.13412 	-1.37827e-19
6.3121 	0.995296 	-0.00193138 	3.13412 	-1.37827e-19
6.38223 	0.995296 	-0.00193138 	3.13412 	-1.37827e-19
6.45236 	0.924529 	0.00625906 	3.15215 	0
6.5225 	0.924529 	0.00625906 	3.15215 	0
6.59263 	0.924529 	0.00625906 	3.15215 	0
6.66277 	0.924529 	0.00625906 	3.15215 	0
6.7329 	0.924529 	0.00625906 	3.15215 	0
6.80304 	0.924529 	0.00625906 	3.15215 	0
6.87317 	0.924529 	0.00625906 	3.15215 	0
6.9433 	0.924529 	0.00625906 	3.15215 	0
7.01344 	0.924529 	0.00625906 	3.15215 	0
7.08357 	0.924529 	0.00625906 	3.15215 	0
7.15371 	0.924529 	0.00625906 	3.15215 	0
7.22384 	0.924529 	0.00625906 	3.15215 	0
7.29398 	0.856565 	-0.000223195 	3.17817 	0
7.36411 	0.856565 	-0.000223195 	3.17817 	0
7.43425 	0.856565 	-0.000223195 	3.17817 	0
7.50438 	0.856565 	-0.000223195 	3.17817 	0
7.57451 	0.856565 	-0.000223195 	3.17817 	0
7.64465 	0.856565 	-0.000223195 	3.17817 	0
7.71478 	0.856565 	-0.000223195 	3.17817 	0
7.78492 	0.856565 	-0.000223195 	3.17817 	0
7.85505 	0.856565 	-0.000223195 	3.17817 	0
7.92519 	0.856565 	-0.000223195 	3.17817 	0
7.99532 	0.856565 	-0.000223195 	3.17817 	0
8.06545 	0.856565 	-0.000223195 	3.17817 	0
8.13559 	0.856565 	-0.000223195 	3.17817 	0
8.20572 	0.788932 	0.0103178 	3.19569 	3.95099e-22
8.27586 	0.788932 	0.0103178 	3.19569 	3.95099e-22
8.34599 	0.788932 	0.0103178 	3.19569 	3.95099e-22
8.41613 	0.788932 	0.0103178 	3.19569 	3.95099e-22
8.48626 	0.788932 	0.0103178 	3.19569 	3.95099e-22
8.5564 	0.788932 	0.0103178 	3.19569 	3.95099e-22
8.62653 	0.788932 	0.0103178 	3.19569 	3.95099e-22
8.69666 	0.788932 	0.0103178 	3.19569 	3.95099e-22
8.7668 	0.788932 	0.0103178 	3.19569 	3.95099e-22
8.83693 	0.788932 	0.0103178 	3.19569 	3.95099e-22
8.90707 	0.788932 	0.0103178 	3.19569 	3.95099e-22
8.9772 	0.788932 	0.0103178 	3.19569 	3.95099e-22
9.04734 	0.722833 	0.0068531 	3.22043 	1.83931e-19
9.11747 	0.722833 	0.0068531 	3.22043 	1.83931e-19
9.18761 	0.722833 	0.0068531 	3.22043 	1.83931e-19
9.25774 	0.722833 	0.0068531 	3.22043 	1.83931e-19
9.32787 	0.722833 	0.0068531 	3.22043 	1.83931e-19
9.39801 	0.722833 	0.0068531 	3.22043 	1.83931e-19
9.46814 	0.722833 	0.0068531 	3.22043 	1.83931e-19
9.53828 	0.722833 	0.0068531 	3.22043 	1.83931e-19
9.60841 	0.722833 	0.0068531 	3.22043 	1.83931e-19
9.67855 	0.722833 	0.0068531 	3.22043 	1.83931e-19
9.74868 	0.722833 	0.0068531 	3.22043 	1.83931e-19
9.81881 	0.722833 	0.0068531 	3.22043 	1.83931e-19
9.88895 	0.722833 	0.0068531 	3.22043 	1.83931e-19
9.95908 	0.655072 	0.0244209 	3.23667 	-7.96671e-21
10.0292 	0.655072 	0.0244209 	3.23667 	-7.96671e-21
10.0994 	0.655072 	0.0244209 	3.23667 	-7.96671e-21
10.1695 	0.655072 	0.0244209 	3.23667 	-7.96671e-21
10.2396 	0.655072 	0.0244209 	3.23667 	-7.96671e-21
10.3098 	0.655072 	0.0244209 	3.23667 	-7.96671e-21
10.3799 	0.655072 	0.0244209 	3.23667 	-7.96671e-21
10.45 	0.655072 	0.0244209 	3.23667 	-7.96671e-21
10.5202 	0.655072 	0.0244209 	3.23667 	-7.96671e-21
10.5903 	0.655072 	0.0244209 	3.23667 	-7.96671e-21
10.6604 	0.655072 	0.0244209 	3.23667 	-7.96671e-21
10.7306 	0.655072 	0.0244209 	3.23667 	-7.96671e-21
10.8007 	0.584332 	0.033874 	3.26333 	-1.73582e-19
10.8708 	0.584332 	0.033874 	3.26333 	-1.73582e-19
10.941 	0.584332 	0.033874 	3.26333 	-1.73582e-19
11.0111 	0.584332 	0.033874 	3.26333 	-1.73582e-19
11.0812 	0.584332 	0.033874 	3.26333 	-1.73582e-19
11.1514 	0.584332 	0.033874 	3.26333 	-1.73582e-19
11.2215 	0.584332 	0.033874 	3.26333 	-1.73582e-19
11.2916 	0.584332 	0.033874 	3.26333 	-1.73582e-19
11.3618 	0.584332 	0.033874 	3.26333 	-1.73582e-19
11.4319 	0.584332 	0.033874 	3.26333 	-1.73582e-19
11.502 	0.584332 	0.033874 	3.26333 	-1.73582e-19
11.5722 	0.584332 	0.033874 	3.26333 	-1.73582e-19
11.6423 	0.584332 	0.033874 	3.26333 	-1.73582e-19
11.7124 	0.503081 	0.0729942 	3.28438 	-2.33384e-19
11.7826 	0.503081 	0.0729942 	3.28438 	-2.33384e-19
11.8527 	0.503081 	0.0729942 	3.28438 	-2.33384e-19
11.9228 	0.503081 	0.0729942 	3.28438 	-2.33384e-19
11.993 	0.503081 	0.0729942 	3.28438 	-2.33384e-19
12.0631 	0.503081 	0.0729942 	3.28438 	-2.33384e-19
12.1332 	0.503081 	0.0729942 	3.28438 	-2.33384e-19
12.2034 	0.503081 	0.0729942 	3.28438 	-2.33384e-19
12.2735 	0.503081 	0.0729942 	3.28438 	-2.33384e-19
12.3437 	0.503081 	0.0729942 	3.28438 	-2.33384e-19
12.4138 	0.503081 	0.0729942 	3.28438 	-2.33384e-19
12.4839 	0.503081 	0.0729942 	3.28438 	-2.33384e-19
12.5541 	0.503081 	0.0729942 	3.28438 	-2.33384e-19
12.6242 	0.404909 	0.105309 	3.31648 	4.18079e-19
12.6943 	0.404909 	0.105309 	3.31648 	4.18079e-19
12.7645 	0.404909 	0.105309 	3.31648 	4.18079e-19
12.8346 	0.404909 	0.105309 	3.31648 	4.18079e-19
12.9047 	0.404909 	0.105309 	3.31648 	4.18079e-19
12.9749 	0.404909 	0.105309 	3.31648 	4.18079e-19
13.045 	0.404909 	0.105309 	3.31648 	4.18079e-19
13.1151 	0.404909 	0.105309 	3.31648 	4.18079e-19
13.1853 	0.404909 	0.105309 	3.31648 	4.18079e-19
13.2554 	0.404909 	0.105309 	3.31648 	4.18079e-19
13.3255 	0.404909 	0.105309 	3.31648 	4.18079e-19
13.3957 	0.404909 	0.105309 	3.31648 	4.18079e-19
13.4658 	0.404909 	0.105309 	3.31648 	4.18079e-19
13.5359 	0.268237 	0.196288 	3.35801 	-1.82353e-19
13.6061 	0.268237 	0.196288 	3.35801 	-1.82353e-19
13.6762 	0.268237 	0.196288 	3.35801 	-1.82353e-19
13.7463 	0.268237 	0.196288 	3.35801 	-1.82353e-19
13.8165 	0.268237 	0.196288 	3.35801 	-1.82353e-19
13.8866 	0.268237 	0.196288 	3.35801 	-1.82353e-19
13.9567 	0.268237 	0.196288 	3.35801 	-1.82353e-19
14.0269 	0.268237 	0.196288 	3.35801 	-1.82353e-19
14.097 	0.268237 	0.196288 	3.35801 	-1.82353e-19
14.1671 	0.268237 	0.196288 	3.35801 	-1.82353e-19
14.2373 	0.268237 	0.196288 	3.35801 	-1.82353e-19
14.3074 	0.268237 	0.196288 	3.35801 	-1.82353e-19
14.3776 	0.133729 	0.22515 	3.38909 	0
14.4477 	-0.107435 	0.221593 	3.45659 	-9.45978e-20
14.5178 	-0.107435 	0.221593 	3.45659 	-9.45978e-20
14.588 	-0.107435 	0.221593 	3.45659 	-9.45978e-20
14.6581 	-0.107435 	0.221593 	3.45659 	-9.45978e-20
14.7282 	-0.107435 	0.221593 	3.45659 	-9.45978e-20
14.7984 	-0.107435 	0.221593 	3.45659 	-9.45978e-20
14.8685 	-0.0860286 	0.250269 	3.44801 	1.88457e-19
14.9386 	-0.0860286 	0.250269 	3.44801 	1.88457e-19
15.0088 	-0.0860286 	0.250269 	3.44801 	1.88457e-19
15.0789 	-0.0860286 	0.250269 	3.44801 	1.88457e-19
15.149 	-0.0860286 	0.250269 	3.44801 	1.88457e-19
15.2192 	-0.366817 	0.325167 	3.52759 	-5.97408e-19
15.2893 	-0.366817 	0.325167 	3.52759 	-5.97408e-19
15.3594 	-0.366817 	0.325167 	3.52759 	-5.97408e-19
15.4296 	-0.227889 	0.409839 	3.48558 	2.5572e-19
15.4997 	-0.227889 	0.409839 	3.48558 	2.5572e-19
15.5698 	-0.227889 	0.409839 	3.48558 	2.5572e-19
15.64 	-0.227889 	0.409839 	3.48558 	2.5572e-19
15.7101 	-0.227889 	0.409839 	3.48558 	2.5572e-19
15.7802 	-0.227889 	0.409839 	3.48558 	2.5572e-19
15.8504 	-0.227889 	0.409839 	3.48558 	2.5572e-19
15.9205 	-0.542692 	0.414306 	3.57736 	1.19293e-19
15.9906 	-0.542692 	0.414306 	3.57736 	1.19293e-19
16.0608 	-0.542692 	0.414306 	3.57736 	1.19293e-19
16.1309 	-0.296164 	0.514173 	3.48798 	-1.11705e-19
16.201 	-0.296164 	0.514173 	3.48798 	-1.11705e-19
16.2712 	-0.296164 	0.514173 	3.48798 	-1.11705e-19
16.3413 	-0.296164 	0.514173 	3.48798 	-1.11705e-19
16.4114 	-0.296164 	0.514173 	3.48798 	-1.11705e-19
16.4816 	-0.296164 	0.514173 	3.48798 	-1.11705e-19
16.5517 	-0.296164 	0.514173 	3.48798 	-1.11705e-19
16.6219 	-0.537802 	0.624562 	3.5712 	0
16.692 	-0.537802 	0.624562 	3.5712 	0
16.7621 	-0.537802 	0.624562 	3.5712 	0
16.8323 	-0.537802 	0.624562 	3.5712 	0
16.9024 	-0.537802 	0.624562 	3.5712 	0
16.9725 	-0.241851 	0.626254 	3.44282 	-6.95515e-20
17.0427 	-0.241851 	0.626254 	3.44282 	-6.95515e-20
17.1128 	-0.241851 	0.626254 	3.44282 	-6.95515e-20
17.1829 	-0.241851 	0.626254 	3.44282 	-6.95515e-20
17.2531 	-0.434494 	0.746475 	3.52878 	-4.46224e-19
17.3232 	-0.434494 	0.746475 	3.52878 	-4.46224e-19
17.3933 	-0.434494 	0.746475 	3.52878 	-4.46224e-19
17.4635 	-0.434494 	0.746475 	3.52878 	-4.46224e-19
17.5336 	-0.434494 	0.746475 	3.52878 	-4.46224e-19
17.6037 	-0.434494 	0.746475 	3.52878 	-4.46224e-19
17.6739 	-0.434494 	0.746475 	3.52878 	-4.46224e-19
17.744 	-0.434494 	0.746475 	3.52878 	-4.46224e-19
17.8141 	-0.434494 	0.746475 	3.52878 	-4.46224e-19
17.8843 	-0.434494 	0.746475 	3.52878 	-4.46224e-19
17.9544 	-0.293083 	0.769954 	3.38765 	0
18.0245 	-0.293083 	0.769954 	3.38765 	0
18.0947 	-0.293083 	0.769954 	3.38765 	0
18.1648 	-0.293083 	0.769954 	3.38765 	0
18.2349 	-0.293083 	0.769954 	3.38765 	0
18.3051 	-0.293083 	0.769954 	3.38765 	0
18.3752 	-0.293083 	0.769954 	3.38765 	0
18.4453 	-0.293083 	0.769954 	3.38765 	0
18.5155 	-0.293083 	0.769954 	3.38765 	0
18.5856 	-0.41494 	0.886873 	3.44952 	0
18.6557 	-0.41494 	0.886873 	3.44952 	0
18.7259 	-0.41494 	0.886873 	3.44952 	0
18.796 	-0.41494 	0.886873 	3.44952 	0
18.8662 	-0.41494 	0.886873 	3.44952 	0
18.9363 	-0.41494 	0.886873 	3.44952 	0
19.0064 	-0.41494 	0.886873 	3.44952 	0
19.0766 	-0.41494 	0.886873 	3.44952 	0
19.1467 	-0.41494 	0.886873 	3.44952 	0
19.2168 	-0.484455 	0.978176 	3.45057 	2.64085e-19
19.287 	-0.150883 	0.862209 	3.04489 	1.14784e-19
19.3571 	-0.150883 	0.862209 	3.04489 	1.14784e-19
19.4272 	-0.150883 	0.862209 	3.04489 	1.14784e-19
19.4974 	-0.150883 	0.862209 	3.04489 	1.14784e-19
19.5675 	-0.150883 	0.862209 	3.04489 	1.14784e-19
19.6376 	-0.150883 	0.862209 	3.04489 	1.14784e-19
19.7078 	-0.150883 	0.862209 	3.04489 	1.14784e-19
19.7779 	-0.150883 	0.862209 	3.04489 	1.14784e-19
19.848 	-0.150883 	0.862209 	3.04489 	1.14784e-19
19.9182 	-0.196043 	0.958021 	3.1481 	1.74328e-19
19.9883 	-0.196043 	0.958021 	3.1481 	1.74328e-19
20.0584 	-0.196043 	0.958021 	3.1481 	1.74328e-19
20.1286 	-0.196043 	0.958021 	3.1481 	1.74328e-19
20.1987 	-0.196043 	0.958021 	3.1481 	1.74328e-19
20.2688 	-0.196043 	0.958021 	3.1481 	1.74328e-19
20.339 	-0.196043 	0.958021 	3.1481 	1.74328e-19
20.4091 	-0.196043 	0.958021 	3.1481 	1.74328e-19
20.4792 	-0.196043 	0.958021 	3.1481 	1.74328e-19
20.5494 	-0.196043 	0.958021 	3.1481 	1.74328e-19
20.6195 	-0.244385 	1.06007 	3.20071 	1.66338e-19
20.6896 	-0.244385 	1.06007 	3.20071 	1.66338e-19
20.7598 	-0.244385 	1.06007 	3.20071 	1.66338e-19
20.8299 	-0.244385 	1.06007 	3.20071 	1.66338e-19
20.9 	-0.0192776 	0.804373 	2.27182 	7.99978e-21
20.9702 	-0.0192776 	0.804373 	2.27182 	7.99978e-21
21.0403 	-0.0192776 	0.804373 	2.27182 	7.99978e-21
21.1105 	-0.0192776 	0.804373 	2.27182 	7.99978e-21
21.1806 	-0.0192776 	0.804373 	2.27182 	7.99978e-21
21.2507 	-0.0192776 	0.804373 	2.27182 	7.99978e-21
21.3209 	-0.0599164 	0.922343 	2.39429 	0
21.391 	-0.0599164 	0.922343 	2.39429 	0
21.4611 	-0.0599164 	0.922343 	2.39429 	0
21.5313 	-0.0599164 	0.922343 	2.39429 	0
21.6014 	-0.0599164 	0.922343 	2.39429 	0
21.6715 	-0.0599164 	0.922343 	2.39429 	0
21.7417 	-0.0599164 	0.922343 	2.39429 	0
21.8118 	-0.0599164 	0.922343 	2.39429 	0
21.8819 	-0.0599164 	0.922343 	2.39429 	0
21.9521 	-0.0599164 	0.922343 	2.39429 	0
22.0222 	-0.0599164 	0.922343 	2.39429 	0
22.0923 	-0.121192 	1.02986 	2.5132 	8.31796e-20
22.1625 	-0.121192 	1.02986 	2.5132 	8.31796e-20
22.2326 	-0.121192 	1.02986 	2.5132 	8.31796e-20
22.3027 	-0.121192 	1.02986 	2.5132 	8.31796e-20
22.3729 	-0.121192 	1.02986 	2.5132 	8.31796e-20
22.443 	-0.121192 	1.02986 	2.5132 	8.31796e-20
22.5131 	-0.121192 	1.02986 	2.5132 	8.31796e-20
22.5833 	-0.121192 	1.02986 	2.5132 	8.31796e-20
22.6534 	-0.121192 	1.02986 	2.5132 	8.31796e-20
22.7235 	-0.121192 	1.02986 	2.5132 	8.31796e-20
22.7937 	-0.121192 	1.02986 	2.5132 	8.31796e-20
22.8638 	-0.202027 	1.13627 	2.58169 	-3.5131e-19
22.9339 	-0.202027 	1.13627 	2.58169 	-3.5131e-19
23.0041 	-0.202027 	1.13627 	2.58169 	-3.5131e-19
23.0742 	-0.201765 	1.12891 	1.82714 	-1.28841e-20
23.1443 	-0.201765 	1.12891 	1.82714 	-1.28841e-20
23.2145 	-0.201765 	1.12891 	1.82714 	-1.28841e-20
23.2846 	-0.201765 	1.12891 	1.82714 	-1.28841e-20
23.3548 	-0.201765 	1.12891 	1.82714 	-1.28841e-20
23.4249 	-0.201765 	1.12891 	1.82714 	-1.28841e-20
23.495 	-0.201765 	1.12891 	1.82714 	-1.28841e-20
23.5652 	-0.201765 	1.12891 	1.82714 	-1.28841e-20
23.6353 	-0.201765 	1.12891 	1.82714 	-1.28841e-20
23.7054 	-0.427415 	1.33151 	1.92197 	1.881e-19
23.7756 	-0.427415 	1.33151 	1.92197 	1.881e-19
23.8457 	-0.427415 	1.33151 	1.92197 	1.881e-19
23.9158 	-0.427415 	1.33151 	1.92197 	1.881e-19
23.986 	-0.427415 	1.33151 	1.92197 	1.881e-19
24.0561 	-0.427415 	1.33151 	1.92197 	1.881e-19
24.1262 	-0.427415 	1.33151 	1.92197 	1.881e-19
24.1964 	-0.427415 	1.33151 	1.92197 	1.881e-19
24.2665 	-0.427415 	1.33151 	1.92197 	1.881e-19
24.3366 	-0.427415 	1.33151 	1.92197 	1.881e-19
24.4068 	-0.427415 	1.33151 	1.92197 	1.881e-19
24.4769 	-0.427415 	1.33151 	1.92197 	1.881e-19
24.547 	-0.427415 	1.33151 	1.92197 	1.881e-19
24.6172 	-0.717785 	1.47128 	2.04642 	-9.38558e-19
24.6873 	-0.717785 	1.47128 	2.04642 	-9.38558e-19
24.7574 	-0.717785 	1.47128 	2.04642 	-9.38558e-19
24.8276 	-0.717785 	1.47128 	2.04642 	-9.38558e-19
24.8977 	-0.717785 	1.47128 	2.04642 	-9.38558e-19
24.9678 	-0.717785 	1.47128 	2.04642 	-9.38558e-19
25.038 	-0.717785 	1.47128 	2.04642 	-9.38558e-19
25.1081 	-0.717785 	1.47128 	2.04642 	-9.38558e-19
25.1782 	-0.717785 	1.47128 	2.04642 	-9.38558e-19
25.2484 	-0.717785 	1.47128 	2.04642 	-9.38558e-19
25.3185 	-0.717785 	1.47128 	2.04642 	-9.38558e-19
25.3886 	-0.717785 	1.47128 	2.04642 	-9.38558e-19
25.4588 	-1.01505 	1.47819 	2.21046 	1.14832e-18
25.5289 	-1.01505 	1.47819 	2.21046 	1.14832e-18
25.5991 	-1.01505 	1.47819 	2.21046 	1.14832e-18
25.6692 	-1.01505 	1.47819 	2.21046 	1.14832e-18
25.7393 	-1.01505 	1.47819 	2.21046 	1.14832e-18
25.8095 	-1.01505 	1.47819 	2.21046 	1.14832e-18
25.8796 	-1.01505 	1.47819 	2.21046 	1.14832e-18
25.9497 	-1.01505 	1.47819 	2.21046 	1.14832e-18
26.0199 	-1.01505 	1.47819 	2.21046 	1.14832e-18
26.09 	-1.02683 	1.00977 	1.35354 	1.96911e-19
26.1601 	-1.02683 	1.00977 	1.35354 	1.96911e-19
26.2303 	-1.02683 	1.00977 	1.35354 	1.96911e-19
26.3004 	-1.02683 	1.00977 	1.35354 	1.96911e-19
26.3705 	-1.02683 	1.00977 	1.35354 	1.96911e-19
26.4407 	-1.24634 	0.730122 	1.44157 	-2.68819e-19
26.5108 	-1.24634 	0.730122 	1.44157 	-2.68819e-19
26.5809 	-1.24634 	0.730122 	1.44157 	-2.68819e-19
26.6511 	-1.24634 	0.730122 	1.44157 	-2.68819e-19
26.7212 	-1.24634 	0.730122 	1.44157 	-2.68819e-19
26.7913 	-1.24634 	0.730122 	1.44157 	-2.68819e-19
26.8615 	-1.24634 	0.730122 	1.44157 	-2.68819e-19
26.9316 	-1.24634 	0.730122 	1.44157 	-2.68819e-19
27.0017 	-1.24634 	0.730122 	1.44157 	-2.68819e-19
27.0719 	-1.24634 	0.730122 	1.44157 	-2.68819e-19
27.142 	-1.24634 	0.730122 	1.44157 	-2.68819e-19
27.2121 	-1.24634 	0.730122 	1.44157 	-2.68819e-19
27.2823 	-1.24634 	0.730122 	1.44157 	-2.68819e-19
27.3524 	-1.31478 	0.376012 	1.5367 	0
27.4225 	-1.31478 	0.376012 	1.5367 	0
27.4927 	-1.31478 	0.376012 	1.5367 	0
27.5628 	-1.31478 	0.376012 	1.5367 	0
27.6329 	-1.31478 	0.376012 	1.5367 	0
27.7031 	-1.31478 	0.376012 	1.5367 	0
27.7732 	-1.31478 	0.376012 	1.5367 	0
27.8434 	-1.31478 	0.376012 	1.5367 	0
27.9135 	-1.31478 	0.376012 	1.5367 	0
27.9836 	-1.31478 	0.376012 	1.5367 	0
28.0538 	-1.31478 	0.376012 	1.5367 	0
28.1239 	-1.31478 	0.376012 	1.5367 	0
28.194 	-1.31478 	0.376012 	1.5367 	0
28.2642 	-1.31478 	0.376012 	1.5367 	0
28.3343 	-1.31478 	0.376012 	1.5367 	0
28.4044 	-1.15281 	0.0214125 	1.65532 	0
28.4746 	-1.15281 	0.0214125 	1.65532 	0
28.5447 	-1.15281 	0.0214125 	1.65532 	0
28.6148 	-1.15281 	0.0214125 	1.65532 	0
28.685 	-1.15281 	0.0214125 	1.65532 	0
28.7551 	-1.15281 	0.0214125 	1.65532 	0
28.8252 	-1.15281 	0.0214125 	1.65532 	0
28.8954 	-1.15281 	0.0214125 	1.65532 	0
28.9655 	-1.15281 	0.0214125 	1.65532 	0
29.0356 	-1.15281 	0.0214125 	1.65532 	0
29.1058 	-1.15281 	0.0214125 	1.65532 	0
29.1759 	-1.15281 	0.0214125 	1.65532 	0
29.246 	-1.15281 	0.0214125 	1.65532 	0
29.3162 	-1.15281 	0.0214125 	1.65532 	0
29.3863 	-1.15281 	0.0214125 	1.65532 	0
29.4564 	-0.788619 	-0.226234 	1.76147 	-2.50579e-19
29.5266 	-0.788619 	-0.226234 	1.76147 	-2.50579e-19
29.5967 	-0.788619 	-0.226234 	1.76147 	-2.50579e-19
29.6668 	-0.788619 	-0.226234 	1.76147 	-2.50579e-19
29.737 	-0.788619 	-0.226234 	1.76147 	-2.50579e-19
29.8071 	-0.788619 	-0.226234 	1.76147 	-2.50579e-19
29.8773 	-0.788619 	-0.226234 	1.76147 	-2.50579e-19
29.9474 	-0.788619 	-0.226234 	1.76147 	-2.50579e-19
30.0175 	-0.788619 	-0.226234 	1.76147 	-2.50579e-19
30.0877 	-0.788619 	-0.226234 	1.76147 	-2.50579e-19
30.1578 	-0.788619 	-0.226234 	1.76147 	-2.50579e-19
30.2279 	-0.788619 	-0.226234 	1.76147 	-2.50579e-19
30.2981 	-0.788619 	-0.226234 	1.76147 	-2.50579e-19
30.3682 	-0.788619 	-0.226234 	1.76147 	-2.50579e-19
30.4383 	-0.788619 	-0.226234 	1.76147 	-2.50579e-19
30.5085 	-0.788619 	-0.226234 	1.76147 	-2.50579e-19
30.5786 	-0.381446 	-0.323237 	1.82884 	1.74052e-19
30.6487 	-0.381446 	-0.323237 	1.82884 	1.74052e-19
30.7189 	-0.381446 	-0.323237 	1.82884 	1.74052e-19
30.789 	-0.381446 	-0.323237 	1.82884 	1.74052e-19
30.8591 	-0.381446 	-0.323237 	1.82884 	1.74052e-19
30.9293 	-0.381446 	-0.323237 	1.82884 	1.74052e-19
30.9994 	-0.381446 	-0.323237 	1.82884 	1.74052e-19
31.0695 	-0.381446 	-0.323237 	1.82884 	1.74052e-19
31.1397 	-0.381446 	-0.323237 	1.82884 	1.74052e-19
31.2098 	-0.381446 	-0.323237 	1.82884 	1.74052e-19
31.2799 	-0.381446 	-0.323237 	1.82884 	1.74052e-19
31.3501 	-0.381446 	-0.323237 	1.82884 	1.74052e-19
31.4202 	-0.381446 	-0.323237 	1.82884 	1.74052e-19
31.4903 	-0.381446 	-0.323237 	1.82884 	1.74052e-19
31.5605 	-0.364607 	-0.221241 	1.4889 	-1.95726e-19
31.6306 	-0.364607 	-0.221241 	1.4889 	-1.95726e-19
31.7007 	-0.182399 	-0.210302 	1.60905 	1.10955e-19
31.7709 	-0.182399 	-0.210302 	1.60905 	1.10955e-19
31.841 	-0.182399 	-0.210302 	1.60905 	1.10955e-19
31.9111 	-0.182399 	-0.210302 	1.60905 	1.10955e-19
31.9813 	-0.182399 	-0.210302 	1.60905 	1.10955e-19
32.0514 	-0.182399 	-0.210302 	1.60905 	1.10955e-19
32.1216 	-0.182399 	-0.210302 	1.60905 	1.10955e-19
32.1917 	-0.182399 	-0.210302 	1.60905 	1.10955e-19
32.2618 	-0.182399 	-0.210302 	1.60905 	1.10955e-19
32.332 	-0.182399 	-0.210302 	1.60905 	1.10955e-19
32.4021 	-0.182399 	-0.210302 	1.60905 	1.10955e-19
32.4722 	-0.182399 	-0.210302 	1.60905 	1.10955e-19
32.5424 	-0.182399 	-0.210302 	1.60905 	1.10955e-19
32.6125 	-0.182399 	-0.210302 	1.60905 	1.10955e-19
32.6826 	-0.182399 	-0.210302 	1.60905 	1.10955e-19
32.7528 	-0.182399 	-0.210302 	1.60905 	1.10955e-19
32.8229 	-0.182399 	-0.210302 	1.60905 	1.10955e-19
32.893 	-0.182399 	-0.210302 	1.60905 	1.10955e-19
32.9632 	-0.0455641 	-0.151778 	1.70153 	2.4272e-20
33.0333 	-0.0455641 	-0.151778 	1.70153 	2.4272e-20
33.1034 	-0.0455641 	-0.151778 	1.70153 	2.4272e-20
33.1736 	-0.0455641 	-0.151778 	1.70153 	2.4272e-20
33.2437 	-0.0455641 	-0.151778 	1.70153 	2.4272e-20
33.3138 	-0.0455641 	-0.151778 	1.70153 	2.4272e-20
33.384 	-0.0455641 	-0.151778 	1.70153 	2.4272e-20
33.4541 	-0.0455641 	-0.151778 	1.70153 	2.4272e-20
33.5242 	-0.0455641 	-0.151778 	1.70153 	2.4272e-20
33.5944 	-0.0455641 	-0.151778 	1.70153 	2.4272e-20
33.6645 	-0.0455641 	-0.151778 	1.70153 	2.4272e-20
33.7346 	-0.0455641 	-0.151778 	1.70153 	2.4272e-20
33.8048 	-0.0455641 	-0.151778 	1.70153 	2.4272e-20
33.8749 	-0.0455641 	-0.151778 	1.70153 	2.4272e-20
33.945 	-0.0455641 	-0.151778 	1.70153 	2.4272e-20
34.0152 	-0.0455641 	-0.151778 	1.70153 	2.4272e-20
34.0853 	-0.0455641 	-0.151778 	1.70153 	2.4272e-20
34.1554 	-0.0455641 	-0.151778 	1.70153 	2.4272e-20
34.2256 	0.0213469 	-0.0922799 	1.76133 	8.86408e-21
34.2957 	0.0213469 	-0.0922799 	1.76133 	8.86408e-21
34.3659 	0.0213469 	-0.0922799 	1.76133 	8.86408e-21
34.436 	0.0213469 	-0.0922799 	1.76133 	8.86408e-21
34.5061 	0.0213469 	-0.0922799 	1.76133 	8.86408e-21
34.5763 	0.0213469 	-0.0922799 	1.76133 	8.86408e-21
34.6464 	0.0213469 	-0.0922799 	1.76133 	8.86408e-21
34.7165 	0.0213469 	-0.0922799 	1.76133 	8.86408e-21
34.7867 	0.0213469 	-0.0922799 	1.76133 	8.86408e-21
34.8568 	0.0213469 	-0.0922799 	1.76133 	8.86408e-21
34.9269 	0.0213469 	-0.0922799 	1.76133 	8.86408e-21
34.9971 	0.0213469 	-0.0922799 	1.76133 	8.86408e-21
35.0672 	0.0213469 	-0.0922799 	1.76133 	8.86408e-21
35.1373 	0.0213469 	-0.0922799 	1.76133 	8.86408e-21
35.2075 	0.0213469 	-0.0922799 	1.76133 	8.86408e-21
35.2776 	0.0213469 	-0.0922799 	1.76133 	8.86408e-21
35.3477 	0.0213469 	-0.0922799 	1.76133 	8.86408e-21
35.4179 	0.0213469 	-0.0922799 	1.76133 	8.86408e-21
35.488 	0.0213469 	-0.0922799 	1.76133 	8.86408e-21
35.5581 	0.0213469 	-0.0922799 	1.76133 	8.86408e-21
35.6283 	0.0546025 	-0.0497374 	1.79295 	-3.22224e-22
35.6984 	0.0546025 	-0.0497374 	1.79295 	-3.22224e-22
35.7685 	0.0546025 	-0.0497374 	1.79295 	-3.22224e-22
35.8387 	0.0546025 	-0.0497374 	1.79295 	-3.22224e-22
35.9088 	0.0546025 	-0.0497374 	1.79295 	-3.22224e-22
35.9789 	0.0546025 	-0.0497374 	1.79295 	-3.22224e-22
36.0491 	0.0546025 	-0.0497374 	1.79295 	-3.22224e-22
36.1192 	0.0546025 	-0.0497374 	1.79295 	-3.22224e-22
36.1893 	0.0546025 	-0.0497374 	1.79295 	-3.22224e-22
36.2595 	0.0546025 	-0.0497374 	1.79295 	-3.22224e-22
36.3296 	0.0546025 	-0.0497374 	1.79295 	-3.22224e-22
36.3997 	0.0546025 	-0.0497374 	1.79295 	-3.22224e-22
36.4699 	0.0546025 	-0.0497374 	1.79295 	-3.22224e-22
36.54 	0.0546025 	-0.0497374 	1.79295 	-3.22224e-22
36.6102 	0.0546025 	-0.0497374 	1.79295 	-3.22224e-22
36.6803 	0.0546025 	-0.0497374 	1.79295 	-3.22224e-22
36.7504 	0.0546025 	-0.0497374 	1.79295 	-3.22224e-22
36.8206 	0.0546025 	-0.0497374 	1.79295 	-3.22224e-22
36.8907 	0.0546025 	-0.0497374 	1.79295 	-3.22224e-22
36.9608 	0.0546025 	-0.0497374 	1.79295 	-3.22224e-22
37.031 	0.0546025 	-0.0497374 	1.79295 	-3.22224e-22
37.1011 	0.0667429 	-0.0253807 	1.80965 	0
37.1712 	0.0667429 	-0.0253807 	1.80965 	0
37.2414 	0.0667429 	-0.0253807 	1.80965 	0
37.3115 	0.0667429 	-0.0253807 	1.80965 	0
37.3816 	0.0667429 	-0.0253807 	1.80965 	0
37.4518 	0.0667429 	-0.0253807 	1.80965 	0
37.5219 	0.0667429 	-0.0253807 	1.80965 	0
37.592 	0.0667429 	-0.0253807 	1.80965 	0
37.6622 	0.0667429 	-0.0253807 	1.80965 	0
37.7323 	0.0667429 	-0.0253807 	1.80965 	0
37.8024 	0.0667429 	-0.0253807 	1.80965 	0
37.8726 	0.0667429 	-0.0253807 	1.80965 	0
37.9427 	0.0667429 	-0.0253807 	1.80965 	0
38.0128 	0.0667429 	-0.0253807 	1.80965 	0
38.083 	0.0667429 	-0.0253807 	1.80965 	0
38.1531 	0.0667429 	-0.0253807 	1.80965 	0
38.2232 	0.0667429 	-0.0253807 	1.80965 	0
38.2934 	0.0712239 	-0.0151461 	1.81993 	0
38.3635 	0.0712239 	-0.0151461 	1.81993 	0
38.4336 	0.0712239 	-0.0151461 	1.81993 	0
38.5038 	0.0712239 	-0.0151461 	1.81993 	0
38.5739 	0.0712239 	-0.0151461 	1.81993 	0
38.644 	0.0712239 	-0.0151461 	1.81993 	0
38.7142 	0.0712239 	-0.0151461 	1.81993 	0
38.7843 	0.0712239 	-0.0151461 	1.81993 	0
38.8545 	0.0712239 	-0.0151461 	1.81993 	0
38.9246 	0.0712239 	-0.0151461 	1.81993 	0
38.9947 	0.0712239 	-0.0151461 	1.81993 	0
39.0649 	0.0712239 	-0.0151461 	1.81993 	0
39.135 	0.0712239 	-0.0151461 	1.81993 	0
39.2051 	0.0712239 	-0.0151461 	1.81993 	0
39.2753 	0.0712239 	-0.0151461 	1.81993 	0
39.3454 	0.0712239 	-0.0151461 	1.81993 	0
39.4155 	0.0712239 	-0.0151461 	1.81993 	0
39.4857 	0.0712239 	-0.0151461 	1.81993 	0
39.5558 	0.0737941 	-0.0125481 	1.82624 	0
39.6259 	0.0737941 	-0.0125481 	1.82624 	0
39.6961 	0.0737941 	-0.0125481 	1.82624 	0
39.7662 	0.0737941 	-0.0125481 	1.82624 	0
39.8363 	0.0737941 	-0.0125481 	1.82624 	0
39.9065 	0.0737941 	-0.0125481 	1.82624 	0
39.9766 	0.0737941 	-0.0125481 	1.82624 	0
40.0467 	0.0737941 	-0.0125481 	1.82624 	0
40.1169 	0.0737941 	-0.0125481 	1.82624 	0
40.187 	0.0737941 	-0.0125481 	1.82624 	0
40.2571 	0.0737941 	-0.0125481 	1.82624 	0
40.3273 	0.0737941 	-0.0125481 	1.82624 	0
40.3974 	0.0737941 	-0.0125481 	1.82624 	0
40.4675 	0.0737941 	-0.0125481 	1.82624 	0
40.5377 	0.0737941 	-0.0125481 	1.82624 	0
40.6078 	0.0737941 	-0.0125481 	1.82624 	0
40.6779 	0.0737941 	-0.0125481 	1.82624 	0
40.7481 	0.0760622 	-0.0123022 	1.82966 	0
40.8182 	0.0760622 	-0.0123022 	1.82966 	0
40.8883 	0.0760622 	-0.0123022 	1.82966 	0
40.9585 	0.0760622 	-0.0123022 	1.82966 	0
41.0286 	0.0760622 	-0.0123022 	1.82966 	0
41.0988 	0.0760622 	-0.0123022 	1.82966 	0
41.1689 	0.0760622 	-0.0123022 	1.82966 	0
41.239 	0.0760622 	-0.0123022 	1.82966 	0
41.3092 	0.0760622 	-0.0123022 	1.82966 	0
41.3793 	0.0760622 	-0.0123022 	1.82966 	0
41.4494 	0.0760622 	-0.0123022 	1.82966 	0
41.5196 	0.0760622 	-0.0123022 	1.82966 	0
41.5897 	0.0760622 	-0.0123022 	1.82966 	0
41.6598 	0.0760622 	-0.0123022 	1.82966 	0
41.73 	0.0760622 	-0.0123022 	1.82966 	0
41.8001 	0.0760622 	-0.0123022 	1.82966 	0
41.8702 	0.0760622 	-0.0123022 	1.82966 	0
41.9404 	0.0760622 	-0.0123022 	1.82966 	0
42.0105 	0.079274 	-0.0123325 	1.83053 	0
42.0806 	0.079274 	-0.0123325 	1.83053 	0
42.1508 	0.079274 	-0.0123325 	1.83053 	0
42.2209 	0.079274 	-0.0123325 	1.83053 	0
42.291 	0.079274 	-0.0123325 	1.83053 	0
42.3612 	0.079274 	-0.0123325 	1.83053 	0
42.4313 	0.079274 	-0.0123325 	1.83053 	0
42.5014 	0.079274 	-0.0123325 	1.83053 	0
42.5716 	0.079274 	-0.0123325 	1.83053 	0
42.6417 	0.079274 	-0.0123325 	1.83053 	0
42.7118 	0.079274 	-0.0123325 	1.83053 	0
42.782 	0.079274 	-0.0123325 	1.83053 	0
42.8521 	0.079274 	-0.0123325 	1.83053 	0
42.9222 	0.079274 	-0.0123325 	1.83053 	0
42.9924 	0.079274 	-0.0123325 	1.83053 	0
43.0625 	0.079274 	-0.0123325 	1.83053 	0
43.1327 	0.079274 	-0.0123325 	1.83053 	0
43.2028 	0.0842867 	-0.0118691 	1.82957 	0
43.2729 	0.0842867 	-0.0118691 	1.82957 	0
43.3431 	0.0842867 	-0.0118691 	1.82957 	0
43.4132 	0.0842867 	-0.0118691 	1.82957 	0
43.4833 	0.0842867 	-0.0118691 	1.82957 	0
43.5535 	0.0842867 	-0.0118691 	1.82957 	0
43.6236 	0.0842867 	-0.0118691 	1.82957 	0
43.6937 	0.0842867 	-0.0118691 	1.82957 	0
43.7639 	0.0842867 	-0.0118691 	1.82957 	0
43.834 	0.0842867 	-0.0118691 	1.82957 	0