/*--------------------------------*- C++ -*----------------------------------*\
| =========                 |                                                 |
| \\      /  F ield         | OpenFOAM: The Open Source CFD Toolbox           |
|  \\    /   O peration     | Version:  2306                                  |
|   \\  /    A nd           | Website:  www.openfoam.com                      |
|    \\/     M anipulation  |                                                 |
\*---------------------------------------------------------------------------*/
FoamFile
{
    version     2.0;
    format      ascii;
    arch        "LSB;label=32;scalar=64";
    class       volScalarField;
    location    "32";
    object      p;
}
// * * * * * * * * * * * * * * * * * * * * * * * * * * * * * * * * * * * * * //

dimensions      [0 2 -2 0 0 0 0];

internalField   nonuniform List<scalar> 
8800
(
1.4975
1.44945
1.41107
1.38242
1.36178
1.347
1.33637
1.32882
1.32393
1.32179
1.32296
1.3271
1.3337
1.343
1.35572
1.37329
1.39771
1.43132
1.47375
1.53088
1.33004
1.33725
1.34568
1.34909
1.34716
1.34162
1.33489
1.32869
1.32388
1.32095
1.32058
1.323
1.32744
1.33339
1.34026
1.34685
1.35096
1.35043
1.34436
1.33537
1.30677
1.31295
1.31714
1.32049
1.32298
1.32375
1.32261
1.32042
1.31832
1.31731
1.31818
1.32048
1.32325
1.32541
1.3259
1.32434
1.32147
1.31781
1.31327
1.30948
1.30167
1.30437
1.30709
1.30939
1.31102
1.31232
1.31319
1.31335
1.31301
1.31287
1.3135
1.31456
1.31527
1.31514
1.31429
1.31305
1.31127
1.30875
1.30631
1.30478
1.29653
1.29795
1.29974
1.30179
1.30353
1.30481
1.3058
1.30661
1.3072
1.30768
1.30819
1.30852
1.30845
1.30802
1.30725
1.306
1.30425
1.30234
1.301
1.30018
1.29158
1.2925
1.29373
1.29531
1.29695
1.29845
1.29968
1.3007
1.3016
1.30238
1.30291
1.30305
1.30287
1.30233
1.30136
1.30007
1.29866
1.29734
1.2965
1.29596
1.2868
1.28746
1.28842
1.28972
1.29113
1.29259
1.294
1.29526
1.29635
1.29731
1.29794
1.29812
1.29787
1.29721
1.29627
1.2952
1.2941
1.29311
1.2925
1.2921
1.28216
1.28267
1.28346
1.28459
1.28587
1.28724
1.28866
1.29008
1.29141
1.29257
1.29334
1.29357
1.29332
1.29273
1.29194
1.29107
1.29018
1.28941
1.28894
1.28864
1.2776
1.27801
1.27867
1.2797
1.28091
1.28223
1.28365
1.28515
1.28665
1.28804
1.289
1.28936
1.28923
1.2888
1.2882
1.2875
1.28676
1.28616
1.2858
1.28556
1.27307
1.2734
1.27397
1.27493
1.2761
1.27741
1.27884
1.28041
1.28206
1.2837
1.28491
1.28548
1.28558
1.28536
1.28493
1.2844
1.28381
1.28334
1.28306
1.28286
1.2685
1.26876
1.26928
1.2702
1.27136
1.2727
1.2742
1.27587
1.2777
1.27959
1.28113
1.28203
1.28239
1.28239
1.28214
1.28176
1.2813
1.28094
1.28073
1.28057
1.26382
1.26404
1.26452
1.26543
1.26662
1.26803
1.26965
1.27151
1.2736
1.27584
1.27778
1.27903
1.27968
1.2799
1.27983
1.2796
1.27927
1.27901
1.27885
1.27872
1.259
1.25917
1.25963
1.26056
1.26182
1.26333
1.2651
1.26719
1.26962
1.27231
1.27475
1.27641
1.27739
1.2779
1.27806
1.27798
1.27778
1.2776
1.27749
1.27738
1.25396
1.25409
1.25454
1.2555
1.25685
1.25848
1.26043
1.26277
1.26557
1.26881
1.27185
1.27407
1.27552
1.27638
1.27682
1.27695
1.27689
1.2768
1.27674
1.27665
1.24864
1.24873
1.24918
1.2502
1.25167
1.25349
1.25572
1.25846
1.26178
1.2657
1.2695
1.27239
1.27433
1.27556
1.27629
1.27664
1.27675
1.27676
1.27675
1.27667
1.24297
1.24304
1.24347
1.24454
1.24614
1.24816
1.25069
1.25388
1.25786
1.26266
1.26738
1.27104
1.27364
1.27538
1.2765
1.27715
1.27748
1.27762
1.27766
1.27759
1.23671
1.23676
1.2372
1.23831
1.24005
1.24234
1.24527
1.24903
1.25379
1.25962
1.2655
1.27018
1.27355
1.27592
1.27755
1.27861
1.27923
1.27952
1.27961
1.27954
1.22956
1.2296
1.23009
1.23128
1.23324
1.23589
1.23936
1.24391
1.24973
1.25691
1.26418
1.27
1.27428
1.27737
1.27958
1.28108
1.28203
1.2825
1.28262
1.28255
1.22112
1.22115
1.2217
1.22305
1.22531
1.22843
1.23259
1.2381
1.24521
1.25403
1.26302
1.27028
1.27568
1.27964
1.28253
1.28457
1.28589
1.28653
1.28669
1.28661
1.21086
1.21089
1.21155
1.21316
1.21588
1.2197
1.22484
1.23166
1.24047
1.25136
1.26242
1.27135
1.27801
1.28294
1.2866
1.2892
1.2909
1.29171
1.29191
1.29181
1.19824
1.19827
1.19909
1.2011
1.20451
1.2093
1.21574
1.22428
1.23524
1.24868
1.26224
1.27315
1.28131
1.28738
1.29189
1.29511
1.29721
1.2982
1.29843
1.29832
1.1825
1.18255
1.18361
1.18622
1.1906
1.19675
1.20499
1.21581
1.22953
1.24613
1.26266
1.27587
1.28574
1.29309
1.29858
1.30253
1.30506
1.30623
1.30649
1.30636
1.16254
1.16262
1.16405
1.16756
1.17338
1.18146
1.19221
1.2061
1.22335
1.2438
1.26381
1.27964
1.29144
1.30025
1.30686
1.31162
1.31464
1.31599
1.31629
1.31612
1.13657
1.1367
1.13877
1.14373
1.15182
1.1628
1.1771
1.19509
1.2168
1.24184
1.26585
1.28463
1.29858
1.30902
1.31689
1.32259
1.32611
1.32764
1.32795
1.32776
1.10162
1.10188
1.10522
1.11284
1.12472
1.14021
1.1596
1.18299
1.21017
1.24055
1.269
1.29098
1.30727
1.31951
1.32879
1.33548
1.33951
1.34122
1.34153
1.34129
1.05204
1.05318
1.05987
1.0729
1.09131
1.11371
1.14008
1.17028
1.20391
1.24023
1.27344
1.2988
1.31757
1.33173
1.34249
1.35021
1.3548
1.35665
1.35692
1.35663
0.979275
0.986877
1.00221
1.02516
1.05317
1.08469
1.11958
1.15763
1.19842
1.24125
1.2797
1.30885
1.33047
1.3469
1.35948
1.36852
1.37389
1.37609
1.37644
1.37622
0.901835
0.918836
0.943531
0.97691
1.0149
1.05564
1.09913
1.14524
1.19369
1.24387
1.28867
1.32275
1.34819
1.36762
1.38261
1.39361
1.40016
1.40272
1.40327
1.40324
0.837421
0.857432
0.890029
0.932027
0.97862
1.028
1.07976
1.13377
1.18968
1.24697
1.29779
1.33637
1.36517
1.38718
1.40407
1.41633
1.42381
1.42704
1.42753
1.42757
0.785058
0.807039
0.844762
0.892823
0.946144
1.00265
1.06168
1.12289
1.18582
1.2498
1.30619
1.34878
1.38038
1.40438
1.42273
1.43621
1.44483
1.44818
1.44879
1.44891
0.741791
0.764901
0.80609
0.858916
0.917565
0.9799
1.0451
1.11267
1.18194
1.25209
1.31354
1.35962
1.39359
1.41925
1.43887
1.45324
1.46242
1.46624
1.46706
1.46721
0.704862
0.728634
0.772553
0.829047
0.892101
0.959354
1.02988
1.10305
1.17803
1.25376
1.3198
1.36895
1.40492
1.4319
1.45239
1.46737
1.47694
1.48118
1.48224
1.4824
0.672278
0.696504
0.742515
0.802096
0.868867
0.940375
1.0156
1.09378
1.17394
1.25481
1.32505
1.37697
1.41466
1.4427
1.46383
1.47924
1.48912
1.49363
1.49479
1.49494
0.642593
0.667237
0.714969
0.777172
0.847166
0.922405
1.00183
1.08456
1.16949
1.25518
1.32938
1.3839
1.42314
1.45208
1.47365
1.48934
1.49928
1.50393
1.50516
1.50526
0.614919
0.639936
0.689249
0.753668
0.826496
0.905041
0.988228
1.07512
1.16452
1.25478
1.33283
1.38988
1.43064
1.46041
1.48242
1.49824
1.50824
1.513
1.51428
1.51435
0.588543
0.613981
0.664732
0.731112
0.806493
0.887991
0.974575
1.06528
1.15886
1.25353
1.3354
1.39506
1.43739
1.46806
1.49053
1.50655
1.51658
1.52124
1.52258
1.52269
0.563179
0.589062
0.640865
0.709231
0.786897
0.871053
0.960713
1.05493
1.15242
1.25136
1.3371
1.39949
1.44357
1.47526
1.49828
1.51454
1.52462
1.52922
1.53047
1.53053
0.538471
0.564938
0.617749
0.687849
0.767547
0.854093
0.946547
1.04397
1.14514
1.24823
1.33792
1.40326
1.44929
1.48218
1.50587
1.52244
1.53259
1.53712
1.53823
1.53821
0.514335
0.541248
0.595206
0.66684
0.748365
0.837061
0.932032
1.0324
1.13699
1.2441
1.33782
1.40637
1.4546
1.48888
1.51338
1.53032
1.5405
1.54491
1.5459
1.54578
0.490683
0.518163
0.573108
0.646145
0.729323
0.819941
0.917171
1.0202
1.12796
1.23892
1.33673
1.40872
1.45948
1.49541
1.52085
1.53819
1.54835
1.55255
1.55338
1.55319
0.467452
0.495544
0.551434
0.625764
0.710418
0.802754
0.901997
1.00741
1.11806
1.23267
1.33454
1.41024
1.4639
1.50179
1.52831
1.54605
1.5561
1.56
1.56063
1.56038
0.444642
0.473408
0.530222
0.605726
0.691702
0.785547
0.886567
0.994092
1.10734
1.2253
1.33119
1.41078
1.46773
1.50801
1.53585
1.55393
1.56366
1.56712
1.56754
1.56725
0.42243
0.451819
0.509516
0.586074
0.673223
0.768395
0.870953
0.980323
1.09586
1.21688
1.3266
1.41021
1.47083
1.51403
1.54362
1.562
1.57107
1.57384
1.574
1.57368
0.400851
0.430829
0.489348
0.566867
0.655046
0.751366
0.855254
0.966193
1.08371
1.20743
1.32072
1.40835
1.47295
1.51972
1.55177
1.5707
1.57862
1.58012
1.57988
1.57958
0.379846
0.410488
0.469759
0.548147
0.63724
0.734548
0.839562
0.951815
1.071
1.19703
1.31353
1.40508
1.47383
1.52474
1.56034
1.58074
1.5873
1.58645
1.58515
1.58502
0.359594
0.390811
0.450814
0.529986
0.619869
0.718027
0.823976
0.937304
1.05784
1.1858
1.30504
1.40026
1.47314
1.52853
1.56884
1.59265
1.59921
1.59531
1.59115
1.59005
0.340009
0.371807
0.432499
0.512357
0.602902
0.701757
0.808441
0.922596
1.04418
1.17366
1.29512
1.39364
1.47057
1.53033
1.5761
1.60581
1.61603
1.61262
1.60171
1.58983
0.321165
0.353485
0.414684
0.49507
0.586042
0.685399
0.792532
0.907195
1.02944
1.15995
1.28307
1.38434
1.46544
1.52898
1.5795
1.61627
1.6313
1.62334
1.60541
1.59382
0.303238
0.335832
0.397541
0.478348
0.569566
0.669283
0.776476
0.891438
1.01396
1.14497
1.26907
1.372
1.45728
1.5235
1.57399
1.611
1.62941
1.60955
1.54114
1.50916
0.28668
0.317659
0.381455
0.462778
0.554197
0.653919
0.760562
0.875575
0.997989
1.12887
1.25316
1.35639
1.44515
1.51392
1.55558
1.58429
1.58593
1.53621
1.46499
1.42167
0.236379
0.300795
0.366679
0.44744
0.538739
0.638081
0.744813
0.859392
0.981225
1.11128
1.23488
1.33725
1.42567
1.50133
1.51198
1.52113
1.48595
1.42216
1.34558
1.30289
0.269439
0.286251
0.344967
0.425326
0.51588
0.614906
0.720719
0.834396
0.954882
1.0829
1.20374
1.30338
1.3826
1.45978
1.45771
1.35284
1.25221
1.18164
1.10924
1.14567
0.237854
0.267972
0.327917
0.407701
0.498301
0.596968
0.702859
0.815777
0.935038
1.06101
1.17868
1.27433
1.34556
1.38653
1.34314
1.20036
1.07561
0.986317
0.888224
0.943641
0.213871
0.246423
0.308073
0.388101
0.478741
0.577259
0.682956
0.794932
0.912644
1.03602
1.1497
1.2397
1.30093
1.30931
1.20692
1.03581
0.884717
0.766507
0.637322
0.676942
0.190439
0.224347
0.287288
0.368099
0.458898
0.557265
0.662402
0.773306
0.889282
1.00972
1.11864
1.20221
1.24846
1.22438
1.06755
0.870516
0.681871
0.510368
0.319067
0.31824
0.167578
0.20187
0.265703
0.3472
0.43821
0.536373
0.640831
0.750556
0.864562
0.981726
1.08536
1.16171
1.19008
1.1308
0.934843
0.71921
0.501062
0.313398
0.0530914
-0.226496
0.14445
0.178734
0.243043
0.32502
0.416249
0.514264
0.618116
0.726646
0.838604
0.952313
1.05046
1.11847
1.12889
1.01841
0.818746
0.599609
0.386444
0.213956
0.134316
0.00557769
0.120157
0.154469
0.219
0.301225
0.392537
0.490317
0.593473
0.700644
0.810252
0.920036
1.0123
1.07037
1.05538
0.908516
0.715002
0.51261
0.337169
0.240441
0.216457
0.19866
0.0944108
0.128754
0.193426
0.275742
0.366962
0.464349
0.566578
0.672095
0.778943
0.884177
0.970102
1.01568
0.979823
0.805438
0.621205
0.444162
0.309238
0.269827
0.255174
0.253688
0.0670118
0.101442
0.16628
0.248598
0.339599
0.436382
0.537447
0.640983
0.744637
0.844726
0.923643
0.955701
0.900944
0.708971
0.533883
0.377119
0.291266
0.275419
0.273949
0.273839
0.0379435
0.0725521
0.137561
0.219829
0.310468
0.406467
0.506119
0.607338
0.707365
0.801784
0.872665
0.892385
0.803835
0.620823
0.452659
0.323276
0.285563
0.283282
0.283254
0.283812
0.00751806
0.0423106
0.107407
0.189558
0.279699
0.374706
0.472678
0.571251
0.66719
0.755481
0.817736
0.820997
0.707043
0.538433
0.386818
0.299147
0.289794
0.28915
0.289039
0.289477
-0.0236766
0.0111764
0.0761039
0.158043
0.247528
0.341321
0.437347
0.532933
0.624369
0.706063
0.760034
0.744765
0.617587
0.464643
0.334632
0.302927
0.291841
0.292071
0.293595
0.294302
-0.0551772
-0.0203826
0.0442085
0.125717
0.214353
0.306703
0.400497
0.492767
0.579343
0.65412
0.699371
0.667823
0.527901
0.398019
0.30449
0.267048
0.284628
0.295008
0.297778
0.298455
-0.0861761
-0.051641
0.0125086
0.0932416
0.180765
0.271423
0.362699
0.451351
0.532756
0.600475
0.635734
0.591112
0.43527
0.335758
0.288968
0.288507
0.281264
0.281056
0.284547
0.287089
-0.115064
-0.0814656
-0.0181217
0.0615127
0.147619
0.236285
0.324769
0.40956
0.485538
0.546012
0.573716
0.510817
0.336459
0.235951
0.265623
0.238477
0.232492
0.231646
0.234947
0.238185
-0.140516
-0.107893
-0.0466208
0.0316991
0.116016
0.202348
0.287778
0.368555
0.439057
0.491904
0.515739
0.428953
0.233261
0.0708453
0.095162
0.117294
0.149552
0.163974
0.16332
0.164013
-0.160567
-0.129784
-0.0708221
0.00523434
0.0872354
0.170892
0.253063
0.329785
0.395066
0.439976
0.460909
0.356635
0.157311
-0.131896
-0.253121
-0.0955198
-0.0353004
-0.0130424
0.00437752
0.0164887
-0.173369
-0.145178
-0.0892929
-0.0161766
0.0628731
0.143439
0.222168
0.294962
0.355667
0.393098
0.410904
0.303944
0.158662
-0.0320871
-0.201339
-0.121153
-0.134033
-0.13126
-0.11812
-0.113148
-0.176558
-0.152109
-0.100354
-0.0309224
0.0446391
0.121637
0.196877
0.266078
0.322873
0.355296
0.364586
0.28309
0.285403
0.549737
0.658716
0.248232
-0.0452776
-0.0785431
-0.0907402
-0.0914429
-0.168758
-0.148637
-0.102132
-0.0375482
0.0338803
0.107075
0.178993
0.245394
0.29906
0.329511
0.326671
0.242587
0.206404
0.347035
0.246424
-0.0879019
-0.234161
-0.184915
-0.124871
-0.145596
-0.147981
-0.132263
-0.0932783
-0.0350733
0.0315458
0.100926
0.170055
0.234873
0.288136
0.317279
0.30012
0.101443
-0.407003
-1.23016
-1.80255
-2.10024
-1.86356
-1.41601
-1.0381
-0.916736
-0.11595
-0.105199
-0.0742665
-0.0237537
0.0377548
0.10357
0.170909
0.23602
0.293335
0.328296
0.315817
0.0655121
-0.577847
-1.42404
-1.94901
-2.1512
-2.03019
-1.76082
-1.45112
-1.295
-0.0771166
-0.0707618
-0.0484962
-0.00559658
0.0508719
0.114099
0.181308
0.249688
0.314761
0.370413
0.394345
0.318345
0.0821959
-0.109979
-0.207805
-0.0652585
0.203034
0.453716
0.644569
0.740128
-0.0376937
-0.0341953
-0.0205686
0.0150077
0.0678633
0.130054
0.198982
0.273682
0.351279
0.437366
0.524462
0.663569
0.890073
1.31444
1.83623
2.33703
2.71885
2.93978
3.03756
3.06635
-0.00370257
-0.00170193
0.0057736
0.0340587
0.0840312
0.147628
0.219842
0.301315
0.394487
0.500801
0.635997
0.783381
1.10652
1.67406
2.32276
2.89426
3.30583
3.54413
3.64766
3.67438
0.0287901
0.0293686
0.0318275
0.0513321
0.0976731
0.162589
0.238777
0.324549
0.422012
0.533288
0.651601
0.780709
0.968135
1.46088
2.00275
2.45753
2.79206
2.98603
3.07408
3.09994
0.056922
0.0578375
0.0584475
0.0696976
0.110565
0.176309
0.254484
0.341419
0.435159
0.541316
0.648137
0.755289
0.871237
1.1807
1.59813
1.9396
2.19345
2.34313
2.41208
2.43136
0.0746105
0.0756451
0.0751937
0.0828156
0.123155
0.191653
0.271377
0.356605
0.446445
0.545193
0.637951
0.721324
0.794603
0.987461
1.27203
1.51447
1.69494
1.79862
1.84363
1.85505
0.0881077
0.0861108
0.0830291
0.0920821
0.139376
0.213552
0.294544
0.375562
0.458215
0.545603
0.623921
0.686931
0.743613
0.869567
1.06105
1.21992
1.33413
1.39983
1.42825
1.43443
0.136594
0.131703
0.126836
0.13874
0.185461
0.256038
0.329654
0.40096
0.472489
0.546538
0.61327
0.664467
0.710372
0.790953
0.919784
1.02106
1.09057
1.12913
1.14458
1.14611
0.250992
0.246422
0.24277
0.251578
0.28354
0.330361
0.381882
0.435211
0.490977
0.550619
0.605625
0.646495
0.683961
0.735778
0.815745
0.880729
0.925306
0.949341
0.958919
0.959375
0.394026
0.391901
0.389251
0.390318
0.400302
0.418095
0.443283
0.474483
0.512155
0.556445
0.59976
0.63412
0.666119
0.701107
0.74812
0.789813
0.81758
0.83346
0.839476
0.838988
0.506892
0.506143
0.503574
0.498131
0.492401
0.491111
0.496978
0.51069
0.532819
0.563409
0.594533
0.624987
0.653064
0.679012
0.706046
0.730347
0.748787
0.759705
0.763926
0.76292
0.570423
0.569949
0.567252
0.560027
0.54928
0.539999
0.535992
0.539009
0.549822
0.568237
0.590641
0.613914
0.635996
0.652873
0.670096
0.687832
0.701522
0.709606
0.712524
0.711218
0.597473
0.596982
0.59459
0.588346
0.578423
0.5683
0.561001
0.558564
0.561979
0.571289
0.583966
0.598062
0.612458
0.620467
0.633
0.649196
0.662575
0.670771
0.6738
0.672492
0.605478
0.604963
0.603037
0.598495
0.591161
0.582855
0.575587
0.571113
0.570003
0.572078
0.575094
0.577403
0.579319
0.582572
0.595496
0.613448
0.628703
0.638224
0.641826
0.640438
0.605813
0.605335
0.60385
0.600653
0.595681
0.589614
0.583561
0.578677
0.575257
0.572326
0.566714
0.555765
0.542286
0.54363
0.56316
0.584816
0.600816
0.609961
0.613177
0.612035
0.60384
0.603447
0.602342
0.599999
0.596561
0.592314
0.587774
0.583549
0.579608
0.574155
0.562388
0.540228
0.514671
0.517754
0.542644
0.565589
0.580746
0.588521
0.591279
0.590614
0.601163
0.600908
0.600196
0.598512
0.59603
0.593111
0.590074
0.587178
0.584449
0.57953
0.567048
0.541405
0.513661
0.521447
0.546862
0.566853
0.578497
0.584111
0.585693
0.585017
0.597196
0.597119
0.596856
0.595942
0.594229
0.592497
0.591
0.590042
0.589712
0.588346
0.581537
0.564013
0.546672
0.557017
0.574553
0.587458
0.594984
0.598713
0.599876
0.599166
0.590356
0.590446
0.590582
0.590401
0.589881
0.589584
0.590029
0.591706
0.595412
0.600517
0.603178
0.600018
0.597709
0.605719
0.613464
0.616825
0.620162
0.623263
0.624206
0.623436
0.578987
0.579232
0.579785
0.580446
0.581174
0.582656
0.585574
0.590863
0.599672
0.61188
0.623919
0.635535
0.646966
0.651189
0.646898
0.646229
0.64788
0.650448
0.649673
0.647984
0.561758
0.562192
0.563147
0.564495
0.56653
0.569964
0.575709
0.585013
0.598927
0.617599
0.637464
0.656647
0.674056
0.67059
0.661397
0.659154
0.660416
0.660256
0.658453
0.657521
0.536062
0.536821
0.538259
0.540497
0.543919
0.549308
0.557747
0.570692
0.589121
0.61252
0.636959
0.654805
0.666122
0.659965
0.658716
0.66107
0.663445
0.662933
0.660046
0.659295
0.499166
0.500216
0.502239
0.505476
0.510344
0.51748
0.527798
0.542748
0.563064
0.588585
0.615263
0.629978
0.628211
0.622071
0.633464
0.653952
0.662104
0.660555
0.655797
0.655872
0.447924
0.449284
0.45189
0.456136
0.462271
0.470355
0.480616
0.493593
0.509954
0.533072
0.563
0.579476
0.567462
0.56546
0.605432
0.640611
0.665744
0.664973
0.659869
0.659784
0.380284
0.381811
0.384869
0.389951
0.396696
0.404046
0.410448
0.4141
0.414879
0.428718
0.472601
0.500359
0.482507
0.49772
0.562953
0.622044
0.651327
0.650185
0.645652
0.644234
0.296833
0.298228
0.301471
0.307032
0.313367
0.31742
0.314226
0.29728
0.268303
0.26974
0.339
0.388184
0.381624
0.416148
0.492289
0.563435
0.590678
0.580218
0.57351
0.571031
0.203188
0.204069
0.207184
0.212501
0.217135
0.21572
0.197166
0.147269
0.0735997
0.0782827
0.185467
0.255965
0.257058
0.315552
0.389208
0.429712
0.437877
0.43426
0.430249
0.428429
0.108635
0.109102
0.111408
0.115852
0.118987
0.113614
0.0831767
0.00707435
-0.0760861
-0.0768261
0.0428697
0.122214
0.120888
0.183321
0.247359
0.262858
0.249236
0.2458
0.24494
0.244391
0.0250339
0.0245721
0.0248418
0.0263515
0.027439
0.027004
0.0185758
-0.00709741
-0.0458469
-0.0624614
-0.0291804
0.0205431
0.0283567
0.0266855
0.00312825
0.0222834
0.0455957
0.0474535
0.0481175
0.0482418
0.521407
0.721029
0.935895
1.11392
1.25709
1.37123
1.46686
1.54679
1.57923
1.56326
0.869348
1.00064
1.13732
1.2555
1.35545
1.43869
1.50574
1.55272
1.5773
1.58992
1.10293
1.1915
1.28402
1.36654
1.43754
1.4969
1.54388
1.57843
1.60357
1.62123
1.27092
1.33307
1.39834
1.45826
1.51022
1.55422
1.59028
1.61929
1.64259
1.66071
1.40161
1.44628
1.49506
1.54025
1.58044
1.61543
1.64536
1.67046
1.69076
1.70862
1.50859
1.54281
1.58267
1.61927
1.65278
1.68284
1.70912
1.73134
1.74871
1.76626
1.60311
1.63272
1.66767
1.70061
1.73116
1.75889
1.78316
1.80334
1.81818
1.83562
1.69296
1.72283
1.75734
1.78995
1.81997
1.84692
1.87013
1.88879
1.9016
1.91906
1.78908
1.82285
1.85962
1.89365
1.92394
1.95031
1.9724
1.98962
2.00117
2.01898
1.90453
1.9431
1.98152
2.01596
2.04538
2.07017
2.09056
2.10634
2.11774
2.13609
2.04964
2.08925
2.12475
2.15521
2.18087
2.20299
2.22205
2.23762
2.25031
2.26845
2.22426
2.25655
2.28241
2.30474
2.32482
2.3436
2.36126
2.37784
2.3936
2.41181
2.41194
2.42958
2.44521
2.46184
2.47802
2.49258
2.50563
2.51962
2.53672
2.5564
2.59376
2.60465
2.61682
2.62763
2.6369
2.64648
2.65739
2.66899
2.67895
2.69413
2.8047
2.80674
2.7916
2.77638
2.77001
2.7757
2.79431
2.82474
2.85688
2.88763
3.11062
2.97357
2.89729
2.85524
2.83782
2.84185
2.86922
2.92537
3.02883
3.24411
1.39379
1.39042
1.38449
1.37467
1.36172
1.34929
1.33896
1.33099
1.32529
1.32195
1.32149
1.32414
1.32919
1.33639
1.34578
1.35744
1.37055
1.38253
1.38998
1.39469
1.31182
1.3177
1.32461
1.32984
1.33268
1.33233
1.32941
1.32546
1.32185
1.31949
1.31924
1.32135
1.32495
1.32925
1.33315
1.33512
1.33398
1.32987
1.32396
1.3169
1.30419
1.30654
1.30988
1.31278
1.31499
1.31677
1.31771
1.31742
1.31634
1.31536
1.31542
1.31674
1.31847
1.31967
1.31966
1.31845
1.3166
1.31424
1.31106
1.30809
1.29908
1.30017
1.30203
1.30441
1.30636
1.30773
1.3088
1.30962
1.31003
1.31018
1.31056
1.31121
1.31165
1.31153
1.31093
1.31
1.30855
1.30646
1.30432
1.3029
1.29403
1.29469
1.2958
1.29751
1.29931
1.30091
1.30215
1.30313
1.30398
1.3047
1.30529
1.30566
1.30567
1.30536
1.30471
1.3036
1.3021
1.30048
1.29912
1.29833
1.28917
1.28963
1.29041
1.29171
1.29319
1.29472
1.29616
1.29739
1.29845
1.29939
1.30014
1.3005
1.30047
1.30005
1.29923
1.29813
1.2969
1.29569
1.29474
1.29421
1.28446
1.2848
1.28541
1.28648
1.28778
1.28915
1.29058
1.29199
1.29327
1.29441
1.29531
1.29577
1.29573
1.29525
1.29447
1.29355
1.29257
1.29161
1.29089
1.2905
1.27987
1.28014
1.28063
1.28155
1.28273
1.28402
1.2854
1.28685
1.28831
1.28967
1.29077
1.29135
1.29136
1.29098
1.29037
1.28962
1.28881
1.28805
1.28749
1.2872
1.27534
1.27554
1.27596
1.27677
1.27788
1.27914
1.2805
1.28198
1.28355
1.28512
1.28646
1.28722
1.28741
1.28722
1.28678
1.28621
1.28556
1.28495
1.28452
1.28428
1.2708
1.27096
1.27131
1.27206
1.27313
1.27437
1.27575
1.27729
1.27896
1.28073
1.28234
1.2834
1.28386
1.2839
1.28366
1.28325
1.28276
1.28228
1.28195
1.28177
1.26618
1.26631
1.26661
1.26733
1.26839
1.26966
1.27112
1.27277
1.27464
1.27666
1.27862
1.28003
1.28079
1.28107
1.28102
1.28078
1.28042
1.28007
1.27982
1.27968
1.26144
1.26153
1.26181
1.26251
1.2636
1.26494
1.26651
1.26834
1.27045
1.27281
1.27519
1.27705
1.27815
1.27871
1.27889
1.27881
1.2786
1.27834
1.27817
1.27806
1.25651
1.25658
1.25683
1.25753
1.25868
1.26012
1.26181
1.26383
1.26624
1.26906
1.27198
1.27434
1.27587
1.27678
1.27725
1.2774
1.27733
1.27719
1.27708
1.277
1.25134
1.25138
1.25162
1.25234
1.25355
1.25511
1.25699
1.25928
1.26205
1.26534
1.26892
1.27198
1.27409
1.27543
1.27621
1.27661
1.27673
1.27672
1.27669
1.27663
1.24586
1.24587
1.24609
1.24684
1.24815
1.24988
1.25201
1.25467
1.25798
1.26199
1.26641
1.27023
1.27292
1.27475
1.27591
1.27656
1.27692
1.27706
1.2771
1.27708
1.23993
1.23993
1.24014
1.2409
1.24229
1.24418
1.24658
1.24964
1.25351
1.25831
1.26375
1.26858
1.27213
1.27462
1.27628
1.27736
1.27804
1.27838
1.27851
1.27851
1.23327
1.23324
1.23348
1.23427
1.23579
1.23791
1.24071
1.24435
1.24903
1.25491
1.26161
1.26763
1.27209
1.2753
1.27756
1.27915
1.28018
1.28076
1.28099
1.28099
1.22553
1.22549
1.22575
1.22664
1.22832
1.23076
1.23406
1.23841
1.2441
1.2513
1.25956
1.26704
1.27266
1.27678
1.27975
1.28188
1.28335
1.28419
1.28452
1.28453
1.21623
1.21617
1.21649
1.21752
1.21949
1.22239
1.22637
1.2317
1.23869
1.24755
1.25774
1.26698
1.27395
1.27911
1.2829
1.28568
1.28761
1.28873
1.28914
1.28916
1.20484
1.20477
1.20517
1.20644
1.20884
1.21244
1.21739
1.22403
1.23273
1.24371
1.25624
1.26757
1.27612
1.28248
1.28719
1.29067
1.29309
1.29448
1.29498
1.29501
1.19073
1.19064
1.19118
1.19282
1.19584
1.20041
1.20669
1.21507
1.22597
1.2396
1.255
1.26881
1.27921
1.28695
1.29273
1.29698
1.29996
1.30165
1.30224
1.30227
1.17299
1.17288
1.17364
1.17581
1.17977
1.18571
1.19384
1.20461
1.21842
1.23538
1.25422
1.27091
1.28342
1.29274
1.2997
1.30486
1.30847
1.31046
1.31115
1.31117
1.15019
1.15008
1.1512
1.15421
1.15957
1.16756
1.17836
1.19241
1.21
1.23109
1.25399
1.27398
1.28888
1.29996
1.30829
1.31447
1.31878
1.32109
1.32187
1.32188
1.12003
1.11995
1.12172
1.12616
1.13385
1.14508
1.15985
1.17842
1.20088
1.22696
1.25455
1.27822
1.29574
1.30878
1.31862
1.32597
1.331
1.33364
1.33449
1.33449
1.07846
1.07857
1.08174
1.0891
1.10107
1.1176
1.13822
1.16289
1.19142
1.22334
1.25614
1.28379
1.30411
1.31927
1.33075
1.33936
1.34512
1.34807
1.34898
1.34894
1.018
1.01926
1.02695
1.04078
1.06047
1.08535
1.11414
1.14654
1.18223
1.22065
1.25902
1.29079
1.31401
1.33135
1.34452
1.35433
1.3609
1.36416
1.36503
1.36495
0.945896
0.948196
0.962841
0.986642
1.017
1.05157
1.08924
1.12991
1.17334
1.21903
1.264
1.3011
1.32833
1.34884
1.36447
1.37606
1.38383
1.3877
1.38879
1.38878
0.872185
0.879022
0.900685
0.934389
0.974697
1.01864
1.06516
1.11412
1.16536
1.21845
1.27022
1.31283
1.34418
1.36789
1.38609
1.39982
1.40894
1.41279
1.41396
1.4142
0.813014
0.821618
0.84796
0.888468
0.936344
0.98813
1.04253
1.09921
1.15789
1.21809
1.2763
1.32397
1.35893
1.38529
1.40543
1.42051
1.43035
1.43518
1.43709
1.43744
0.764927
0.774112
0.803877
0.849223
0.902848
0.960868
1.02184
1.08529
1.15072
1.2175
1.28169
1.33392
1.37197
1.40047
1.4222
1.43848
1.44964
1.45518
1.45735
1.45774
0.724719
0.734114
0.76618
0.815259
0.873474
0.936593
1.0031
1.07241
1.14385
1.2166
1.28623
1.34252
1.38324
1.41354
1.43652
1.45378
1.46555
1.47172
1.47415
1.47458
0.689789
0.699278
0.733048
0.78516
0.847148
0.914584
0.985882
1.06034
1.13717
1.21534
1.28994
1.34988
1.39291
1.42469
1.44861
1.46653
1.4788
1.48545
1.48804
1.48849
0.658529
0.668065
0.70315
0.757802
0.822973
0.894129
0.969651
1.04873
1.13044
1.21361
1.29283
1.35616
1.40127
1.43431
1.45897
1.47731
1.4899
1.49683
1.49949
1.49996
0.629734
0.639336
0.675546
0.732376
0.800279
0.8747
0.953971
1.03722
1.12344
1.21128
1.2949
1.36148
1.40858
1.44276
1.46804
1.48666
1.49937
1.50644
1.50908
1.50959
0.602627
0.612296
0.649511
0.708238
0.778599
0.855918
0.938536
1.02558
1.11595
1.20823
1.29611
1.36592
1.41502
1.45035
1.47625
1.49518
1.50801
1.51513
1.51779
1.51814
0.576703
0.586485
0.624643
0.684952
0.757583
0.8375
0.923134
1.01362
1.10786
1.20434
1.29643
1.36954
1.42074
1.45734
1.48395
1.50322
1.51619
1.52327
1.5259
1.52623
0.55157
0.561545
0.600521
0.662375
0.737011
0.819258
0.907618
1.00125
1.09906
1.19955
1.29581
1.37236
1.42586
1.46391
1.49135
1.51106
1.5242
1.53127
1.5338
1.53411
0.527037
0.537248
0.576981
0.640356
0.716757
0.801089
0.891909
0.988398
1.08951
1.19383
1.29423
1.3744
1.43046
1.47016
1.49859
1.51882
1.53217
1.53921
1.5416
1.54186
0.503047
0.513485
0.554036
0.618741
0.69675
0.782962
0.875985
0.975059
1.07921
1.18712
1.29163
1.37561
1.43449
1.4761
1.5057
1.52656
1.5401
1.54705
1.54927
1.54944
0.479505
0.490253
0.531549
0.597502
0.676969
0.764862
0.859853
0.961247
1.06816
1.17943
1.28794
1.37587
1.43791
1.48177
1.51274
1.53429
1.548
1.55478
1.55677
1.55683
0.456458
0.467501
0.50956
0.576651
0.657436
0.746825
0.843564
0.947013
1.0564
1.17076
1.2831
1.37509
1.44062
1.48711
1.51975
1.54205
1.55581
1.56227
1.56396
1.56393
0.433881
0.445249
0.488093
0.556228
0.638193
0.728901
0.827174
0.932429
1.044
1.16112
1.27709
1.37316
1.44245
1.49205
1.52678
1.54997
1.56357
1.56946
1.57076
1.57063
0.411974
0.423586
0.467189
0.536279
0.619302
0.711173
0.81076
0.917578
1.03104
1.15061
1.26989
1.36996
1.44323
1.49643
1.53388
1.5583
1.57151
1.57635
1.57705
1.57681
0.390614
0.40257
0.446885
0.516843
0.600805
0.693688
0.794421
0.902551
1.01762
1.13932
1.26152
1.36539
1.44274
1.49996
1.54096
1.56743
1.58029
1.58331
1.5828
1.58238
0.369962
0.382238
0.427217
0.497979
0.582787
0.676538
0.778245
0.887475
1.00387
1.12731
1.25205
1.3594
1.44077
1.50226
1.54763
1.57759
1.59112
1.5919
1.58865
1.5872
0.349978
0.362547
0.408243
0.479744
0.565293
0.659793
0.762319
0.872435
0.989894
1.11476
1.24156
1.35191
1.43715
1.50286
1.55306
1.58817
1.60503
1.60557
1.59843
1.58805
0.330737
0.343532
0.389877
0.461983
0.548108
0.643166
0.746296
0.857011
0.975224
1.1011
1.22949
1.34228
1.43129
1.50112
1.55598
1.59752
1.62103
1.62498
1.61588
1.60846
0.3123
0.325219
0.37211
0.444751
0.531255
0.626668
0.730208
0.841192
0.959835
1.08626
1.21569
1.33017
1.42256
1.49633
1.55391
1.59993
1.62697
1.63584
1.6
1.5507
0.294941
0.308283
0.354978
0.428141
0.514678
0.610207
0.714034
0.825105
0.943797
1.0703
1.20013
1.31545
1.41001
1.4882
1.54499
1.58435
1.61228
1.60195
1.54463
1.48023
0.276861
0.292796
0.338814
0.412693
0.498618
0.594157
0.697503
0.808809
0.927238
1.05338
1.1828
1.29804
1.39241
1.4779
1.52805
1.57633
1.55443
1.51519
1.44626
1.37717
0.2896
0.309898
0.359185
0.437223
0.528034
0.627373
0.736007
0.850303
0.971727
1.1012
1.22417
1.32603
1.41245
1.50177
1.5456
1.47462
1.43108
1.37006
1.29769
1.24936
0.269815
0.28306
0.319819
0.388298
0.473792
0.568806
0.672253
0.782942
0.900468
1.02519
1.15245
1.26564
1.35574
1.43736
1.50639
1.50316
1.39114
1.30949
1.24752
1.16518
0.248489
0.262902
0.304659
0.37449
0.460302
0.554928
0.657166
0.76686
0.883316
1.00647
1.1317
1.24254
1.32943
1.39758
1.42559
1.35464
1.21687
1.12242
1.04771
0.959638
0.226958
0.239488
0.285356
0.356459
0.4424
0.537192
0.639357
0.748675
0.864139
0.985648
1.10786
1.21404
1.29393
1.3452
1.32395
1.19659
1.04605
0.929562
0.832202
0.697555
0.20345
0.21621
0.264137
0.3364
0.42263
0.517424
0.619438
0.728102
0.842351
0.961829
1.08047
1.18123
1.25308
1.28383
1.22532
1.04345
0.863671
0.711077
0.569175
0.378717
0.180708
0.193193
0.242313
0.315691
0.402416
0.497164
0.598781
0.706534
0.819321
0.9364
1.05108
1.14584
1.20879
1.21022
1.09988
0.897552
0.685065
0.486031
0.303996
-0.0968485
0.157905
0.170071
0.219725
0.293894
0.381037
0.475806
0.577015
0.683844
0.795057
0.909507
1.0199
1.10802
1.16011
1.12761
0.975093
0.767206
0.543263
0.334471
0.15605
-0.171989
0.134224
0.146239
0.196132
0.270782
0.358222
0.453018
0.553856
0.659779
0.769362
0.881013
0.986887
1.06786
1.10629
1.05414
0.861678
0.660018
0.450527
0.275247
0.203633
0.166451
0.109175
0.121054
0.17116
0.246065
0.333598
0.428257
0.528567
0.633356
0.740977
0.849335
0.950076
1.02311
1.04657
0.962124
0.75966
0.569372
0.393564
0.280954
0.244759
0.234208
0.082605
0.0944454
0.144666
0.219739
0.307233
0.401589
0.501159
0.604553
0.709835
0.814383
0.909308
0.974221
0.975285
0.855683
0.666367
0.490485
0.342856
0.283445
0.270958
0.265636
0.0544253
0.0660407
0.116608
0.191807
0.279162
0.373041
0.47166
0.573367
0.67593
0.776209
0.864577
0.921061
0.895839
0.755079
0.577971
0.413583
0.307248
0.274446
0.278774
0.278732
0.0246888
0.0362537
0.0870274
0.162335
0.249454
0.342697
0.440128
0.539862
0.639322
0.734841
0.816143
0.861907
0.819648
0.659657
0.497905
0.350255
0.301117
0.2902
0.286871
0.286687
-0.00622593
0.00537983
0.0561483
0.131527
0.218284
0.310712
0.406714
0.504179
0.600148
0.690426
0.764336
0.79785
0.74748
0.575047
0.426946
0.319752
0.272754
0.286774
0.290572
0.291357
-0.037833
-0.0262397
0.0244794
0.0997265
0.185986
0.277393
0.371724
0.466609
0.558729
0.643338
0.709496
0.733289
0.65999