/*--------------------------------*- C++ -*----------------------------------*\
| =========                 |                                                 |
| \\      /  F ield         | OpenFOAM: The Open Source CFD Toolbox           |
|  \\    /   O peration     | Version:  2306                                  |
|   \\  /    A nd           | Website:  www.openfoam.com                      |
|    \\/     M anipulation  |                                                 |
\*---------------------------------------------------------------------------*/
FoamFile
{
    version     2.0;
    format      ascii;
    arch        "LSB;label=32;scalar=64";
    class       volVectorField;
    location    "32";
    object      U;
}
// * * * * * * * * * * * * * * * * * * * * * * * * * * * * * * * * * * * * * //

dimensions      [0 1 -1 0 0 0 0];

internalField   nonuniform List<vector> 
8800
(
(0.984965 -0.0884522 0)
(1.00213 -0.0568224 0)
(0.999682 -0.0305551 0)
(1.00002 -0.0158579 0)
(1.00005 -0.00870922 0)
(1.00002 -0.0050659 0)
(0.999992 -0.00298635 0)
(0.99998 -0.00169935 0)
(0.999977 -0.00081651 0)
(1.00006 -0.000124732 0)
(0.999986 0.000577697 0)
(1 0.00133794 0)
(1.00001 0.00237227 0)
(1.00002 0.00397695 0)
(1.00004 0.00669055 0)
(1.00005 0.0117228 0)
(0.999905 0.0220438 0)
(0.999196 0.0411652 0)
(1.00746 0.0768949 0)
(0.773651 0.0450706 0)
(0.360993 -0.0151725 0)
(1.04555 -0.0742084 0)
(1.08712 -0.0679021 0)
(1.04778 -0.0523133 0)
(1.02458 -0.0384072 0)
(1.01233 -0.0261243 0)
(1.00641 -0.0167861 0)
(1.00354 -0.0103002 0)
(1.00213 -0.00568499 0)
(1.00149 -0.00209863 0)
(1.00137 0.00110481 0)
(1.00174 0.0044252 0)
(1.00271 0.00834714 0)
(1.0047 0.0137039 0)
(1.0088 0.0214447 0)
(1.01737 0.032273 0)
(1.03451 0.0456287 0)
(1.06555 0.059756 0)
(1.0941 0.07293 0)
(0.84227 0.0557048 0)
(0.21704 -0.00164704 0)
(1.07585 -0.0503719 0)
(1.09984 -0.0487449 0)
(1.06464 -0.0402004 0)
(1.03991 -0.0330393 0)
(1.02367 -0.0257459 0)
(1.0139 -0.0183939 0)
(1.00843 -0.0117104 0)
(1.0056 -0.00594143 0)
(1.00445 -0.000651373 0)
(1.00478 0.00446587 0)
(1.00665 0.00979288 0)
(1.01057 0.0158634 0)
(1.01786 0.022798 0)
(1.03052 0.0300778 0)
(1.0507 0.0370976 0)
(1.08046 0.0444584 0)
(1.1063 0.0516951 0)
(0.942977 0.0412983 0)
(0.216563 0.00166316 0)
(0.175846 -0.000646398 0)
(1.01861 -0.0354365 0)
(1.10556 -0.0414621 0)
(1.07808 -0.0363059 0)
(1.05276 -0.0302855 0)
(1.03544 -0.0245739 0)
(1.02343 -0.0188924 0)
(1.01552 -0.0129297 0)
(1.01089 -0.0068432 0)
(1.00888 -0.000613841 0)
(1.00944 0.00554627 0)
(1.01258 0.0114924 0)
(1.01861 0.0173275 0)
(1.02835 0.0229319 0)
(1.04272 0.0283846 0)
(1.06347 0.0340726 0)
(1.09393 0.0400738 0)
(1.09434 0.0417471 0)
(0.829169 0.0227304 0)
(0.175042 0.000663774 0)
(0.154276 -0.000488131 0)
(0.957174 -0.0255784 0)
(1.10402 -0.0351389 0)
(1.08786 -0.0327174 0)
(1.06126 -0.0281869 0)
(1.04334 -0.0232244 0)
(1.03094 -0.0180279 0)
(1.02227 -0.0125905 0)
(1.01667 -0.00674465 0)
(1.01402 -0.000342271 0)
(1.01472 0.00608603 0)
(1.01861 0.0119466 0)
(1.0255 0.0172733 0)
(1.03572 0.022285 0)
(1.05044 0.0271387 0)
(1.07215 0.0316491 0)
(1.10092 0.0355665 0)
(1.06951 0.0337752 0)
(0.74191 0.0142833 0)
(0.15307 0.00050761 0)
(0.139731 -0.000359346 0)
(0.90014 -0.019224 0)
(1.0963 -0.0301841 0)
(1.0959 -0.0293254 0)
(1.06881 -0.0255946 0)
(1.05008 -0.0215404 0)
(1.03716 -0.0169205 0)
(1.02816 -0.0117812 0)
(1.0222 -0.00616765 0)
(1.01924 9.23414e-05 0)
(1.01994 0.00639315 0)
(1.02405 0.0119891 0)
(1.03115 0.0169619 0)
(1.04168 0.0214775 0)
(1.05704 0.0254933 0)
(1.07966 0.0290315 0)
(1.1033 0.0317608 0)
(1.03791 0.0278321 0)
(0.675739 0.0101353 0)
(0.138035 0.000382202 0)
(0.129073 -0.000274428 0)
(0.850355 -0.0148282 0)
(1.08384 -0.0260524 0)
(1.10149 -0.0264139 0)
(1.07555 -0.0231483 0)
(1.05628 -0.0195796 0)
(1.04291 -0.0155085 0)
(1.03355 -0.0107577 0)
(1.02736 -0.0053807 0)
(1.02421 0.000638264 0)
(1.02482 0.00665942 0)
(1.02895 0.0119571 0)
(1.0362 0.0165278 0)
(1.04706 0.0204539 0)
(1.06284 0.0238467 0)
(1.08591 0.0268982 0)
(1.10267 0.0287552 0)
(1.00366 0.0231875 0)
(0.624496 0.00771202 0)
(0.126783 0.000302038 0)
(0.120959 -0.00021126 0)
(0.808059 -0.0116179 0)
(1.06845 -0.022387 0)
(1.10485 -0.0237174 0)
(1.08161 -0.020904 0)
(1.06192 -0.0175911 0)
(1.04828 -0.0138581 0)
(1.03864 -0.00948948 0)
(1.03215 -0.00445251 0)
(1.02879 0.00128579 0)
(1.02928 0.00701083 0)
(1.03342 0.0119214 0)
(1.0408 0.0159978 0)
(1.0518 0.0194165 0)
(1.06785 0.0224072 0)
(1.0913 0.0251633 0)
(1.09927 0.0261505 0)
(0.969309 0.0194639 0)
(0.583741 0.00610499 0)
(0.117947 0.000244878 0)
(0.114697 -0.000162567 0)
(0.772567 -0.0091885 0)
(1.0516 -0.0191236 0)
(1.10706 -0.0211822 0)
(1.08727 -0.0187475 0)
(1.06715 -0.0156169 0)
(1.05324 -0.0121034 0)
(1.04342 -0.00801317 0)
(1.03672 -0.00330327 0)
(1.03314 0.00207906 0)
(1.03347 0.00740963 0)
(1.03753 0.0118761 0)
(1.04489 0.015495 0)
(1.05595 0.0185163 0)
(1.07229 0.0211789 0)
(1.09551 0.0236339 0)
(1.09327 0.0238682 0)
(0.936299 0.0164983 0)
(0.55056 0.00497085 0)
(0.110808 0.000203591 0)
(0.109853 -0.000123626 0)
(0.743031 -0.00726758 0)
(1.03438 -0.0161588 0)
(1.10825 -0.0187426 0)
(1.09257 -0.0166852 0)
(1.07213 -0.0137275 0)
(1.05796 -0.0103503 0)
(1.04797 -0.00642723 0)
(1.04107 -0.00197846 0)
(1.03722 0.00304025 0)
(1.03735 0.00793921 0)
(1.04129 0.0119622 0)
(1.04855 0.0151925 0)
(1.05964 0.0178779 0)
(1.07624 0.0202117 0)
(1.09849 0.022289 0)
(1.08506 0.0218059 0)
(0.905347 0.0141149 0)
(0.523018 0.00413706 0)
(0.104896 0.00017357 0)
(0.10615 -9.1491e-05 0)
(0.718706 -0.005683 0)
(1.01769 -0.0134296 0)
(1.10853 -0.0162871 0)
(1.0976 -0.0145452 0)
(1.07691 -0.0116893 0)
(1.06246 -0.00844101 0)
(1.05225 -0.00470749 0)
(1.04515 -0.000491893 0)
(1.04108 0.00420119 0)
(1.04091 0.00868574 0)
(1.04459 0.0122723 0)
(1.05173 0.0150592 0)
(1.06286 0.0173426 0)
(1.07967 0.0193608 0)
(1.10017 0.0210607 0)
(1.07515 0.019937 0)
(0.876744 0.0121923 0)
(0.499777 0.00351108 0)
(0.0998911 0.000152488 0)
(0.103407 -6.34032e-05 0)
(0.699041 -0.00431227 0)
(1.00223 -0.0108634 0)
(1.10814 -0.0138093 0)
(1.10239 -0.0123106 0)
(1.08153 -0.00952614 0)
(1.06672 -0.00638282 0)
(1.05625 -0.00278534 0)
(1.04889 0.00123214 0)
(1.04449 0.00560458 0)
(1.04397 0.00964752 0)
(1.04739 0.0127829 0)
(1.05438 0.0151226 0)
(1.06553 0.0169805 0)
(1.08257 0.0186869 0)
(1.10092 0.0199957 0)
(1.06401 0.0182724 0)
(0.850555 0.0106366 0)
(0.479894 0.00303671 0)
(0.0955563 0.000138423 0)
(0.10152 -3.63771e-05 0)
(0.683685 -0.00305794 0)
(0.988528 -0.00836317 0)
(1.10719 -0.0111981 0)
(1.10674 -0.00994301 0)
(1.08599 -0.00726708 0)
(1.07088 -0.00415073 0)
(1.06013 -0.000626793 0)
(1.05242 0.00321897 0)
(1.04759 0.00730163 0)
(1.04665 0.010942 0)
(1.04975 0.0136053 0)
(1.05656 0.0155102 0)
(1.06768 0.0169942 0)
(1.08484 0.0182556 0)
(1.10065 0.0190771 0)
(1.0519 0.016745 0)
(0.826695 0.0093384 0)
(0.46269 0.00266555 0)
(0.0917149 0.000129173 0)
(0.100446 -8.79879e-06 0)
(0.672497 -0.00186215 0)
(0.977094 -0.00586309 0)
(1.106 -0.00835396 0)
(1.11077 -0.00723895 0)
(1.09045 -0.00464944 0)
(1.07506 -0.00155641 0)
(1.06402 0.00190848 0)
(1.05595 0.00560093 0)
(1.05064 0.00938406 0)
(1.04917 0.0125742 0)
(1.05183 0.014692 0)
(1.05834 0.0160634 0)
(1.06938 0.0170697 0)
(1.08643 0.0178809 0)
(1.0993 0.018247 0)
(1.03914 0.0153425 0)
(0.805079 0.00826908 0)
(0.447667 0.00238606 0)
(0.0882333 0.000124809 0)
(0.100173 1.18938e-05 0)
(0.665316 -0.000672542 0)
(0.968302 -0.00336133 0)
(1.10503 -0.00534975 0)
(1.11463 -0.00425149 0)
(1.09476 -0.0016977 0)
(1.07898 0.00135639 0)
(1.06755 0.00473722 0)
(1.05903 0.0083352 0)
(1.05314 0.0119197 0)
(1.05099 0.0147264 0)
(1.05307 0.0163508 0)
(1.05925 0.0171445 0)
(1.0702 0.0175136 0)
(1.08725 0.0178314 0)
(1.09678 0.0176005 0)
(1.02604 0.014213 0)
(0.785489 0.00743956 0)
(0.434369 0.00218844 0)
(0.0849959 0.000124568 0)
(0.100741 5.88468e-05 0)
(0.662135 0.00050725 0)
(0.962364 -0.000785668 0)
(1.10448 -0.00215238 0)
(1.1184 -0.00109339 0)
(1.09906 0.00142514 0)
(1.083 0.00458526 0)
(1.07121 0.00807452 0)
(1.06214 0.0116755 0)
(1.05548 0.0150535 0)
(1.05254 0.0174143 0)
(1.05396 0.0184601 0)
(1.05958 0.0186989 0)
(1.07026 0.0185501 0)
(1.08701 0.0182152 0)
(1.09307 0.017387 0)
(1.01247 0.0133322 0)
(0.767594 0.00682232 0)
(0.4224 0.00206217 0)
(0.0819112 0.000123883 0)
(0.10226 8.45478e-05 0)
(0.662932 0.00164234 0)
(0.959589 0.00173444 0)
(1.10465 0.00120711 0)
(1.12217 0.0023473 0)
(1.10354 0.00496645 0)
(1.08724 0.00833661 0)
(1.07502 0.0119934 0)
(1.06532 0.0156544 0)
(1.05777 0.0188973 0)
(1.05378 0.0208535 0)
(1.05427 0.0213318 0)
(1.05928 0.020926 0)
(1.0695 0.0201408 0)
(1.08577 0.0192269 0)
(1.0878 0.0175732 0)
(0.998492 0.0129487 0)
(0.750924 0.00662654 0)
(0.411133 0.00207428 0)
(0.0788916 0.000125922 0)
(0.104716 0.000127745 0)
(0.667447 0.00276072 0)
(0.960266 0.00422124 0)
(1.10614 0.00469276 0)
(1.12626 0.0062192 0)
(1.10826 0.00917586 0)
(1.09164 0.0128478 0)
(1.07878 0.0167294 0)
(1.06818 0.0204963 0)
(1.05947 0.0236261 0)
(1.05426 0.0251474 0)
(1.05374 0.0250003 0)
(1.05798 0.0238682 0)
(1.06769 0.0224224 0)
(1.08332 0.0208966 0)
(1.08121 0.0184729 0)
(0.9841 0.0133382 0)
(0.734654 0.00695686 0)
(0.399662 0.00225819 0)
(0.0757344 0.000135763 0)
(0.108176 0.000173136 0)
(0.675712 0.00388038 0)
(0.964177 0.00657789 0)
(1.10948 0.00818569 0)
(1.13124 0.0103323 0)
(1.11361 0.0138056 0)
(1.09656 0.0179193 0)
(1.08301 0.0222287 0)
(1.07142 0.0263307 0)
(1.06133 0.0294638 0)
(1.05454 0.0305649 0)
(1.05271 0.0297871 0)
(1.05592 0.0279639 0)
(1.06501 0.0257862 0)
(1.07964 0.023545 0)
(1.07338 0.0203836 0)
(0.968933 0.014597 0)
(0.717759 0.00782736 0)
(0.387028 0.00260533 0)
(0.0721925 0.00015533 0)
(0.112745 0.000229865 0)
(0.687706 0.00519425 0)
(0.971585 0.00923397 0)
(1.11487 0.0120185 0)
(1.13729 0.0148083 0)
(1.11976 0.0189576 0)
(1.10214 0.0237828 0)
(1.08766 0.0288103 0)
(1.07469 0.0334239 0)
(1.06278 0.0366691 0)
(1.05415 0.0373822 0)
(1.0508 0.035896 0)
(1.05287 0.0332821 0)
(1.06121 0.0303775 0)
(1.07465 0.0273506 0)
(1.06396 0.0232742 0)
(0.952367 0.0166496 0)
(0.699135 0.00913603 0)
(0.372412 0.00307393 0)
(0.0680543 0.000182219 0)
(0.118718 0.000308511 0)
(0.703926 0.00689179 0)
(0.983057 0.0125458 0)
(1.12264 0.0166974 0)
(1.14468 0.0203781 0)
(1.12711 0.0254479 0)
(1.10882 0.0312486 0)
(1.09312 0.0371315 0)
(1.07836 0.0422674 0)
(1.0642 0.0455556 0)
(1.05331 0.0457223 0)
(1.04814 0.0433609 0)
(1.04885 0.039833 0)
(1.05627 0.0360353 0)
(1.06812 0.0321513 0)
(1.0527 0.026994 0)
(0.933868 0.0194029 0)
(0.677753 0.0107768 0)
(0.355223 0.00362419 0)
(0.0631764 0.000214183 0)
(0.126609 0.000424558 0)
(0.725298 0.00923834 0)
(0.999193 0.0168386 0)
(1.13366 0.0226362 0)
(1.15412 0.0276824 0)
(1.13611 0.0341001 0)
(1.11674 0.0410863 0)
(1.09925 0.0478484 0)
(1.08216 0.053411 0)
(1.06524 0.0564795 0)
(1.05167 0.0557446 0)
(1.04443 0.0521711 0)
(1.04364 0.0475039 0)
(1.04998 0.0428041 0)
(1.05996 0.0380128 0)
(1.03946 0.0317554 0)
(0.912651 0.0229035 0)
(0.652669 0.0126616 0)
(0.335079 0.00422723 0)
(0.0574976 0.000245834 0)
(0.137202 0.000599296 0)
(0.753123 0.012584 0)
(1.02096 0.0225457 0)
(1.14885 0.0302765 0)
(1.16662 0.0372506 0)
(1.14719 0.0452993 0)
(1.12601 0.0536774 0)
(1.10603 0.0613744 0)
(1.08595 0.0672714 0)
(1.06565 0.0698555 0)
(1.04895 0.067913 0)
(1.03939 0.0628484 0)
(1.0371 0.0567138 0)
(1.04238 0.0508729 0)
(1.0503 0.0453615 0)
(1.02389 0.0378621 0)
(0.887392 0.0271403 0)
(0.623112 0.0148049 0)
(0.311636 0.00489845 0)
(0.0509658 0.000278184 0)
(0.151712 0.000879109 0)
(0.789333 0.0175612 0)
(1.0496 0.0304641 0)
(1.16891 0.0403468 0)
(1.18277 0.0494611 0)
(1.16079 0.0594524 0)
(1.13676 0.0693429 0)
(1.11341 0.0780037 0)
(1.08958 0.0841501 0)
(1.06531 0.0861519 0)
(1.04506 0.0829881 0)
(1.03288 0.0764832 0)
(1.02883 0.0688736 0)
(1.0332 0.0616219 0)
(1.03899 0.0548584 0)
(1.00452 0.0455524 0)
(0.856631 0.0319684 0)
(0.588589 0.017248 0)
(0.284566 0.0056391 0)
(0.0435647 0.000308135 0)
(0.172253 0.00136655 0)
(0.837117 0.0253416 0)
(1.08729 0.0422546 0)
(1.19425 0.0547867 0)
(1.20271 0.0661432 0)
(1.17684 0.0779701 0)
(1.14887 0.0891561 0)
(1.12125 0.0985035 0)
(1.09293 0.104585 0)
(1.06418 0.105781 0)
(1.04008 0.101294 0)
(1.02504 0.0933702 0)
(1.01891 0.0843744 0)
(1.02182 0.0755534 0)
(1.02424 0.0665272 0)
(0.979077 0.0542162 0)
(0.819721 0.0373716 0)
(0.548815 0.0200724 0)
(0.253622 0.00643429 0)
(0.0353406 0.000331801 0)
(0.20213 0.00246254 0)
(0.902142 0.038723 0)
(1.13694 0.0617127 0)
(1.22473 0.0771476 0)
(1.22573 0.0906716 0)
(1.19456 0.10358 0)
(1.16172 0.115211 0)
(1.12902 0.124292 0)
(1.09562 0.129403 0)
(1.06202 0.12901 0)
(1.03389 0.12259 0)
(1.01582 0.112868 0)
(1.00722 0.102162 0)
(1.00737 0.0912674 0)
(1.00391 0.0792436 0)
(0.94656 0.063344 0)
(0.776928 0.0435026 0)
(0.503642 0.0233714 0)
(0.219232 0.00730048 0)
(0.0266111 0.000343708 0)
(0.243 0.00872766 2.76301e-19)
(0.988432 0.0657068 2.4323e-19)
(1.19648 0.0950881 -8.31739e-20)
(1.25819 0.111566 0)
(1.24913 0.127242 -1.90702e-33)
(1.21203 0.139478 2.73082e-20)
(1.17389 0.149908 -4.57204e-20)
(1.13567 0.157291 0)
(1.09686 0.160275 8.62665e-34)
(1.05798 0.157302 -4.94233e-20)
(1.02539 0.148185 0)
(1.00368 0.136088 -5.54386e-20)
(0.991641 0.12311 -1.61307e-19)
(0.986924 0.109643 -7.54313e-20)
(0.975236 0.094795 -2.23401e-20)
(0.905645 0.0765108 -1.31488e-20)
(0.724434 0.0531968 0)
(0.449089 0.028614 9.145e-21)
(0.181933 0.00944999 1.0768e-20)
(0.0185424 0.000720564 1.91477e-19)
(0.27048 0.024224 2.50453e-19)
(1.05898 0.108298 1.00284e-21)
(1.2443 0.143148 2.43341e-20)
(1.28831 0.160087 0)
(1.2694 0.174898 -1.0373e-19)
(1.22713 0.185244 -1.1358e-19)
(1.18383 0.193746 -4.78846e-20)
(1.14005 0.198992 -1.59364e-19)
(1.09551 0.199517 0)
(1.0506 0.193508 2.12115e-19)
(1.01233 0.181028 2.04335e-19)
(0.985294 0.165738 5.94276e-20)
(0.967465 0.149722 2.10582e-19)
(0.954853 0.133296 2.90004e-19)
(0.932324 0.115978 0)
(0.853316 0.0957954 4.02085e-19)
(0.665143 0.0680412 5.74424e-19)
(0.394956 0.0377078 6.35663e-19)
(0.150451 0.0133946 -7.22222e-19)
(0.0123766 0.00109754 -1.34345e-20)
(0.27025 0.03971 0)
(1.10241 0.163926 5.53248e-20)
(1.27625 0.202658 0)
(1.31101 0.219663 -1.65943e-19)
(1.28496 0.2311 0)
(1.23842 0.238107 -2.36044e-19)
(1.19035 0.243253 1.00719e-19)
(1.14128 0.24517 -3.32729e-19)
(1.0912 0.242111 -3.14102e-21)
(1.04038 0.232104 1.11932e-19)
(0.99645 0.215636 4.44081e-19)
(0.964157 0.196931 -6.2405e-22)
(0.940891 0.178323 -1.51918e-19)
(0.922318 0.160323 -2.70732e-19)
(0.894414 0.14229 3.18302e-19)
(0.81526 0.120544 -5.60635e-19)
(0.633109 0.0876247 -7.31805e-20)
(0.377778 0.0507865 0)
(0.149465 0.0197433 3.98909e-23)
(0.0133744 0.0018747 0)
(0.263248 0.0532241 9.9005e-19)
(1.12494 0.222766 -4.47448e-19)
(1.29582 0.267108 -2.91833e-19)
(1.32523 0.284076 8.59413e-20)
(1.2944 0.291986 -1.40792e-19)
(1.24481 0.295186 5.01782e-19)
(1.19285 0.296362 2.13694e-19)
(1.13919 0.29425 0)
(1.08402 0.286991 -5.89384e-19)
(1.02774 0.272528 0)
(0.978531 0.251977 -2.35744e-19)
(0.941571 0.230168 -2.79404e-19)
(0.91401 0.209554 -1.6439e-19)
(0.891579 0.190458 -1.95305e-19)
(0.861561 0.171658 0)
(0.787186 0.14806 0)
(0.617471 0.111461 -4.76659e-19)
(0.381013 0.0686024 9.33631e-20)
(0.161054 0.0290433 -5.51539e-20)
(0.0175273 0.00336927 -6.34997e-20)
(0.25576 0.0652786 -5.98443e-19)
(1.1342 0.281446 0)
(1.3064 0.332471 7.03233e-19)
(1.33218 0.349779 2.67225e-19)
(1.298 0.354389 3.07757e-19)
(1.2462 0.353846 0)
(1.19118 0.351012 2.21247e-19)
(1.13371 0.344709 3.76198e-19)
(1.07414 0.333069 3.09547e-19)
(1.01303 0.314099 5.2059e-19)
(0.959181 0.289579 0)
(0.918376 0.26496 -6.00982e-19)
(0.887608 0.242655 -3.53953e-19)
(0.86258 0.222729 -2.07136e-19)
(0.831742 0.203384 1.24215e-18)
(0.762242 0.178733 1.47129e-19)
(0.608168 0.13844 6.87737e-19)
(0.389171 0.0891722 -3.22631e-18)
(0.175279 0.0406065 1.91923e-18)
(0.0224853 0.00549109 -2.27813e-18)
(0.249038 0.0762477 -5.40304e-19)
(1.13523 0.338101 1.1784e-19)
(1.31028 0.396883 -1.02266e-19)
(1.33346 0.414791 -3.55278e-19)
(1.29678 0.416399 -3.09529e-19)
(1.24323 0.412346 3.46263e-21)
(1.18574 0.405686 -2.37801e-19)
(1.12511 0.395314 3.97157e-19)
(1.06181 0.379411 -6.64183e-19)
(0.996561 0.356055 0)
(0.938759 0.327734 -2.77256e-19)
(0.894858 0.300449 -3.18364e-21)
(0.861747 0.276521 -3.83179e-19)
(0.835035 0.255706 0)
(0.804195 0.235705 -2.67505e-19)
(0.739502 0.209765 -6.32585e-19)
(0.599472 0.166505 1.67814e-18)
(0.396018 0.110721 -1.64352e-18)
(0.186888 0.0529519 2.33392e-18)
(0.0266309 0.00784146 -2.38828e-18)
(0.243656 0.0864873 -7.99058e-22)
(1.13124 0.392101 -1.17775e-19)
(1.30955 0.459724 -4.17644e-19)
(1.33045 0.477996 1.81349e-19)
(1.29178 0.476945 -1.63101e-19)
(1.23679 0.469654 0)
(1.17724 0.459441 -2.422e-19)
(1.11393 0.445244 -4.21128e-19)
(1.04744 0.425305 -3.50827e-19)
(0.978632 0.397767 0)
(0.917494 0.365748 -2.91977e-19)
(0.871084 0.335845 -3.46859e-19)
(0.836245 0.310203 4.12696e-19)
(0.808423 0.28833 -2.45228e-19)
(0.777823 0.267605 -1.15606e-18)
(0.717344 0.240315 6.85144e-19)
(0.5891 0.194429 2.03408e-19)
(0.397974 0.131987 0)
(0.193466 0.0648303 -2.23807e-18)
(0.0294155 0.0100978 -8.06706e-20)
(0.239576 0.0963082 -7.12142e-20)
(1.12425 0.443304 1.20696e-19)
(1.30533 0.520282 2.20679e-19)
(1.32423 0.538798 5.90686e-19)
(1.28391 0.535404 -6.75041e-19)
(1.22769 0.525194 5.94814e-19)
(1.16638 0.511722 5.18921e-19)
(1.10077 0.493988 -6.74241e-19)
(1.03149 0.47029 1.99942e-19)
(0.959558 0.438775 -1.27637e-18)
(0.895533 0.403133 -3.21089e-19)
(0.84707 0.370529 0)
(0.810948 0.343037 4.44256e-19)
(0.78248 0.31991 5.23686e-19)
(0.752386 0.29824 6.19494e-19)
(0.695405 0.269417 -7.37826e-19)
(0.576055 0.220815 -2.17117e-19)
(0.394168 0.151479 2.54943e-19)
(0.193952 0.0749592 0)
(0.0303982 0.011868 -1.73444e-19)
(0.23662 0.105838 7.18079e-19)
(1.11573 0.491834 -4.94148e-19)
(1.29856 0.577997 -2.32385e-19)
(1.31564 0.596876 4.10409e-19)
(1.27391 0.591432 -3.48855e-19)
(1.21662 0.578602 -7.97853e-21)
(1.1538 0.562197 -5.58552e-19)
(1.08618 0.541248 -2.41632e-19)
(1.01442 0.514075 -6.04687e-19)
(0.939644 0.478801 4.68823e-22)
(0.873021 0.439578 -1.01642e-18)
(0.822824 0.404145 8.14348e-19)
(0.785734 0.374559 -4.81255e-19)
(0.756926 0.349929 5.68478e-19)
(0.727381 0.326875 0)
(0.673225 0.296287 -3.96618e-19)
(0.560306 0.244304 -1.6817e-21)
(0.385229 0.167635 -1.09893e-18)
(0.190013 0.0825538 -1.61124e-19)
(0.0299783 0.0130084 0)
(0.234642 0.115176 0)
(1.10647 0.537875 -5.21295e-19)
(1.29001 0.632812 -4.74407e-19)
(1.30536 0.65214 -4.29182e-19)
(1.26236 0.64486 -3.85173e-19)
(1.20413 0.629693 0)
(1.14 0.610668 -2.82981e-19)
(1.07059 0.586829 -2.33817e-21)
(0.996585 0.556493 1.29307e-18)
(0.919179 0.517687 -1.78778e-19)
(0.850132 0.47493 -7.28868e-19)
(0.798333 0.436526 4.28979e-19)
(0.760451 0.404588 -4.04178e-21)
(0.731442 0.378149 6.05474e-19)
(0.702401 0.353452 3.644e-19)
(0.650262 0.320539 -8.52738e-19)
(0.541836 0.264376 1.00642e-18)
(0.371663 0.180614 2.95714e-19)
(0.181903 0.087519 1.21173e-18)
(0.0282317 0.0134408 -3.20369e-18)
(0.233545 0.124467 1.49231e-19)
(1.097 0.581629 -2.63091e-19)
(1.28045 0.684749 2.29432e-19)
(1.29386 0.7046 4.42432e-19)
(1.24976 0.695626 0)
(1.1907 0.678376 -3.37404e-19)
(1.12541 0.657032 9.1963e-19)
(1.05441 0.630625 5.42119e-19)
(0.978329 0.597439 0)
(0.898409 0.555355 -2.52391e-18)
(0.826986 0.509135 1.957e-18)
(0.773626 0.467634 0)
(0.734956 0.433099 5.55447e-19)
(0.70579 0.404531 -4.00704e-21)
(0.677161 0.377846 -1.16436e-18)
(0.626392 0.342124 4.55107e-19)
(0.520899 0.281008 0)
(0.354492 0.189876 1.59005e-18)
(0.170568 0.0900135 0)
(0.025633 0.013295 -1.50764e-18)
(0.233156 0.133742 -1.5299e-19)
(1.08779 0.623184 -2.66093e-19)
(1.26998 0.733877 2.48325e-19)
(1.28155 0.754233 0)
(1.23649 0.743731 -4.14856e-19)
(1.17671 0.724636 0)
(1.11039 0.701243 -9.58142e-19)
(1.03794 0.672576 -2.74733e-19)
(0.959925 0.636864 2.37891e-19)
(0.877554 0.59178 -1.24591e-18)
(0.8037 0.542211 2.05418e-19)
(0.748658 0.497508 0)
(0.709137 0.460137 -1.18607e-18)
(0.67979 0.429147 4.09737e-21)
(0.651411 0.400117 0)
(0.601342 0.36107 4.47369e-21)
(0.497447 0.294236 1.45135e-18)
(0.334018 0.195461 -1.36845e-18)
(0.156803 0.0900545 4.01339e-19)
(0.0224626 0.012603 0)
(0.233145 0.142883 0)
(1.07902 0.662666 -2.72538e-19)
(1.25897 0.780362 -2.46758e-19)
(1.26879 0.801081 -4.53287e-21)
(1.22287 0.789207 -2.0781e-19)
(1.16245 0.768486 -7.65218e-19)
(1.09522 0.743299 3.46132e-19)
(1.02145 0.712665 -3.04121e-19)
(0.941611 0.67474 1.03443e-18)
(0.856795 0.62697 -1.99095e-18)
(0.780374 0.574218 -6.75006e-21)
(0.723458 0.526248 -5.33981e-19)
(0.682948 0.485817 1.91244e-18)
(0.653329 0.452119 -4.81794e-21)
(0.625042 0.420377 -8.95176e-19)
(0.575074 0.377394 -1.58897e-18)
(0.471759 0.304084 0)
(0.310814 0.197542 0)
(0.14115 0.0876811 4.32636e-19)
(0.0189553 0.0113978 -2.49196e-19)
(0.233617 0.152023 -1.59119e-19)
(1.07066 0.699903 5.69565e-19)
(1.24774 0.824255 2.62493e-19)
(1.25583 0.845233 0)
(1.20913 0.83212 -3.0839e-21)
(1.14816 0.809963 -7.90109e-19)
(1.08014 0.783219 8.95762e-19)
(1.00517 0.750892 1.25961e-18)
(0.923587 0.711074 1.36405e-18)
(0.836322 0.660955 -1.63927e-18)
(0.757171 0.605256 -1.6714e-18)
(0.698124 0.554015 1.42645e-18)
(0.65637 0.510308 0)
(0.626322 0.473575 -4.08025e-19)
(0.59795 0.438695 -9.63703e-19)
(0.547505 0.391086 -1.13716e-18)
(0.443674 0.310385 -1.34435e-18)
(0.285371 0.196097 3.9595e-19)
(0.124026 0.0829355 -2.32161e-19)
(0.0151528 0.00972542 6.23358e-22)
(0.234188 0.160998 0)
(1.06287 0.735437 0)
(1.23646 0.865649 5.10398e-21)
(1.24285 0.886787 0)
(1.19546 0.872559 6.80436e-19)
(1.13403 0.849135 6.12685e-19)
(1.06532 0.82104 0)
(0.989261 0.787278 1.61158e-19)
(0.906032 0.745875 2.30468e-18)
(0.816326 0.693772 -3.75676e-18)
(0.734271 0.635433 0)
(0.672729 0.58099 -9.14959e-19)
(0.629375 0.5338 -5.86974e-21)
(0.598675 0.493649 -4.78999e-21)
(0.570043 0.4551 1.0292e-18)
(0.518647 0.402059 -8.01714e-22)
(0.413488 0.313109 -2.88564e-18)
(0.257773 0.19106 8.50041e-19)
(0.106124 0.0761662 2.49979e-19)
(0.011363 0.00776155 0)
(0.234737 0.169793 4.92301e-19)
(1.05539 0.769265 2.99845e-19)
(1.22519 0.904607 5.47814e-19)
(1.22999 0.925843 -1.02844e-18)
(1.18202 0.910592 1.17841e-18)
(1.1202 0.886066 0)
(1.0509 0.856812 5.8987e-19)
(0.97387 0.821854 -3.48732e-19)
(0.889094 0.779167 7.64718e-21)
(0.796977 0.72546 2.7145e-19)
(0.711815 0.664838 2.16629e-18)
(0.647382 0.607359 -3.22911e-19)
(0.601977 0.556537 -1.17092e-18)
(0.57026 0.512498 -4.71019e-19)
(0.541163 0.469529 5.56031e-19)
(0.488483 0.410027 -4.95251e-22)
(0.381743 0.311998 7.75581e-19)
(0.229011 0.18258 -1.82408e-18)
(0.0881619 0.0677764 2.14627e-18)
(0.0077264 0.00562242 3.08321e-19)
(0.235107 0.17828 -1.67426e-19)
(1.04824 0.801473 1.54936e-19)
(1.21408 0.941247 1.19562e-20)
(1.21737 0.962517 -5.24651e-19)
(1.16891 0.946326 -2.38139e-19)
(1.10678 0.920826 -1.14398e-18)
(1.03699 0.890587 1.99219e-19)
(0.959102 0.854643 -1.47516e-18)
(0.872893 0.810953 -2.5845e-18)
(0.778399 0.756022 -2.2574e-18)
(0.689969 0.693548 0)
(0.622243 0.633307 -1.3971e-18)
(0.574215 0.578807 1.67629e-18)
(0.5409 0.530355 0)
(0.511 0.481868 -1.18858e-18)
(0.456917 0.41449 7.0574e-19)
(0.348856 0.306591 -8.31272e-19)
(0.200242 0.170854 -9.79483e-19)
(0.0710829 0.0583069 -1.72549e-18)
(0.00446657 0.00348838 -1.325e-18)
(0.235766 0.186584 1.69078e-19)
(1.04127 0.832035 -1.65086e-19)
(1.20318 0.975646 -4.23218e-19)
(1.20506 0.996893 -6.8144e-19)
(1.1562 0.97985 5.14282e-19)
(1.09385 0.953504 -7.11192e-19)
(1.02367 0.922418 6.43167e-19)
(0.945033 0.885692 -1.55198e-18)
(0.857502 0.841257 -1.54063e-18)
(0.760708 0.785475 2.38235e-18)
(0.6689 0.721617 4.75746e-18)
(0.597488 0.658993 0)
(0.546175 0.600921 0)
(0.510389 0.547586 -5.39718e-19)
(0.479004 0.492061 0)
(0.423529 0.414605 1.51506e-18)
(0.315413 0.295869 1.78493e-18)
(0.173147 0.155758 0)
(0.0562418 0.0483408 0)
(0.00178106 0.00156325 1.42123e-18)
(0.236039 0.194398 -1.70869e-19)
(1.03451 0.860943 -1.47862e-19)
(1.19256 1.00792 -2.96597e-19)
(1.19312 1.0291 5.57559e-19)
(1.14396 1.01126 5.33669e-19)
(1.08144 0.984171 8.60356e-19)
(1.01098 0.952369 -9.05382e-19)
(0.931716 0.91503 3.63787e-22)
(0.842989 0.870085 -9.8498e-21)
(0.744003 0.813813 -1.12367e-20)
(0.648776 0.749076 2.44989e-18)
(0.573315 0.684527 0)
(0.518041 0.623185 1.6804e-18)
(0.478583 0.564708 1.14962e-18)
(0.44434 0.500376 2.74702e-18)
(0.38719 0.409397 8.12209e-19)
(0.281731 0.277619 -9.59856e-19)
(0.150926 0.135401 -5.6264e-19)
(0.0480043 0.0375069 0)
(0.000963898 0.000324816 1.52397e-18)
(0.236572 0.202186 3.40205e-19)
(1.02795 0.888293 0)
(1.1822 1.03812 -2.97103e-19)
(1.18157 1.0592 4.35011e-19)
(1.13222 1.04066 -5.45889e-19)
(1.06961 1.01291 -1.14411e-18)
(0.998963 0.980495 1.88576e-18)
(0.919179 0.942696 -1.16413e-19)
(0.82939 0.897451 0)
(0.728353 0.841005 -2.66491e-18)
(0.62974 0.775914 -5.35194e-18)
(0.549951 0.709985 2.0789e-19)
(0.490107 0.64585 2.30448e-18)
(0.445521 0.582353 0)
(0.406067 0.507676 1.84206e-18)
(0.345578 0.398664 0)
(0.2453 0.248345 0)
(0.136336 0.099526 -6.06895e-19)
(0.0650653 0.0146489 0)
(0.025469 0.00998802 4.07725e-19)
(0.236711 0.209333 3.43846e-19)
(1.02154 0.914417 0)
(1.17211 1.06646 -4.502e-19)
(1.17039 1.08744 0)
(1.12095 1.06828 2.73231e-19)
(1.05828 1.04001 0)
(0.987548 1.00711 1.14008e-19)
(0.907326 0.969029 2.18688e-19)
(0.816589 0.923723 1.93292e-19)
(0.713608 0.867443 -2.94444e-18)
(0.611661 0.802571 1.64803e-19)
(0.527245 0.735944 1.64665e-18)
(0.462157 0.669529 2.24039e-18)
(0.41069 0.601496 2.96054e-19)
(0.36259 0.515811 1.43265e-18)
(0.294526 0.384477 0)
(0.195021 0.207966 2.00885e-18)
(0.100694 0.0395942 -1.16909e-18)
(0.043839 0.0468312 1.34926e-18)
(-0.0591653 0.422031 -1.60509e-18)
(0.236799 0.216237 -2.64006e-19)
(1.01505 0.939136 -4.75641e-19)
(1.16222 1.09324 0)
(1.15944 1.11425 1.00698e-20)
(1.10996 1.0947 -6.95727e-19)
(1.0472 1.06613 1.9673e-18)
(0.976436 1.03299 7.26651e-19)
(0.89577 0.994964 0)
(0.804082 0.949986 1.3471e-18)
(0.699129 0.894425 -1.61132e-19)
(0.59367 0.830508 0)
(0.504102 0.764181 0)
(0.43283 0.696001 2.00372e-18)
(0.372641 0.62384 -9.05533e-19)
(0.311226 0.527965 -1.44292e-18)
(0.229583 0.372526 0)
(0.111654 0.191936 9.96984e-19)
(0.0114718 0.433728 -1.14721e-18)
(0.0362451 1.8639 -6.48114e-19)
(0.0682695 2.79404 -8.45907e-19)
(0.236674 0.222352 1.71212e-19)
(1.00861 0.962589 5.60401e-19)
(1.15253 1.11846 -2.37964e-19)
(1.14873 1.13946 -3.00898e-19)
(1.09932 1.11971 0)
(1.03644 1.091 1.34282e-18)
(0.965814 1.05785 1.1e-18)
(0.884682 1.02007 -1.12854e-19)
(0.79212 0.975722 1.98417e-19)
(0.685279 0.921332 2.85314e-18)
(0.57635 0.859017 2.74064e-18)
(0.481501 0.794276 1.85871e-18)
(0.403208 0.724867 2.01077e-18)
(0.333459 0.647958 -2.11443e-18)
(0.25813 0.546986 -2.16806e-18)
(0.152038 0.399361 0)
(0.0556906 0.82455 0)
(0.109287 2.5331 5.6281e-19)
(0.112468 3.18865 0)
(0.114802 3.38276 1.29138e-18)
(0.239542 0.227995 0)
(1.00279 0.984999 0)
(1.14279 1.142 0)
(1.13801 1.16288 -7.27824e-20)
(1.08871 1.14307 -5.98513e-19)
(1.02577 1.11447 9.5003e-19)
(0.955582 1.08156 7.48256e-19)
(0.874001 1.04423 -1.14244e-19)
(0.780651 1.00078 1.76217e-18)
(0.672066 0.948014 -1.97364e-20)
(0.559819 0.887939 5.47213e-18)
(0.459829 0.826082 -2.11016e-19)
(0.373717 0.75681 2.47006e-19)
(0.295371 0.670957 3.02441e-19)
(0.199158 0.572332 6.14796e-23)
(0.117697 0.956333 3.45209e-21)
(0.153308 2.68448 -2.89416e-18)
(0.164639 3.2848 -1.10773e-18)
(0.151393 3.42523 5.84469e-19)
(0.13634 3.4487 -6.53995e-19)
(0.158407 0.179397 -7.82699e-20)
(0.992203 1.00933 0)
(1.1328 1.16403 3.94073e-19)
(1.12781 1.1849 6.90557e-19)
(1.07877 1.16544 -1.11885e-18)
(1.01599 1.13711 -9.82949e-19)
(0.945588 1.1042 -8.20898e-19)
(0.863801 1.06755 1.4527e-18)
(0.769835 1.02526 -1.47995e-18)
(0.659797 0.974536 0)
(0.544505 0.917338 2.72683e-18)
(0.43964 0.859272 -1.53008e-18)
(0.344886 0.794779 0)
(0.258536 0.696762 2.7552e-19)
(0.168995 0.81979 6.60652e-19)
(0.16899 2.43888 -8.01375e-19)
(0.232383 3.31978 8.93386e-19)
(0.209894 3.4418 5.04985e-19)
(0.173786 3.46418 5.69965e-19)
(0.150345 3.47473 9.68104e-19)
(0.27946 0.266239 1.54646e-19)
(0.976063 1.01866 0)
(1.11476 1.18888 -3.6356e-19)
(1.11345 1.21739 -6.48241e-19)
(1.06293 1.19852 1.04745e-18)
(0.999652 1.17069 9.17231e-19)
(0.928366 1.13915 1.07221e-18)
(0.845999 1.10368 1.11292e-19)
(0.75081 1.06348 1.51078e-18)
(0.63827 1.01654 2.62557e-18)
(0.518313 0.965395 1.62045e-19)
(0.405962 0.914841 1.39516e-18)
(0.294966 0.860649 2.37384e-19)
(0.22641 0.980306 -2.84801e-19)
(0.242545 2.2871 -6.46999e-19)
(0.306226 3.32477 6.56506e-19)
(0.291693 3.47542 -7.71423e-19)
(0.253708 3.49773 -4.5412e-19)
(0.215083 3.52509 -4.30354e-19)
(0.161894 3.5177 -4.01039e-20)
(0.268365 0.263519 0)
(0.973736 1.0412 -6.42759e-20)
(1.10687 1.21199 6.24725e-20)
(1.10376 1.24045 6.27472e-20)
(1.05296 1.22145 6.46611e-19)
(0.989765 1.19386 -8.7137e-19)
(0.918183 1.16251 -6.74553e-19)
(0.835718 1.12783 1.05884e-19)
(0.740202 1.08907 -1.63004e-18)
(0.626733 1.04485 -2.8358e-20)
(0.504702 0.998339 -5.13922e-18)
(0.389053 0.953573 1.97636e-19)
(0.282839 0.927932 -2.27943e-19)
(0.265792 1.46299 -2.73609e-19)
(0.343465 3.0743 3.47481e-20)
(0.369094 3.47302 2.14854e-21)
(0.326716 3.53416 1.33707e-18)
(0.287993 3.55791 7.23871e-19)
(0.237132 3.5817 -3.06855e-19)
(0.176711 3.57676 -2.43213e-19)
(0.252263 0.261166 -1.2626e-19)
(0.969873 1.06622 -4.03143e-19)
(1.09846 1.23714 1.75604e-19)
(1.09352 1.26492 2.40241e-19)
(1.04253 1.24574 0)
(0.979476 1.21815 -1.13239e-18)
(0.907868 1.18705 -9.48043e-19)
(0.82558 1.15312 1.00238e-19)
(0.730061 1.11587 -1.78056e-19)
(0.61618 1.07456 -2.55086e-18)
(0.492862 1.033 -2.45404e-18)
(0.375781 0.995162 -1.6901e-18)
(0.286637 1.05291 -1.75334e-18)
(0.334873 2.13383 1.78673e-18)
(0.431574 3.37533 1.5671e-18)
(0.415162 3.53617 0)
(0.365826 3.5803 0)
(0.327709 3.62238 -2.70175e-19)
(0.271951 3.68304 0)
(0.188776 3.65613 -4.09619e-19)
(0.241375 0.262562 1.51666e-19)
(0.963853 1.09205 2.9448e-19)
(1.08866 1.26344 0)
(1.08201 1.29022 1.18499e-20)
(1.03094 1.27062 5.44205e-19)
(0.968128 1.24292 -1.58149e-18)
(0.896817 1.21207 -5.91965e-19)
(0.814922 1.17878 8.8146e-20)
(0.71965 1.14296 -1.30391e-18)
(0.605762 1.10453 1.39604e-19)
(0.481944 1.06803 0)
(0.366049 1.03987 0)
(0.314087 1.28154 -1.67568e-18)