0.490941 	1.12503 	0.00611395 	3.00276 	0
0.561075 	1.12503 	0.00611395 	3.00276 	0
0.63121 	1.12503 	0.00611395 	3.00276 	0
0.701344 	1.12503 	0.00611395 	3.00276 	0
0.771478 	1.12503 	0.00611395 	3.00276 	0
0.841613 	1.12503 	0.00611395 	3.00276 	0
0.911747 	1.12503 	0.00611395 	3.00276 	0
0.981881 	1.12503 	0.00611395 	3.00276 	0
1.05202 	1.12503 	0.00611395 	3.00276 	0
1.12215 	1.12503 	0.00611395 	3.00276 	0
1.19228 	1.12503 	0.00611395 	3.00276 	0
1.26242 	1.09888 	0.0114933 	3.00802 	0
1.33255 	1.09888 	0.0114933 	3.00802 	0
1.40269 	1.09888 	0.0114933 	3.00802 	0
1.47282 	1.09888 	0.0114933 	3.00802 	0
1.54296 	1.09888 	0.0114933 	3.00802 	0
1.61309 	1.09888 	0.0114933 	3.00802 	0
1.68323 	1.09888 	0.0114933 	3.00802 	0
1.75336 	1.09888 	0.0114933 	3.00802 	0
1.82349 	1.04909 	0.0148409 	3.02386 	4.01963e-19
1.89363 	1.04909 	0.0148409 	3.02386 	4.01963e-19
1.96376 	1.04909 	0.0148409 	3.02386 	4.01963e-19
2.0339 	1.04909 	0.0148409 	3.02386 	4.01963e-19
2.10403 	1.04909 	0.0148409 	3.02386 	4.01963e-19
2.17417 	1.04909 	0.0148409 	3.02386 	4.01963e-19
2.2443 	1.04909 	0.0148409 	3.02386 	4.01963e-19
2.31443 	1.04909 	0.0148409 	3.02386 	4.01963e-19
2.38457 	1.04909 	0.0148409 	3.02386 	4.01963e-19
2.4547 	1.04909 	0.0148409 	3.02386 	4.01963e-19
2.52484 	1.04909 	0.0148409 	3.02386 	4.01963e-19
2.59497 	1.01445 	0.0073606 	3.03678 	-6.36498e-19
2.66511 	1.01445 	0.0073606 	3.03678 	-6.36498e-19
2.73524 	1.01445 	0.0073606 	3.03678 	-6.36498e-19
2.80538 	1.01445 	0.0073606 	3.03678 	-6.36498e-19
2.87551 	1.01445 	0.0073606 	3.03678 	-6.36498e-19
2.94564 	1.01445 	0.0073606 	3.03678 	-6.36498e-19
3.01578 	1.01445 	0.0073606 	3.03678 	-6.36498e-19
3.08591 	1.01445 	0.0073606 	3.03678 	-6.36498e-19
3.15605 	1.01445 	0.0073606 	3.03678 	-6.36498e-19
3.22618 	1.01445 	0.0073606 	3.03678 	-6.36498e-19
3.29632 	0.981976 	0.0202217 	3.04336 	6.43187e-19
3.36645 	0.981976 	0.0202217 	3.04336 	6.43187e-19
3.43659 	0.981976 	0.0202217 	3.04336 	6.43187e-19
3.50672 	0.981976 	0.0202217 	3.04336 	6.43187e-19
3.57685 	0.981976 	0.0202217 	3.04336 	6.43187e-19
3.64699 	0.981976 	0.0202217 	3.04336 	6.43187e-19
3.71712 	0.981976 	0.0202217 	3.04336 	6.43187e-19
3.78726 	0.981976 	0.0202217 	3.04336 	6.43187e-19
3.85739 	0.981976 	0.0202217 	3.04336 	6.43187e-19
3.92753 	0.981976 	0.0202217 	3.04336 	6.43187e-19
3.99766 	0.981976 	0.0202217 	3.04336 	6.43187e-19
4.06779 	0.963684 	0.00359402 	3.05024 	-1.80824e-20
4.13793 	0.963684 	0.00359402 	3.05024 	-1.80824e-20
4.20806 	0.963684 	0.00359402 	3.05024 	-1.80824e-20
4.2782 	0.963684 	0.00359402 	3.05024 	-1.80824e-20
4.34833 	0.963684 	0.00359402 	3.05024 	-1.80824e-20
4.41847 	0.963684 	0.00359402 	3.05024 	-1.80824e-20
4.4886 	0.938735 	0.0167279 	3.05774 	0
4.55874 	0.938735 	0.0167279 	3.05774 	0
4.62887 	0.938735 	0.0167279 	3.05774 	0
4.699 	0.938735 	0.0167279 	3.05774 	0
4.76914 	0.938735 	0.0167279 	3.05774 	0
4.83927 	0.938735 	0.0167279 	3.05774 	0
4.90941 	0.938735 	0.0167279 	3.05774 	0
4.97954 	0.938735 	0.0167279 	3.05774 	0
5.04968 	0.938735 	0.0167279 	3.05774 	0
5.11981 	0.938735 	0.0167279 	3.05774 	0
5.18994 	0.916444 	0.00574757 	3.0649 	-8.54142e-21
5.26008 	0.916444 	0.00574757 	3.0649 	-8.54142e-21
5.33021 	0.916444 	0.00574757 	3.0649 	-8.54142e-21
5.40035 	0.916444 	0.00574757 	3.0649 	-8.54142e-21
5.47048 	0.916444 	0.00574757 	3.0649 	-8.54142e-21
5.54062 	0.916444 	0.00574757 	3.0649 	-8.54142e-21
5.61075 	0.916444 	0.00574757 	3.0649 	-8.54142e-21
5.68089 	0.887678 	0.0112024 	3.07415 	0
5.75102 	0.887678 	0.0112024 	3.07415 	0
5.82115 	0.887678 	0.0112024 	3.07415 	0
5.89129 	0.887678 	0.0112024 	3.07415 	0
5.96142 	0.887678 	0.0112024 	3.07415 	0
6.03156 	0.887678 	0.0112024 	3.07415 	0
6.10169 	0.887678 	0.0112024 	3.07415 	0
6.17183 	0.887678 	0.0112024 	3.07415 	0
6.24196 	0.887678 	0.0112024 	3.07415 	0
6.3121 	0.858285 	0.00721456 	3.08268 	0
6.38223 	0.858285 	0.00721456 	3.08268 	0
6.45236 	0.858285 	0.00721456 	3.08268 	0
6.5225 	0.858285 	0.00721456 	3.08268 	0
6.59263 	0.858285 	0.00721456 	3.08268 	0
6.66277 	0.858285 	0.00721456 	3.08268 	0
6.7329 	0.858285 	0.00721456 	3.08268 	0
6.80304 	0.858285 	0.00721456 	3.08268 	0
6.87317 	0.832959 	0.00638345 	3.09132 	2.85722e-19
6.9433 	0.832959 	0.00638345 	3.09132 	2.85722e-19
7.01344 	0.832959 	0.00638345 	3.09132 	2.85722e-19
7.08357 	0.832959 	0.00638345 	3.09132 	2.85722e-19
7.15371 	0.832959 	0.00638345 	3.09132 	2.85722e-19
7.22384 	0.832959 	0.00638345 	3.09132 	2.85722e-19
7.29398 	0.832959 	0.00638345 	3.09132 	2.85722e-19
7.36411 	0.832959 	0.00638345 	3.09132 	2.85722e-19
7.43425 	0.832959 	0.00638345 	3.09132 	2.85722e-19
7.50438 	0.801443 	0.00866575 	3.09884 	-2.12376e-18
7.57451 	0.801443 	0.00866575 	3.09884 	-2.12376e-18
7.64465 	0.801443 	0.00866575 	3.09884 	-2.12376e-18
7.71478 	0.801443 	0.00866575 	3.09884 	-2.12376e-18
7.78492 	0.801443 	0.00866575 	3.09884 	-2.12376e-18
7.85505 	0.801443 	0.00866575 	3.09884 	-2.12376e-18
7.92519 	0.801443 	0.00866575 	3.09884 	-2.12376e-18
7.99532 	0.801443 	0.00866575 	3.09884 	-2.12376e-18
8.06545 	0.781617 	0.00191631 	3.10687 	2.07283e-18
8.13559 	0.781617 	0.00191631 	3.10687 	2.07283e-18
8.20572 	0.781617 	0.00191631 	3.10687 	2.07283e-18
8.27586 	0.781617 	0.00191631 	3.10687 	2.07283e-18
8.34599 	0.781617 	0.00191631 	3.10687 	2.07283e-18
8.41613 	0.781617 	0.00191631 	3.10687 	2.07283e-18
8.48626 	0.781617 	0.00191631 	3.10687 	2.07283e-18
8.5564 	0.781617 	0.00191631 	3.10687 	2.07283e-18
8.62653 	0.781617 	0.00191631 	3.10687 	2.07283e-18
8.69666 	0.751178 	0.0169699 	3.11803 	1.91005e-18
8.7668 	0.751178 	0.0169699 	3.11803 	1.91005e-18
8.83693 	0.751178 	0.0169699 	3.11803 	1.91005e-18
8.90707 	0.751178 	0.0169699 	3.11803 	1.91005e-18
8.9772 	0.751178 	0.0169699 	3.11803 	1.91005e-18
9.04734 	0.751178 	0.0169699 	3.11803 	1.91005e-18
9.11747 	0.751178 	0.0169699 	3.11803 	1.91005e-18
9.18761 	0.751178 	0.0169699 	3.11803 	1.91005e-18
9.25774 	0.7218 	0.00324222 	3.11805 	-1.78203e-18
9.32787 	0.7218 	0.00324222 	3.11805 	-1.78203e-18
9.39801 	0.7218 	0.00324222 	3.11805 	-1.78203e-18
9.46814 	0.7218 	0.00324222 	3.11805 	-1.78203e-18
9.53828 	0.7218 	0.00324222 	3.11805 	-1.78203e-18
9.60841 	0.7218 	0.00324222 	3.11805 	-1.78203e-18
9.67855 	0.7218 	0.00324222 	3.11805 	-1.78203e-18
9.74868 	0.7218 	0.00324222 	3.11805 	-1.78203e-18
9.81881 	0.703383 	0.0158666 	3.12979 	-5.452e-19
9.88895 	0.703383 	0.0158666 	3.12979 	-5.452e-19
9.95908 	0.703383 	0.0158666 	3.12979 	-5.452e-19
10.0292 	0.703383 	0.0158666 	3.12979 	-5.452e-19
10.0994 	0.703383 	0.0158666 	3.12979 	-5.452e-19
10.1695 	0.703383 	0.0158666 	3.12979 	-5.452e-19
10.2396 	0.703383 	0.0158666 	3.12979 	-5.452e-19
10.3098 	0.703383 	0.0158666 	3.12979 	-5.452e-19
10.3799 	0.703383 	0.0158666 	3.12979 	-5.452e-19
10.45 	0.703383 	0.0158666 	3.12979 	-5.452e-19
10.5202 	0.703383 	0.0158666 	3.12979 	-5.452e-19
10.5903 	0.703383 	0.0158666 	3.12979 	-5.452e-19
10.6604 	0.725139 	0.0139455 	3.12584 	8.02418e-19
10.7306 	0.673009 	0.0344938 	3.14007 	0
10.8007 	0.673009 	0.0344938 	3.14007 	0
10.8708 	0.673009 	0.0344938 	3.14007 	0
10.941 	0.673009 	0.0344938 	3.14007 	0
11.0111 	0.673009 	0.0344938 	3.14007 	0
11.0812 	0.673009 	0.0344938 	3.14007 	0
11.1514 	0.673009 	0.0344938 	3.14007 	0
11.2215 	0.673009 	0.0344938 	3.14007 	0
11.2916 	0.673009 	0.0344938 	3.14007 	0
11.3618 	0.673009 	0.0344938 	3.14007 	0
11.4319 	0.673009 	0.0344938 	3.14007 	0
11.502 	0.673009 	0.0344938 	3.14007 	0
11.5722 	0.673009 	0.0344938 	3.14007 	0
11.6423 	0.673009 	0.0344938 	3.14007 	0
11.7124 	0.680867 	0.021826 	3.13006 	0
11.7826 	0.621402 	0.0748755 	3.16028 	9.06189e-19
11.8527 	0.621402 	0.0748755 	3.16028 	9.06189e-19
11.9228 	0.621402 	0.0748755 	3.16028 	9.06189e-19
11.993 	0.621402 	0.0748755 	3.16028 	9.06189e-19
12.0631 	0.621402 	0.0748755 	3.16028 	9.06189e-19
12.1332 	0.621402 	0.0748755 	3.16028 	9.06189e-19
12.2034 	0.526816 	0.0678301 	3.18532 	-4.47051e-19
12.2735 	0.526816 	0.0678301 	3.18532 	-4.47051e-19
12.3437 	0.526816 	0.0678301 	3.18532 	-4.47051e-19
12.4138 	0.526816 	0.0678301 	3.18532 	-4.47051e-19
12.4839 	0.526816 	0.0678301 	3.18532 	-4.47051e-19
12.5541 	0.526816 	0.0678301 	3.18532 	-4.47051e-19
12.6242 	0.526816 	0.0678301 	3.18532 	-4.47051e-19
12.6943 	0.526816 	0.0678301 	3.18532 	-4.47051e-19
12.7645 	0.526816 	0.0678301 	3.18532 	-4.47051e-19
12.8346 	0.414723 	0.0348254 	3.1773 	4.1148e-19
12.9047 	0.401918 	0.134863 	3.22021 	-1.99366e-19
12.9749 	0.401918 	0.134863 	3.22021 	-1.99366e-19
13.045 	0.401918 	0.134863 	3.22021 	-1.99366e-19
13.1151 	0.401918 	0.134863 	3.22021 	-1.99366e-19
13.1853 	0.401918 	0.134863 	3.22021 	-1.99366e-19
13.2554 	0.401918 	0.134863 	3.22021 	-1.99366e-19
13.3255 	0.401918 	0.134863 	3.22021 	-1.99366e-19
13.3957 	0.626595 	0.139348 	3.19231 	1.40556e-18
13.4658 	0.626595 	0.139348 	3.19231 	1.40556e-18
13.5359 	0.626595 	0.139348 	3.19231 	1.40556e-18
13.6061 	0.626595 	0.139348 	3.19231 	1.40556e-18
13.6762 	0.626595 	0.139348 	3.19231 	1.40556e-18
13.7463 	0.626595 	0.139348 	3.19231 	1.40556e-18
13.8165 	0.705749 	0.107502 	2.86507 	-1.16569e-18
13.8866 	0.920368 	0.130772 	2.95895 	5.35479e-19
13.9567 	0.920368 	0.130772 	2.95895 	5.35479e-19
14.0269 	0.338294 	0.240928 	3.03164 	-1.7857e-18
14.097 	0.338294 	0.240928 	3.03164 	-1.7857e-18
14.1671 	0.338294 	0.240928 	3.03164 	-1.7857e-18
14.2373 	0.338294 	0.240928 	3.03164 	-1.7857e-18
14.3074 	0.338294 	0.240928 	3.03164 	-1.7857e-18
14.3776 	0.338294 	0.240928 	3.03164 	-1.7857e-18
14.4477 	0.338294 	0.240928 	3.03164 	-1.7857e-18
14.5178 	0.338294 	0.240928 	3.03164 	-1.7857e-18
14.588 	0.338294 	0.240928 	3.03164 	-1.7857e-18
14.6581 	0.338294 	0.240928 	3.03164 	-1.7857e-18
14.7282 	0.338294 	0.240928 	3.03164 	-1.7857e-18
14.7984 	0.338294 	0.240928 	3.03164 	-1.7857e-18
14.8685 	0.338294 	0.240928 	3.03164 	-1.7857e-18
14.9386 	0.164344 	0.334566 	3.19009 	0
15.0088 	0.164344 	0.334566 	3.19009 	0
15.0789 	0.164344 	0.334566 	3.19009 	0
15.149 	0.164344 	0.334566 	3.19009 	0
15.2192 	0.164344 	0.334566 	3.19009 	0
15.2893 	-0.342813 	0.336746 	3.41555 	-2.14747e-19
15.3594 	-0.342813 	0.336746 	3.41555 	-2.14747e-19
15.4296 	-0.342813 	0.336746 	3.41555 	-2.14747e-19
15.4997 	-0.342813 	0.336746 	3.41555 	-2.14747e-19
15.5698 	-0.342813 	0.336746 	3.41555 	-2.14747e-19
15.64 	-0.342813 	0.336746 	3.41555 	-2.14747e-19
15.7101 	-0.833367 	0.391761 	3.4857 	0
15.7802 	-0.833367 	0.391761 	3.4857 	0
15.8504 	-0.724614 	0.643207 	3.54175 	1.26664e-18
15.9205 	-0.724614 	0.643207 	3.54175 	1.26664e-18
15.9906 	-0.724614 	0.643207 	3.54175 	1.26664e-18
16.0608 	-0.724614 	0.643207 	3.54175 	1.26664e-18
16.1309 	-0.724614 	0.643207 	3.54175 	1.26664e-18
16.201 	-0.724614 	0.643207 	3.54175 	1.26664e-18
16.2712 	-0.724614 	0.643207 	3.54175 	1.26664e-18
16.3413 	-0.724614 	0.643207 	3.54175 	1.26664e-18
16.4114 	-0.724614 	0.643207 	3.54175 	1.26664e-18
16.4816 	-0.724614 	0.643207 	3.54175 	1.26664e-18
16.5517 	-0.724614 	0.643207 	3.54175 	1.26664e-18
16.6219 	-0.724614 	0.643207 	3.54175 	1.26664e-18
16.692 	-0.724614 	0.643207 	3.54175 	1.26664e-18
16.7621 	-0.724614 	0.643207 	3.54175 	1.26664e-18
16.8323 	-0.270979 	0.86593 	3.11024 	7.47733e-20
16.9024 	-0.270979 	0.86593 	3.11024 	7.47733e-20
16.9725 	-0.270979 	0.86593 	3.11024 	7.47733e-20
17.0427 	-0.270979 	0.86593 	3.11024 	7.47733e-20
17.1128 	-0.270979 	0.86593 	3.11024 	7.47733e-20
17.1829 	-0.270979 	0.86593 	3.11024 	7.47733e-20
17.2531 	-0.270979 	0.86593 	3.11024 	7.47733e-20
17.3232 	-0.270979 	0.86593 	3.11024 	7.47733e-20
17.3933 	-0.270979 	0.86593 	3.11024 	7.47733e-20
17.4635 	-0.270979 	0.86593 	3.11024 	7.47733e-20
17.5336 	-0.174842 	0.909588 	3.02655 	-3.8758e-20
17.6037 	-0.174842 	0.909588 	3.02655 	-3.8758e-20
17.6739 	-0.174842 	0.909588 	3.02655 	-3.8758e-20
17.744 	-0.265888 	1.03855 	3.15614 	1.34437e-19
17.8141 	-0.265888 	1.03855 	3.15614 	1.34437e-19
17.8843 	-0.265888 	1.03855 	3.15614 	1.34437e-19
17.9544 	-0.265888 	1.03855 	3.15614 	1.34437e-19
18.0245 	-0.265888 	1.03855 	3.15614 	1.34437e-19
18.0947 	-0.265888 	1.03855 	3.15614 	1.34437e-19
18.1648 	-0.265888 	1.03855 	3.15614 	1.34437e-19
18.2349 	-0.265888 	1.03855 	3.15614 	1.34437e-19
18.3051 	-0.265888 	1.03855 	3.15614 	1.34437e-19
18.3752 	0.0220932 	1.00179 	2.75653 	-1.02239e-19
18.4453 	0.0220932 	1.00179 	2.75653 	-1.02239e-19
18.5155 	0.0220932 	1.00179 	2.75653 	-1.02239e-19
18.5856 	0.0220932 	1.00179 	2.75653 	-1.02239e-19
18.6557 	0.0220932 	1.00179 	2.75653 	-1.02239e-19
18.7259 	0.0220932 	1.00179 	2.75653 	-1.02239e-19
18.796 	0.0220932 	1.00179 	2.75653 	-1.02239e-19
18.8662 	0.0825365 	1.04164 	2.8163 	-1.60925e-19
18.9363 	0.0825365 	1.04164 	2.8163 	-1.60925e-19
19.0064 	0.0825365 	1.04164 	2.8163 	-1.60925e-19
19.0766 	0.0825365 	1.04164 	2.8163 	-1.60925e-19
19.1467 	0.0825365 	1.04164 	2.8163 	-1.60925e-19
19.2168 	0.0825365 	1.04164 	2.8163 	-1.60925e-19
19.287 	0.0825365 	1.04164 	2.8163 	-1.60925e-19
19.3571 	0.0825365 	1.04164 	2.8163 	-1.60925e-19
19.4272 	0.0825365 	1.04164 	2.8163 	-1.60925e-19
19.4974 	0.0825365 	1.04164 	2.8163 	-1.60925e-19
19.5675 	0.0825365 	1.04164 	2.8163 	-1.60925e-19
19.6376 	0.0825365 	1.04164 	2.8163 	-1.60925e-19
19.7078 	0.0825365 	1.04164 	2.8163 	-1.60925e-19
19.7779 	0.228381 	0.987825 	2.44007 	-1.13073e-19
19.848 	0.228381 	0.987825 	2.44007 	-1.13073e-19
19.9182 	0.228381 	0.987825 	2.44007 	-1.13073e-19
19.9883 	0.228381 	0.987825 	2.44007 	-1.13073e-19
20.0584 	0.228381 	0.987825 	2.44007 	-1.13073e-19
20.1286 	0.228381 	0.987825 	2.44007 	-1.13073e-19
20.1987 	0.228381 	0.987825 	2.44007 	-1.13073e-19
20.2688 	0.222286 	0.994367 	2.43316 	2.93033e-19
20.339 	0.222286 	0.994367 	2.43316 	2.93033e-19
20.4091 	0.222286 	0.994367 	2.43316 	2.93033e-19
20.4792 	0.222286 	0.994367 	2.43316 	2.93033e-19
20.5494 	0.222286 	0.994367 	2.43316 	2.93033e-19
20.6195 	0.222286 	0.994367 	2.43316 	2.93033e-19
20.6896 	0.222286 	0.994367 	2.43316 	2.93033e-19
20.7598 	0.222286 	0.994367 	2.43316 	2.93033e-19
20.8299 	0.222286 	0.994367 	2.43316 	2.93033e-19
20.9 	0.222286 	0.994367 	2.43316 	2.93033e-19
20.9702 	0.222286 	0.994367 	2.43316 	2.93033e-19
21.0403 	0.222286 	0.994367 	2.43316 	2.93033e-19
21.1105 	0.222286 	0.994367 	2.43316 	2.93033e-19
21.1806 	0.222286 	0.994367 	2.43316 	2.93033e-19
21.2507 	0.222286 	0.994367 	2.43316 	2.93033e-19
21.3209 	0.222286 	0.994367 	2.43316 	2.93033e-19
21.391 	0.222286 	0.994367 	2.43316 	2.93033e-19
21.4611 	0.237325 	0.695605 	1.89414 	-4.02602e-19
21.5313 	0.237325 	0.695605 	1.89414 	-4.02602e-19
21.6014 	0.237325 	0.695605 	1.89414 	-4.02602e-19
21.6715 	0.131929 	0.606772 	1.38903 	-4.02219e-20
21.7417 	0.131929 	0.606772 	1.38903 	-4.02219e-20
21.8118 	0.131929 	0.606772 	1.38903 	-4.02219e-20
21.8819 	0.131929 	0.606772 	1.38903 	-4.02219e-20
21.9521 	0.131929 	0.606772 	1.38903 	-4.02219e-20
22.0222 	-0.00250286 	0.930234 	2.33338 	9.88003e-20
22.0923 	-0.00250286 	0.930234 	2.33338 	9.88003e-20
22.1625 	-0.00250286 	0.930234 	2.33338 	9.88003e-20
22.2326 	-0.00250286 	0.930234 	2.33338 	9.88003e-20
22.3027 	-0.00250286 	0.930234 	2.33338 	9.88003e-20
22.3729 	-0.00250286 	0.930234 	2.33338 	9.88003e-20
22.443 	-0.00250286 	0.930234 	2.33338 	9.88003e-20
22.5131 	-0.00250286 	0.930234 	2.33338 	9.88003e-20
22.5833 	-0.00250286 	0.930234 	2.33338 	9.88003e-20
22.6534 	-0.00250286 	0.930234 	2.33338 	9.88003e-20
22.7235 	-0.00250286 	0.930234 	2.33338 	9.88003e-20
22.7937 	-0.00250286 	0.930234 	2.33338 	9.88003e-20
22.8638 	-0.00250286 	0.930234 	2.33338 	9.88003e-20
22.9339 	-0.00250286 	0.930234 	2.33338 	9.88003e-20
23.0041 	-0.00250286 	0.930234 	2.33338 	9.88003e-20
23.0742 	-0.00250286 	0.930234 	2.33338 	9.88003e-20
23.1443 	-0.00250286 	0.930234 	2.33338 	9.88003e-20
23.2145 	-0.00250286 	0.930234 	2.33338 	9.88003e-20
23.2846 	-0.00250286 	0.930234 	2.33338 	9.88003e-20
23.3548 	-0.00250286 	0.930234 	2.33338 	9.88003e-20
23.4249 	-0.00250286 	0.930234 	2.33338 	9.88003e-20
23.495 	0.1876 	0.898145 	2.3128 	-8.28694e-20
23.5652 	0.1876 	0.898145 	2.3128 	-8.28694e-20
23.6353 	0.1876 	0.898145 	2.3128 	-8.28694e-20
23.7054 	0.1876 	0.898145 	2.3128 	-8.28694e-20
23.7756 	0.1876 	0.898145 	2.3128 	-8.28694e-20
23.8457 	0.1876 	0.898145 	2.3128 	-8.28694e-20
23.9158 	0.1876 	0.898145 	2.3128 	-8.28694e-20
23.986 	0.317246 	0.835743 	2.1698 	3.80853e-21
24.0561 	0.317246 	0.835743 	2.1698 	3.80853e-21
24.1262 	0.317246 	0.835743 	2.1698 	3.80853e-21
24.1964 	0.317246 	0.835743 	2.1698 	3.80853e-21
24.2665 	0.317246 	0.835743 	2.1698 	3.80853e-21
24.3366 	0.317246 	0.835743 	2.1698 	3.80853e-21
24.4068 	0.317246 	0.835743 	2.1698 	3.80853e-21
24.4769 	0.317246 	0.835743 	2.1698 	3.80853e-21
24.547 	0.317246 	0.835743 	2.1698 	3.80853e-21
24.6172 	0.317246 	0.835743 	2.1698 	3.80853e-21
24.6873 	0.317246 	0.835743 	2.1698 	3.80853e-21
24.7574 	0.317246 	0.835743 	2.1698 	3.80853e-21
24.8276 	0.317246 	0.835743 	2.1698 	3.80853e-21
24.8977 	0.317246 	0.835743 	2.1698 	3.80853e-21
24.9678 	0.317246 	0.835743 	2.1698 	3.80853e-21
25.038 	0.317246 	0.835743 	2.1698 	3.80853e-21
25.1081 	0.317246 	0.835743 	2.1698 	3.80853e-21
25.1782 	0.264249 	0.495383 	1.33782 	0
25.2484 	0.264249 	0.495383 	1.33782 	0
25.3185 	0.264249 	0.495383 	1.33782 	0
25.3886 	0.264249 	0.495383 	1.33782 	0
25.4588 	0.264249 	0.495383 	1.33782 	0
25.5289 	0.264249 	0.495383 	1.33782 	0
25.5991 	0.264249 	0.495383 	1.33782 	0
25.6692 	0.264249 	0.495383 	1.33782 	0
25.7393 	0.264249 	0.495383 	1.33782 	0
25.8095 	0.264249 	0.495383 	1.33782 	0
25.8796 	0.264249 	0.495383 	1.33782 	0
25.9497 	0.264249 	0.495383 	1.33782 	0
26.0199 	0.264249 	0.495383 	1.33782 	0
26.09 	0.264249 	0.495383 	1.33782 	0
26.1601 	0.264249 	0.495383 	1.33782 	0
26.2303 	0.169491 	0.49888 	1.36337 	-2.72924e-19
26.3004 	0.169491 	0.49888 	1.36337 	-2.72924e-19
26.3705 	0.169491 	0.49888 	1.36337 	-2.72924e-19
26.4407 	0.169491 	0.49888 	1.36337 	-2.72924e-19
26.5108 	0.169491 	0.49888 	1.36337 	-2.72924e-19
26.5809 	0.169491 	0.49888 	1.36337 	-2.72924e-19
26.6511 	0.169491 	0.49888 	1.36337 	-2.72924e-19
26.7212 	0.169491 	0.49888 	1.36337 	-2.72924e-19
26.7913 	0.169491 	0.49888 	1.36337 	-2.72924e-19
26.8615 	0.169491 	0.49888 	1.36337 	-2.72924e-19
26.9316 	0.169491 	0.49888 	1.36337 	-2.72924e-19
27.0017 	0.169491 	0.49888 	1.36337 	-2.72924e-19
27.0719 	0.169491 	0.49888 	1.36337 	-2.72924e-19
27.142 	0.169491 	0.49888 	1.36337 	-2.72924e-19
27.2121 	0.169491 	0.49888 	1.36337 	-2.72924e-19
27.2823 	0.169491 	0.49888 	1.36337 	-2.72924e-19
27.3524 	0.108118 	0.492368 	1.36541 	2.99785e-19
27.4225 	0.108118 	0.492368 	1.36541 	2.99785e-19
27.4927 	0.108118 	0.492368 	1.36541 	2.99785e-19
27.5628 	0.108118 	0.492368 	1.36541 	2.99785e-19
27.6329 	0.108118 	0.492368 	1.36541 	2.99785e-19
27.7031 	0.108118 	0.492368 	1.36541 	2.99785e-19
27.7732 	0.108118 	0.492368 	1.36541 	2.99785e-19
27.8434 	0.108118 	0.492368 	1.36541 	2.99785e-19
27.9135 	0.108118 	0.492368 	1.36541 	2.99785e-19
27.9836 	0.108118 	0.492368 	1.36541 	2.99785e-19
28.0538 	0.108118 	0.492368 	1.36541 	2.99785e-19
28.1239 	0.108118 	0.492368 	1.36541 	2.99785e-19
28.194 	0.108118 	0.492368 	1.36541 	2.99785e-19
28.2642 	0.108118 	0.492368 	1.36541 	2.99785e-19
28.3343 	0.108118 	0.492368 	1.36541 	2.99785e-19
28.4044 	0.108118 	0.492368 	1.36541 	2.99785e-19
28.4746 	0.108118 	0.492368 	1.36541 	2.99785e-19
28.5447 	0.108118 	0.492368 	1.36541 	2.99785e-19
28.6148 	0.108118 	0.492368 	1.36541 	2.99785e-19
28.685 	0.108118 	0.492368 	1.36541 	2.99785e-19
28.7551 	0.108118 	0.492368 	1.36541 	2.99785e-19
28.8252 	0.108118 	0.492368 	1.36541 	2.99785e-19
28.8954 	0.108118 	0.492368 	1.36541 	2.99785e-19
28.9655 	0.0579018 	0.43894 	1.29031 	7.67235e-21
29.0356 	0.0579018 	0.43894 	1.29031 	7.67235e-21
29.1058 	0.0579018 	0.43894 	1.29031 	7.67235e-21
29.1759 	0.0579018 	0.43894 	1.29031 	7.67235e-21
29.246 	0.0579018 	0.43894 	1.29031 	7.67235e-21
29.3162 	0.0579018 	0.43894 	1.29031 	7.67235e-21
29.3863 	0.0579018 	0.43894 	1.29031 	7.67235e-21
29.4564 	0.0579018 	0.43894 	1.29031 	7.67235e-21
29.5266 	0.0579018 	0.43894 	1.29031 	7.67235e-21
29.5967 	0.0579018 	0.43894 	1.29031 	7.67235e-21
29.6668 	0.0579018 	0.43894 	1.29031 	7.67235e-21
29.737 	0.0579018 	0.43894 	1.29031 	7.67235e-21
29.8071 	0.0579018 	0.43894 	1.29031 	7.67235e-21
29.8773 	0.0579018 	0.43894 	1.29031 	7.67235e-21
29.9474 	0.0579018 	0.43894 	1.29031 	7.67235e-21
30.0175 	0.0579018 	0.43894 	1.29031 	7.67235e-21
30.0877 	0.0579018 	0.43894 	1.29031 	7.67235e-21
30.1578 	0.0579018 	0.43894 	1.29031 	7.67235e-21
30.2279 	0.0579018 	0.43894 	1.29031 	7.67235e-21
30.2981 	0.0579018 	0.43894 	1.29031 	7.67235e-21
30.3682 	0.0579018 	0.43894 	1.29031 	7.67235e-21
30.4383 	0.0579018 	0.43894 	1.29031 	7.67235e-21
30.5085 	0.0579018 	0.43894 	1.29031 	7.67235e-21
30.5786 	0.0579018 	0.43894 	1.29031 	7.67235e-21
30.6487 	0.0579018 	0.43894 	1.29031 	7.67235e-21
30.7189 	0.0579018 	0.43894 	1.29031 	7.67235e-21
30.789 	0.0510387 	0.374282 	1.30967 	-6.58285e-20
30.8591 	0.0510387 	0.374282 	1.30967 	-6.58285e-20
30.9293 	0.0510387 	0.374282 	1.30967 	-6.58285e-20
30.9994 	0.0510387 	0.374282 	1.30967 	-6.58285e-20
31.0695 	0.0510387 	0.374282 	1.30967 	-6.58285e-20
31.1397 	0.0510387 	0.374282 	1.30967 	-6.58285e-20
31.2098 	0.0510387 	0.374282 	1.30967 	-6.58285e-20
31.2799 	0.0510387 	0.374282 	1.30967 	-6.58285e-20
31.3501 	0.0510387 	0.374282 	1.30967 	-6.58285e-20
31.4202 	0.0510387 	0.374282 	1.30967 	-6.58285e-20
31.4903 	0.0510387 	0.374282 	1.30967 	-6.58285e-20
31.5605 	0.0510387 	0.374282 	1.30967 	-6.58285e-20
31.6306 	0.0510387 	0.374282 	1.30967 	-6.58285e-20
31.7007 	0.0510387 	0.374282 	1.30967 	-6.58285e-20
31.7709 	0.0510387 	0.374282 	1.30967 	-6.58285e-20
31.841 	0.0510387 	0.374282 	1.30967 	-6.58285e-20
31.9111 	0.0510387 	0.374282 	1.30967 	-6.58285e-20
31.9813 	0.0510387 	0.374282 	1.30967 	-6.58285e-20
32.0514 	0.0510387 	0.374282 	1.30967 	-6.58285e-20
32.1216 	0.0510387 	0.374282 	1.30967 	-6.58285e-20
32.1917 	0.0510387 	0.374282 	1.30967 	-6.58285e-20
32.2618 	0.0510387 	0.374282 	1.30967 	-6.58285e-20
32.332 	0.0510387 	0.374282 	1.30967 	-6.58285e-20
32.4021 	0.0510387 	0.374282 	1.30967 	-6.58285e-20
32.4722 	0.0510387 	0.374282 	1.30967 	-6.58285e-20
32.5424 	0.0510387 	0.374282 	1.30967 	-6.58285e-20
32.6125 	0.0510387 	0.374282 	1.30967 	-6.58285e-20
32.6826 	0.0510387 	0.374282 	1.30967 	-6.58285e-20
32.7528 	0.0510387 	0.374282 	1.30967 	-6.58285e-20
32.8229 	0.0510387 	0.374282 	1.30967 	-6.58285e-20
32.893 	0.0510387 	0.374282 	1.30967 	-6.58285e-20
32.9632 	0.0510387 	0.374282 	1.30967 	-6.58285e-20
33.0333 	0.0510387 	0.374282 	1.30967 	-6.58285e-20
33.1034 	0.0510387 	0.374282 	1.30967 	-6.58285e-20
33.1736 	0.0510387 	0.374282 	1.30967 	-6.58285e-20
33.2437 	0.0510387 	0.374282 	1.30967 	-6.58285e-20
33.3138 	0.0510387 	0.374282 	1.30967 	-6.58285e-20
33.384 	0.0510387 	0.374282 	1.30967 	-6.58285e-20
33.4541 	0.0510387 	0.374282 	1.30967 	-6.58285e-20
33.5242 	0.0510387 	0.374282 	1.30967 	-6.58285e-20
33.5944 	0.0510387 	0.374282 	1.30967 	-6.58285e-20
33.6645 	0.0510387 	0.374282 	1.30967 	-6.58285e-20
33.7346 	0.0108345 	0.370548 	1.38158 	3.29012e-20
33.8048 	0.0108345 	0.370548 	1.38158 	3.29012e-20
33.8749 	0.0108345 	0.370548 	1.38158 	3.29012e-20
33.945 	0.0108345 	0.370548 	1.38158 	3.29012e-20
34.0152 	0.0108345 	0.370548 	1.38158 	3.29012e-20
34.0853 	0.0108345 	0.370548 	1.38158 	3.29012e-20
34.1554 	0.00908675 	0.277106 	1.33717 	-9.96887e-20
34.2256 	0.00908675 	0.277106 	1.33717 	-9.96887e-20
34.2957 	0.00908675 	0.277106 	1.33717 	-9.96887e-20
34.3659 	0.00908675 	0.277106 	1.33717 	-9.96887e-20
34.436 	0.00908675 	0.277106 	1.33717 	-9.96887e-20
34.5061 	0.00908675 	0.277106 	1.33717 	-9.96887e-20
34.5763 	0.00908675 	0.277106 	1.33717 	-9.96887e-20
34.6464 	0.00908675 	0.277106 	1.33717 	-9.96887e-20
34.7165 	0.205392 	0.266696 	1.6198 	1.09655e-19
34.7867 	0.205392 	0.266696 	1.6198 	1.09655e-19
34.8568 	0.205392 	0.266696 	1.6198 	1.09655e-19
34.9269 	0.205392 	0.266696 	1.6198 	1.09655e-19
34.9971 	0.205392 	0.266696 	1.6198 	1.09655e-19
35.0672 	0.205392 	0.266696 	1.6198 	1.09655e-19
35.1373 	0.205392 	0.266696 	1.6198 	1.09655e-19
35.2075 	0.205392 	0.266696 	1.6198 	1.09655e-19
35.2776 	0.205392 	0.266696 	1.6198 	1.09655e-19
35.3477 	0.205392 	0.266696 	1.6198 	1.09655e-19
35.4179 	0.205392 	0.266696 	1.6198 	1.09655e-19
35.488 	0.205392 	0.266696 	1.6198 	1.09655e-19
35.5581 	0.205392 	0.266696 	1.6198 	1.09655e-19
35.6283 	0.205392 	0.266696 	1.6198 	1.09655e-19
35.6984 	0.205392 	0.266696 	1.6198 	1.09655e-19
35.7685 	0.205392 	0.266696 	1.6198 	1.09655e-19
35.8387 	0.205392 	0.266696 	1.6198 	1.09655e-19
35.9088 	0.205392 	0.266696 	1.6198 	1.09655e-19
35.9789 	0.205392 	0.266696 	1.6198 	1.09655e-19
36.0491 	0.178986 	0.24337 	1.58174 	0
36.1192 	0.178986 	0.24337 	1.58174 	0
36.1893 	0.178986 	0.24337 	1.58174 	0
36.2595 	0.178986 	0.24337 	1.58174 	0
36.3296 	0.178986 	0.24337 	1.58174 	0
36.3997 	0.178986 	0.24337 	1.58174 	0
36.4699 	0.178986 	0.24337 	1.58174 	0
36.54 	0.178986 	0.24337 	1.58174 	0
36.6102 	0.178986 	0.24337 	1.58174 	0
36.6803 	0.178986 	0.24337 	1.58174 	0
36.7504 	0.178986 	0.24337 	1.58174 	0
36.8206 	0.178986 	0.24337 	1.58174 	0
36.8907 	0.051765 	0.191759 	1.46005 	6.11547e-20
36.9608 	0.051765 	0.191759 	1.46005 	6.11547e-20
37.031 	0.051765 	0.191759 	1.46005 	6.11547e-20
37.1011 	0.051765 	0.191759 	1.46005 	6.11547e-20
37.1712 	0.051765 	0.191759 	1.46005 	6.11547e-20
37.2414 	0.051765 	0.191759 	1.46005 	6.11547e-20
37.3115 	0.051765 	0.191759 	1.46005 	6.11547e-20
37.3816 	0.051765 	0.191759 	1.46005 	6.11547e-20
37.4518 	0.051765 	0.191759 	1.46005 	6.11547e-20
37.5219 	0.051765 	0.191759 	1.46005 	6.11547e-20
37.592 	0.051765 	0.191759 	1.46005 	6.11547e-20
37.6622 	0.051765 	0.191759 	1.46005 	6.11547e-20
37.7323 	0.051765 	0.191759 	1.46005 	6.11547e-20
37.8024 	0.051765 	0.191759 	1.46005 	6.11547e-20
37.8726 	0.051765 	0.191759 	1.46005 	6.11547e-20
37.9427 	0.051765 	0.191759 	1.46005 	6.11547e-20
38.0128 	0.051765 	0.191759 	1.46005 	6.11547e-20
38.083 	0.051765 	0.191759 	1.46005 	6.11547e-20
38.1531 	0.051765 	0.191759 	1.46005 	6.11547e-20
38.2232 	0.074337 	0.134521 	1.59949 	-7.01614e-20
38.2934 	0.074337 	0.134521 	1.59949 	-7.01614e-20
38.3635 	0.074337 	0.134521 	1.59949 	-7.01614e-20
38.4336 	0.074337 	0.134521 	1.59949 	-7.01614e-20
38.5038 	0.074337 	0.134521 	1.59949 	-7.01614e-20
38.5739 	0.074337 	0.134521 	1.59949 	-7.01614e-20
38.644 	0.074337 	0.134521 	1.59949 	-7.01614e-20
38.7142 	0.074337 	0.134521 	1.59949 	-7.01614e-20
38.7843 	0.074337 	0.134521 	1.59949 	-7.01614e-20
38.8545 	0.074337 	0.134521 	1.59949 	-7.01614e-20
38.9246 	0.074337 	0.134521 	1.59949 	-7.01614e-20
38.9947 	0.074337 	0.134521 	1.59949 	-7.01614e-20
39.0649 	0.074337 	0.134521 	1.59949 	-7.01614e-20
39.135 	0.074337 	0.134521 	1.59949 	-7.01614e-20
39.2051 	0.0352239 	0.117157 	1.57553 	0
39.2753 	0.0352239 	0.117157 	1.57553 	0
39.3454 	0.0352239 	0.117157 	1.57553 	0
39.4155 	0.0352239 	0.117157 	1.57553 	0
39.4857 	0.0352239 	0.117157 	1.57553 	0
39.5558 	0.0352239 	0.117157 	1.57553 	0
39.6259 	0.0352239 	0.117157 	1.57553 	0
39.6961 	0.0352239 	0.117157 	1.57553 	0
39.7662 	0.0352239 	0.117157 	1.57553 	0
39.8363 	0.0352239 	0.117157 	1.57553 	0
39.9065 	0.0352239 	0.117157 	1.57553 	0
39.9766 	0.0352239 	0.117157 	1.57553 	0
40.0467 	0.0352239 	0.117157 	1.57553 	0
40.1169 	0.0352239 	0.117157 	1.57553 	0
40.187 	0.0352239 	0.117157 	1.57553 	0
40.2571 	0.0352239 	0.117157 	1.57553 	0
40.3273 	0.0352239 	0.117157 	1.57553 	0
40.3974 	0.0352239 	0.117157 	1.57553 	0
40.4675 	0.0352239 	0.117157 	1.57553 	0
40.5377 	0.0352239 	0.117157 	1.57553 	0
40.6078 	0.0352239 	0.117157 	1.57553 	0
40.6779 	0.0205149 	0.114089 	1.53095 	-1.22866e-20
40.7481 	0.0205149 	0.114089 	1.53095 	-1.22866e-20
40.8182 	0.0205149 	0.114089 	1.53095 	-1.22866e-20
40.8883 	0.0205149 	0.114089 	1.53095 	-1.22866e-20
40.9585 	0.0205149 	0.114089 	1.53095 	-1.22866e-20
41.0286 	0.0205149 	0.114089 	1.53095 	-1.22866e-20
41.0988 	0.0205149 	0.114089 	1.53095 	-1.22866e-20
41.1689 	0.0205149 	0.114089 	1.53095 	-1.22866e-20
41.239 	0.0214636 	0.088979 	1.54043 	2.30329e-20
41.3092 	0.0214636 	0.088979 	1.54043 	2.30329e-20
41.3793 	0.0214636 	0.088979 	1.54043 	2.30329e-20
41.4494 	0.0214636 	0.088979 	1.54043 	2.30329e-20
41.5196 	0.0214636 	0.088979 	1.54043 	2.30329e-20
41.5897 	0.0214636 	0.088979 	1.54043 	2.30329e-20
41.6598 	0.0214636 	0.088979 	1.54043 	2.30329e-20
41.73 	0.0214636 	0.088979 	1.54043 	2.30329e-20
41.8001 	0.0214636 	0.088979 	1.54043 	2.30329e-20
41.8702 	0.0214636 	0.088979 	1.54043 	2.30329e-20
41.9404 	0.0214636 	0.088979 	1.54043 	2.30329e-20
42.0105 	0.0214636 	0.088979 	1.54043 	2.30329e-20
42.0806 	0.0214636 	0.088979 	1.54043 	2.30329e-20
42.1508 	0.0214636 	0.088979 	1.54043 	2.30329e-20
42.2209 	0.0214636 	0.088979 	1.54043 	2.30329e-20
42.291 	0.0214636 	0.088979 	1.54043 	2.30329e-20
42.3612 	0.0214636 	0.088979 	1.54043 	2.30329e-20
42.4313 	0.0214636 	0.088979 	1.54043 	2.30329e-20
42.5014 	0.0214636 	0.088979 	1.54043 	2.30329e-20
42.5716 	0.0214636 	0.088979 	1.54043 	2.30329e-20
42.6417 	0.0214636 	0.088979 	1.54043 	2.30329e-20
42.7118 	0.0097669 	0.0878731 	1.5315 	0
42.782 	0.0097669 	0.0878731 	1.5315 	0
42.8521 	0.0097669 	0.0878731 	1.5315 	0
42.9222 	0.0097669 	0.0878731 	1.5315 	0
42.9924 	0.0279207 	0.0460464 	1.58344 	0
43.0625 	0.0279207 	0.0460464 	1.58344 	0
43.1327 	0.0279207 	0.0460464 	1.58344 	0
43.2028 	0.0279207 	0.0460464 	1.58344 	0
43.2729 	0.0279207 	0.0460464 	1.58344 	0
43.3431 	0.0279207 	0.0460464 	1.58344 	0
43.4132 	0.0279207 	0.0460464 	1.58344 	0
43.4833 	0.0279207 	0.0460464 	1.58344 	0
43.5535 	0.0279207 	0.0460464 	1.58344 	0
43.6236 	0.0279207 	0.0460464 	1.58344 	0
43.6937 	0.0279207 	0.0460464 	1.58344 	0