/*--------------------------------*- C++ -*----------------------------------*\
| =========                 |                                                 |
| \\      /  F ield         | OpenFOAM: The Open Source CFD Toolbox           |
|  \\    /   O peration     | Version:  2306                                  |
|   \\  /    A nd           | Website:  www.openfoam.com                      |
|    \\/     M anipulation  |                                                 |
\*---------------------------------------------------------------------------*/
FoamFile
{
    version     2.0;
    format      ascii;
    arch        "LSB;label=32;scalar=64";
    class       surfaceScalarField;
    location    "46";
    object      phi;
}
// * * * * * * * * * * * * * * * * * * * * * * * * * * * * * * * * * * * * * //

dimensions      [0 3 -1 0 0 0 0];

oriented        oriented;

internalField   nonuniform List<scalar> 
17370
(
-0.0910991
0.0935451
0.286565
-0.0749543
0.0569541
0.364776
-0.0409372
0.0299529
0.427152
-0.0211972
0.0155959
0.504853
-0.0113445
0.00864389
0.602103
-0.00651097
0.00505934
0.720509
-0.00384352
0.00297556
0.863774
-0.00221108
0.00163784
1.03602
-0.00111012
0.000692017
1.24292
-0.000283507
-0.00010778
1.49158
0.00049234
-0.000902475
1.4916
0.00130373
-0.00180487
1.24319
0.00235229
-0.00309198
1.03638
0.00394437
-0.00515101
0.864113
0.00659807
-0.00872551
0.721185
0.0114185
-0.015659
0.603455
0.0212499
-0.0299945
0.508184
0.0409692
-0.0569775
0.432176
0.0749724
-0.0935556
0.365359
0.0911115
0.197899
-0.127345
0.088141
0.0392043
-0.364735
0.353786
-0.0726337
0.0835831
-0.446565
0.454367
-0.081719
0.0739177
-0.52097
0.529523
-0.0658094
0.0572564
-0.612848
0.621015
-0.0495049
0.041338
-0.726999
0.733787
-0.0344099
0.0276219
-0.867514
0.872445
-0.0222824
0.0173512
-1.03855
1.0419
-0.0136361
0.0102861
-1.24471
1.24712
-0.00773194
0.00532154
-1.49284
1.49485
-0.00335597
0.00134198
-1.49269
1.49451
0.000477226
-0.00229563
-1.2441
1.24602
0.00427077
-0.00618495
-1.0376
1.04009
0.008527
-0.0110132
-0.86616
0.869816
0.0142894
-0.0179454
-0.72448
0.729779
0.0228236
-0.0281226
-0.608889
0.615777
0.0348686
-0.0417565
-0.514991
0.5227
0.0498777
-0.0575862
-0.439772
0.447833
0.0660882
-0.0741488
-0.375158
0.377
0.0818946
-0.0837364
-0.25692
0.223425
0.0727404
-0.0392456
-0.0686477
0.0589157
0.00973205
-0.0520886
0.0587889
-0.374538
0.367837
-0.0579058
0.0540814
-0.453826
0.457651
-0.0487249
0.0443869
-0.52774
0.532078
-0.0401645
0.0363832
-0.621099
0.624881
-0.0321619
0.0280941
-0.734874
0.738942
-0.0236266
0.0196375
-0.874044
0.878033
-0.0155031
0.011988
-1.04339
1.04691
-0.00842193
0.00535904
-1.24866
1.25172
-0.00212546
-0.000873881
-1.49695
1.49994
0.00385246
-0.00702605
-1.49743
1.5006
0.010003
-0.0134539
-1.2501
1.25355
0.0168555
-0.0208644
-1.04573
1.04974
0.0247465
-0.0291102
-0.877323
0.881687
0.0330942
-0.0372311
-0.739317
0.743454
0.0409383
-0.0450839
-0.626349
0.630495
0.0493569
-0.0546506
-0.534942
0.540235
0.0584077
-0.0592059
-0.457925
0.458723
0.0524012
-0.0320319
-0.336405
0.316035
0.00978449
-0.0685091
0.0587246
-0.0531552
0.0491034
0.00405175
-0.0331826
0.0436822
-0.358361
0.347862
-0.0474049
0.0468217
-0.459505
0.460088
-0.0438482
0.040581
-0.536018
0.539285
-0.0368729
0.0335397
-0.628437
0.63177
-0.0299777
0.0268306
-0.74225
0.745398
-0.0234849
0.0203198
-0.881567
0.884732
-0.0167238
0.0133458
-1.05039
1.05377
-0.00961204
0.00617482
-1.25502
1.25845
-0.00235032
-0.00129745
-1.50333
1.50697
0.00491512
-0.00865196
-1.50414
1.50788
0.0119702
-0.015544
-1.25717
1.26075
0.0187613
-0.022176
-1.05351
1.05692
0.025184
-0.0283757
-0.885297
0.888488
0.0313986
-0.0348373
-0.746947
0.750386
0.0380644
-0.0416614
-0.634514
0.638111
0.0448322
-0.0476977
-0.544468
0.547334
0.0481689
-0.0442893
-0.456897
0.453018
0.0336024
-0.016252
-0.296674
0.279324
0.00411494
-0.0529072
0.0487923
-0.0459799
0.0434519
0.00252797
-0.0229454
0.0333217
-0.337215
0.326839
-0.0391122
0.0401036
-0.459795
0.458804
-0.0388923
0.0365967
-0.541955
0.544251
-0.0339597
0.0314007
-0.634762
0.637321
-0.0283988
0.0255454
-0.748459
0.751313
-0.0223173
0.0193265
-0.887729
0.89072
-0.0160136
0.012908
-1.05693
1.06004
-0.00936697
0.0059652
-1.26187
1.26527
-0.00204192
-0.00177528
-1.51073
1.51455
0.00555447
-0.00936143
-1.51169
1.5155
0.0126064
-0.0159378
-1.26422
1.26755
0.018833
-0.021908
-1.06009
1.06317
0.024689
-0.0277068
-0.891634
0.894652
0.0303885
-0.0332207
-0.753576
0.756408
0.0356351
-0.0381239
-0.64112
0.643609
0.040293
-0.0413375
-0.549158
0.550202
0.0401738
-0.0341321
-0.447831
0.441789
0.0234819
-0.010277
-0.264154
0.250949
0.00260546
-0.0455986
0.0429931
-0.0413517
0.039562
0.00178963
-0.0168835
0.0261729
-0.316962
0.307673
-0.0327967
0.0349427
-0.457215
0.455069
-0.0345287
0.0328526
-0.54625
0.547926
-0.0306569
0.0285566
-0.639615
0.641715
-0.0261391
0.0237664
-0.753921
0.756294
-0.0209461
0.0181963
-0.89357
0.89632
-0.0150127
0.0119867
-1.06306
1.06608
-0.00853628
0.00523578
-1.26858
1.27188
-0.00140925
-0.00233301
-1.51833
1.52207
0.00602587
-0.0097068
-1.51925
1.52293
0.0128106
-0.0159982
-1.27082
1.27401
0.0187594
-0.0216396
-1.06619
1.06907
0.0241161
-0.0266573
-0.897453
0.899995
0.0288028
-0.0309998
-0.758863
0.76106
0.0329167
-0.0349239
-0.64581
0.647818
0.0364173
-0.0366057
-0.55077
0.550959
0.0341961
-0.0272068
-0.435186
0.428197
0.0175509
-0.00741532
-0.239426
0.229291
0.00188419
-0.0408074
0.0389232
-0.0380204
0.0366732
0.00134728
-0.0129132
0.0209118
-0.299035
0.291036
-0.0277002
0.0306452
-0.452497
0.449551
-0.0308711
0.0297643
-0.54935
0.550457
-0.0277816
0.0258726
-0.64375
0.645659
-0.0236819
0.0215595
-0.758515
0.760638
-0.0190699
0.0166131
-0.898861
0.901318
-0.0137016
0.0108552
-1.06897
1.07182
-0.00753684
0.00433354
-1.2751
1.2783
-0.000616945
-0.00299858
-1.52572
1.52934
0.00655278
-0.0100881
-1.52654
1.53008
0.0130472
-0.016039
-1.27713
1.28013
0.0185547
-0.0210858
-1.0718
1.07433
0.023199
-0.0253342
-0.902311
0.904447
0.0271649
-0.0290723
-0.763087
0.764994
0.0307493
-0.0325073
-0.649677
0.651435
0.0333491
-0.0328083
-0.55079
0.550249
0.0294876
-0.0222008
-0.421004
0.413717
0.013733
-0.00572684
-0.220323
0.212317
0.00146231
-0.0372778
0.0358155
-0.0354959
0.0344559
0.00103998
-0.0101073
0.016882
-0.283677
0.276902
-0.0234181
0.0268267
-0.44636
0.442951
-0.0276362
0.0269609
-0.551344
0.552019
-0.0252167
0.0234499
-0.647536
0.649303
-0.0214046
0.0194146
-0.762688
0.764678
-0.0170742
0.0147777
-0.903622
0.905918
-0.0120761
0.00942445
-1.0745
1.07715
-0.00630041
0.00324725
-1.28139
1.28444
0.000324187
-0.00379784
-1.53286
1.53633
0.00719788
-0.0105444
-1.53352
1.53687
0.0132958
-0.0160165
-1.28301
1.28573
0.0182619
-0.020497
-1.07672
1.07896
0.0223695
-0.0242689
-0.90647
0.90837
0.0258937
-0.0275841
-0.766783
0.768474
0.0290626
-0.0304947
-0.653047
0.654479
0.0308353
-0.0295874
-0.549367
0.548119
0.0256619
-0.0184719
-0.406457
0.399267
0.0111099
-0.00460129
-0.205131
0.198622
0.00117989
-0.0345123
0.0333324
-0.033542
0.0327296
0.000812378
-0.00802772
0.0137325
-0.270694
0.264989
-0.0197934
0.0234099
-0.439434
0.435817
-0.0247078
0.0242873
-0.552603
0.553024
-0.0228212
0.0211712
-0.65106
0.65271
-0.0192292
0.0173342
-0.766612
0.768507
-0.015099
0.0129021
-0.908095
0.910292
-0.010316
0.00778793
-1.07966
1.08219
-0.00482441
0.00192788
-1.28737
1.29026
0.00146423
-0.00476546
-1.5397
1.543
0.00797635
-0.0110958
-1.5401
1.54322
0.0136242
-0.016097
-1.28834
1.29081
0.0181292
-0.0201443
-1.0811
1.08312
0.0218198
-0.0235094
-0.910181
0.911871
0.0249508
-0.0264506
-0.770065
0.771564
0.0277403
-0.0288064
-0.655703
0.656769
0.0287868
-0.0268842
-0.54655
0.544647
0.022582
-0.0156857
-0.39222
0.385324
0.00925303
-0.0038166
-0.192702
0.187265
0.000982697
-0.0322652
0.0312825
-0.0320149
0.0313784
0.000636531
-0.00642514
0.0112157
-0.259772
0.254982
-0.0166942
0.0203214
-0.4322
0.428573
-0.0219545
0.0217688
-0.553368
0.553554
-0.0205458
0.0189623
-0.654373
0.655956
-0.0170845
0.0152472
-0.770361
0.772198
-0.0130824
0.0109574
-0.912373
0.914498
-0.00845755
0.00601741
-1.0846
1.08704
-0.00316494
0.000393892
-1.29304
1.29582
0.00283089
-0.00594642
-1.54617
1.54929
0.0089507
-0.011842
-1.54622
1.54911
0.0141659
-0.0164191
-1.2932
1.29545
0.0182531
-0.0200555
-1.08505
1.08685
0.0215429
-0.0230387
-0.913485
0.91498
0.0243171
-0.0256468
-0.772983
0.774312
0.0267957
-0.0274645
-0.657616
0.658285
0.0270887
-0.0246521
-0.542495
0.540059
0.0201344
-0.013605
-0.378623
0.372093
0.00791836
-0.00325991
-0.182259
0.1776
0.000843368
-0.030382
0.0295387
-0.0308213
0.030327
0.000494255
-0.00513579
0.00913753
-0.250614
0.246613
-0.0139878
0.0174767
-0.425028
0.421539
-0.019307
0.0193249
-0.553687
0.553669
-0.0183114
0.0167747
-0.657584
0.65912
-0.0149329
0.0131237
-0.774005
0.775814
-0.0109926
0.00890563
-0.916511
0.918598
-0.00645874
0.00408002
-1.08936
1.09174
-0.00131074
-0.00136068
-1.29847
1.30114
0.00444185
-0.00738789
-1.55228
1.55522
0.010199
-0.0128769
-1.55188
1.55456
0.0150059
-0.0170476
-1.29763
1.29967
0.0186907
-0.0202891
-1.08858
1.09018
0.0215986
-0.0229129
-0.91641
0.917725
0.0240378
-0.0252034
-0.775575
0.776741
0.026165
-0.0264751
-0.658748
0.659058
0.0257287
-0.0228517
-0.537418
0.534541
0.0182249
-0.0120639
-0.365769
0.359608
0.00696019
-0.00286714
-0.173259
0.169166
0.000746639
-0.0287558
0.0280092
-0.0298998
0.0295257
0.00037404
-0.00405478
0.00736195
-0.242983
0.239676
-0.0115692
0.0148077
-0.418194
0.414955
-0.0167086
0.0168955
-0.553625
0.553438
-0.0159809
0.0145339
-0.660689
0.662136
-0.0127052
0.0108957
-0.777603
0.779412
-0.0087645
0.00668541
-0.920577
0.922656
-0.00426057
0.00191703
-1.094
1.09634
0.000787804
-0.00338376
-1.30371
1.3063
0.00634972
-0.00915036
-1.55805
1.56085
0.011787
-0.0142591
-1.55712
1.55959
0.0161921
-0.0180162
-1.30163
1.30345
0.0194635
-0.0208549
-1.09172
1.09311
0.0219862
-0.0231243
-0.918982
0.92012
0.0241032
-0.0251029
-0.77785
0.77885
0.0258161
-0.0258424
-0.659223
0.659249
0.024707
-0.0214563
-0.531488
0.528237
0.0167788
-0.0109449
-0.35364
0.347806
0.00628421
-0.00259659
-0.165309
0.161622
0.000681969
-0.0273077
0.0266258
-0.0292111
0.0289436
0.000267441
-0.00310737
0.00578649
-0.236704
0.234025
-0.00935017
0.0122555
-0.411906
0.409001
-0.0141146
0.0143991
-0.553271
0.552987
-0.0135446
0.0121569
-0.663642
0.66503
-0.0103193
0.00848295
-0.781209
0.783045
-0.00632175
0.00422263
-0.924626
0.926725
-0.00178897
-0.000542129
-1.09857
1.1009
0.00322423
-0.00576642
-1.30879
1.31133
0.00863648
-0.011307
-1.56354
1.56621
0.0137783
-0.0160501
-1.56194
1.56421
0.0177907
-0.0193987
-1.3052
1.3068
0.0206503
-0.0218314
-1.09445
1.09563
0.0227761
-0.0237273
-0.921206
0.922157
0.0245546
-0.025383
-0.77978
0.780608
0.0258402
-0.0256049
-0.659126
0.658891
0.0240609
-0.02046
-0.524837
0.521236
0.0157452
-0.0101703
-0.342142
0.336567
0.00583067
-0.00242204
-0.158108
0.1547
0.000642727
-0.0259778
0.0253351
-0.0287329
0.0285666
0.000166314
-0.00222856
0.00431676
-0.231659
0.229571
-0.00723077
0.00973227
-0.406325
0.403823
-0.0114431
0.0117502
-0.552774
0.552467
-0.0109282
0.00956829
-0.66651
0.66787
-0.00770152
0.00581411
-0.784871
0.786759
-0.00359064
0.00143809
-0.928714
0.930866
0.00104014
-0.00340308
-1.10312
1.10549
0.00608516
-0.00859864
-1.31377
1.31629
0.011393
-0.0139436
-1.56876
1.57131
0.0162526
-0.0183218
-1.56636
1.56843
0.0198642
-0.0212471
-1.30833
1.30971
0.022294
-0.0232537
-1.09676
1.09772
0.0240006
-0.0247467
-0.923063
0.923809
0.0254032
-0.0260697
-0.781358
0.782024
0.0262299
-0.0256704
-0.658435
0.657876
0.0237302
-0.0198133
-0.517524
0.513607
0.0150592
-0.00967128
-0.331137
0.325749
0.00555123
-0.00232235
-0.151418
0.148189
0.000623446
-0.024718
0.0240946
-0.0284572
0.0283934
6.37506e-05
-0.00137014
0.00288029
-0.227788
0.226278
-0.00512731
0.00715755
-0.401589
0.399559
-0.00861302
0.00885916
-0.55229
0.552044
-0.00802359
0.00665718
-0.669356
0.670722
-0.00472549
0.0027584
-0.788636
0.790603
-0.000439857
-0.00179509
-0.932902
0.935137
0.00435085
-0.00676474
-1.10774
1.11015
0.0094773
-0.0119861
-1.3187
1.32121
0.0147268
-0.0171708
-1.57374
1.57619
0.0193205
-0.021181
-1.57036
1.57222
0.0225141
-0.0236546
-1.311
1.31214
0.0244749
-0.0251847
-1.09863
1.09934
0.0257025
-0.0262187
-0.924518
0.925034
0.0266979
-0.0271777
-0.782554
0.783034
0.0270523
-0.0261175
-0.657047
0.656112
0.0237711
-0.0195266
-0.509597
0.505353
0.0147
-0.00941514
-0.32048
0.315195
0.00542165
-0.0022871
-0.145052
0.141917
0.000621467
-0.0234913
0.0228698
-0.0283871
0.0284335
-4.63833e-05
-0.000483827
0.00140715
-0.225077
0.224153
-0.00295539
0.00444766
-0.397831
0.396338
-0.00554629
0.00564809
-0.551994
0.551892
-0.00474307
0.00331726
-0.672263
0.673689
-0.00129169
-0.000789098
-0.792561
0.794642
0.00324088
-0.00558961
-0.937254
0.939603
0.00826015
-0.0107603
-1.11246
1.11496
0.0135378
-0.0160666
-1.32361
1.32614
0.0187715
-0.0211137
-1.57851
1.58085
0.0230993
-0.0247354
-1.57393
1.57557
0.0258398
-0.0267166
-1.31318
1.31405
0.0272921
-0.0277301
-1.1
1.10044
0.0280013
-0.028267
-0.925528
0.925793
0.0285479
-0.0287555
-0.78325
0.783458
0.028378
-0.0269814
-0.654878
0.653482
0.0241964
-0.0196008
-0.501047
0.496451
0.0146536
-0.00938331
-0.310001
0.304731
0.00542881
-0.00231081
-0.138842
0.135724
0.000635499
-0.0222631
0.0216276
-0.0285356
0.0286966
-0.000160983
0.000447579
-0.000147833
-0.223551
0.223251
-0.000650277
0.00152498
-0.395182
0.394307
-0.00215663
0.00203682
-0.552058
0.552178
-0.00100942
-0.000535201
-0.675342
0.676886
0.00269745
-0.00493208
-0.796716
0.798951
0.00756378
-0.0100742
-0.941834
0.944344
0.0129089
-0.0155365
-1.11735
1.11998
0.018417
-0.0209941
-1.32857
1.33115
0.0236843
-0.0259356
-1.58306
1.58531
0.0277517
-0.0291462
-1.57704
1.57843
0.0299998
-0.0305768
-1.3148
1.31538
0.0308737
-0.0310144
-1.10082
1.10097
0.0310196
-0.0310103
-0.926023
0.926014
0.0310574
-0.0309348
-0.783313
0.78319
0.0302328
-0.0283026
-0.651816
0.649886
0.0250388
-0.0200484
-0.491812
0.486822
0.0149167
-0.0095663
-0.29952
0.29417
0.00556521
-0.00239007
-0.132635
0.12946
0.000664627
-0.0210019
0.0203373
-0.0289389
0.029245
-0.000306135
0.00147511
-0.00183011
-0.223307
0.223662
0.0018898
-0.00174679
-0.393771
0.393628
0.00171685
-0.00217207
-0.552693
0.553148
0.00339683
-0.00510439
-0.678712
0.68042
0.00746173
-0.00989903
-0.801174
0.803612
0.012765
-0.0154833
-0.946734
0.949453
0.0185277
-0.0213208
-1.12251
1.1253
0.0243397
-0.0269878
-1.33362
1.33627
0.0296742
-0.0318223
-1.58742
1.58957
0.0334439
-0.0345507
-1.57963
1.58074
0.035125
-0.0353565
-1.31581
1.31604
0.0353397
-0.0351477
-1.10101
1.10082
0.0348542
-0.0345344
-0.925931
0.925611
0.0343371
-0.0337894
-0.782616
0.782068
0.0326768
-0.0301333
-0.647747
0.645204
0.0263409
-0.0208935
-0.481803
0.476355
0.0154972
-0.00996311
-0.288847
0.283313
0.00582791
-0.00252271
-0.126286
0.122981
0.000707914
-0.0196784
0.0189705
-0.0296229
0.030104
-0.000481133
0.00276587
-0.00388481
-0.224413
0.225531
0.00483011
-0.00549374
-0.393834
0.394498
0.00617867
-0.00707986
-0.554136
0.555037
0.00859233
-0.0105398
-0.682475
0.684422
0.0131768
-0.0158817
-0.806035
0.80874
0.0190429
-0.0220218
-0.952047
0.955026
0.0253333
-0.0283396
-1.12799
1.131
0.0315404
-0.0342843
-1.33881
1.34156
0.0369723
-0.0390036
-1.59156
1.59359
0.0403961
-0.0411765
-1.58162
1.5824
0.0414062
-0.0412574
-1.31608
1.31593
0.0408805
-0.0403062
-1.10047
1.09989
0.0396687
-0.0389873
-0.925155
0.924474
0.0384725
-0.0374401
-0.781008
0.779975
0.0358204
-0.0325863
-0.642522
0.639288
0.0281793
-0.0221771
-0.47088
0.464878
0.0164155
-0.0105827
-0.277772
0.271939
0.00622093
-0.00271018
-0.119649
0.116138
0.000765798
-0.0182644
0.0174986
-0.0306596
0.0313586
-0.000698991
0.00426311
-0.00627159
-0.227081
0.229089
0.00829944
-0.00986556
-0.395577
0.397143
0.0113771
-0.0128444
-0.556634
0.558102
0.0147732
-0.0170468
-0.68679
0.689063
0.020054
-0.0231059
-0.811428
0.81448
0.0266486
-0.0299643
-0.957891
0.961207
0.0336182
-0.0368933
-1.13391
1.13719
0.0403172
-0.0431763
-1.34419
1.34705
0.0458652
-0.0477566
-1.59544
1.59733
0.0488785
-0.0492758
-1.58292
1.58332
0.0490865
-0.0484985
-1.31553
1.31494
0.0477062
-0.0466918
-1.09907
1.09805
0.0456688
-0.0445735
-0.923577
0.922482
0.0435965
-0.0420551
-0.778393
0.776852
0.0397919
-0.0357623
-0.635966
0.631936
0.0306372
-0.0239577
-0.458847
0.452168
0.017707
-0.0114406
-0.26606
0.259793
0.00674886
-0.00295184
-0.112572
0.108775
0.000837134
-0.0167317
0.0158945
-0.0321312
0.0331159
-0.000984634
0.00614541
-0.00924134
-0.231543
0.234639
0.0125128
-0.0151364
-0.399267
0.40189
0.0176156
-0.0197795
-0.560452
0.562616
0.0222737
-0.0249945
-0.691841
0.694562
0.028497
-0.0320014
-0.817515
0.821019
0.0360291
-0.0397631
-0.964424
0.968158
0.0438303
-0.0474196
-1.14037
1.14396
0.0510908
-0.0540615
-1.34978
1.35275
0.0567166
-0.0584057
-1.599
1.60069
0.0591748
-0.0590892
-1.58341
1.58332
0.0584216
-0.057285
-1.31401
1.31287
0.0560062
-0.0544766
-1.09668
1.09515
0.0530106
-0.0514335
-0.921069
0.919492
0.0499275
-0.0477709
-0.774719
0.772562
0.0447561
-0.0397906
-0.627841
0.622876
0.0338075
-0.0262863
-0.445455
0.437934
0.0193932
-0.0125386
-0.253439
0.246585
0.00740539
-0.00324113
-0.104896
0.100732
0.000918967
-0.0150547
0.0141357
-0.0341663
0.0355461
-0.00137976
0.00863304
-0.0130619
-0.238164
0.242593
0.0178101
-0.0216586
-0.405256
0.409105
0.0252681
-0.0282809
-0.565915
0.568928
0.0315269
-0.0348626
-0.697899
0.701235
0.0390246
-0.0431051
-0.824511
0.828591
0.0477269
-0.051957
-0.971805
0.976035
0.056498
-0.0604281
-1.14745
1.15138
0.0643413
-0.0673826
-1.35555
1.35859
0.0699202
-0.0712989
-1.60208
1.60346
0.0715983
-0.0709094
-1.58285
1.58216
0.0696598
-0.0678598
-1.31128
1.30948
0.0660117
-0.0638868
-1.09315
1.09102
0.0619044
-0.0598037
-0.917499
0.915398
0.0576696
-0.0548056
-0.76977
0.766906
0.0508967
-0.0448134
-0.61786
0.611777
0.0377901
-0.0292196
-0.430373
0.421803
0.0214978
-0.013875
-0.2396
0.231977
0.00817802
-0.00356589
-0.0964617
0.0918495
0.00100561
-0.0132154
0.0122098
-0.0369674
0.0389129
-0.00194549
0.0120254
-0.0181442
-0.247406
0.253525
0.0246695
-0.0299422
-0.414006
0.419278
0.0348686
-0.0389068
-0.573407
0.577445
0.0431126
-0.0472666
-0.705315
0.709469
0.0522912
-0.0570942
-0.832663
0.837466
0.0624365
-0.0672426
-0.980188
0.984995
0.0722997
-0.0765629
-1.15519
1.15945
0.0806568
-0.0836689
-1.3614
1.36441
0.0859387
-0.0868441
-1.60445
1.60536
0.0865059
-0.0850468
-1.58099
1.57953
0.0830745
-0.0805013
-1.30714
1.30457
0.0779913
-0.0752132
-1.08829
1.08551
0.0726764
-0.0699604
-0.912747
0.910031
0.0671327
-0.063389
-0.763326
0.759582
0.0584111
-0.0509947
-0.605639
0.598223
0.0427111
-0.0328335
-0.413191
0.403313
0.0240511
-0.0154442
-0.224183
0.215577
0.00904739
-0.00390956
-0.0871142
0.0819763
0.00108975
-0.0112087
0.010119
-0.0408509
0.0436637
-0.00281284
0.0169293
-0.0252679
-0.259964
0.268302
0.0339772
-0.0409556
-0.426159
0.433137
0.0474619
-0.0527517
-0.583385
0.588675
0.0581929
-0.0634339
-0.714502
0.719743
0.0695484
-0.0752149
-0.84226
0.847927
0.0813601
-0.0867494
-0.989719
0.995108
0.0922525
-0.0967185
-1.16352
1.16798
0.100788
-0.103543
-1.36706
1.36982
0.10526
-0.105413
-1.60572
1.60587
0.104177
-0.101719
-1.57746
1.57501
0.0988602
-0.0953759
-1.30136
1.29788
0.0921167
-0.0886116
-1.08196
1.07846
0.0854812
-0.082051
-0.906548
0.903118
0.0785313
-0.0737368
-0.754984
0.75019
0.0674937
-0.0584758
-0.590717
0.581699
0.0486574
-0.0371545
-0.393397
0.381894
0.0270325
-0.0171975
-0.206779
0.196944
0.00996604
-0.00424463
-0.0767168
0.0709954
0.00116197
-0.00904423
0.00788226
-0.0463755
0.0506507
-0.00427518
0.0245259
-0.0358711
-0.27697
0.288316
0.0473975
-0.0566383
-0.442727
0.451968
0.0651121
-0.0718694
-0.596441
0.603198
0.078849
-0.085549
-0.725882
0.732582
0.0928312
-0.099301
-0.853536
0.860006
0.106091
-0.111842
-1.00031
1.00606
0.117474
-0.12181
-1.17208
1.17641
0.125457
-0.127581
-1.37201
1.37414
0.128337
-0.127377
-1.60529
1.60433
0.124932
-0.121206
-1.5718
1.56807
0.117271
-0.112709
-1.29368
1.28912
0.10858
-0.104272
-1.07401
1.06971
0.100526
-0.0963246
-0.898676
0.894475
0.0920365
-0.0859715
-0.744348
0.738283
0.0781967
-0.0672386
-0.572502
0.561544
0.0555604
-0.0420728
-0.370363
0.356875
0.0303076
-0.0190064
-0.186964
0.175663
0.0108381
-0.00452372
-0.0652028
0.0588885
0.00120734
-0.00675243
0.00554509
-0.054597
0.0619338
-0.00733674
0.0379112
-0.0536651
-0.300532
0.316286
0.0691381
-0.0814567
-0.465302
0.47762
0.0920005
-0.100145
-0.613039
0.621184
0.108686
-0.116641
-0.739836
0.747791
0.124822
-0.131683
-0.866229
0.873091
0.138545
-0.144073
-1.01137
1.01689
0.149184
-0.15278
-1.18007
1.18367
0.155369
-0.156269
-1.37539
1.37629
0.155488
-0.152944
-1.60237
1.59982
0.14892
-0.143649
-1.56344
1.55817
0.13844
-0.132643
-1.28375
1.27795
0.127512
-0.122271
-1.06431
1.05906
0.117816
-0.112878
-0.888984
0.884046
0.107604
-0.0999414
-0.730931
0.723269
0.090274
-0.0769312
-0.550182
0.536839
0.0630024
-0.0472207
-0.343347
0.327565
0.0335921
-0.0207055
-0.164418
0.151531
0.0115715
-0.0047096
-0.0526707
0.0458088
0.00120894
-0.00439401
0.00318507
-0.0687938
0.0728474
-0.00405366
0.0288982
-0.0425561
-0.334596
0.348254
0.0562848
-0.0675114
-0.495221
0.506448
0.0775172
-0.0868915
-0.632822
0.642197
0.0973528
-0.106756
-0.755272
0.764675
0.117107
-0.126246
-0.879067
0.888207
0.135878
-0.144322
-1.02148
1.02992
0.152956
-0.160124
-1.18615
1.19331
0.166885
-0.171819
-1.37597
1.3809
0.175473
-0.176808
-1.59598
1.59732
0.175759
-0.17284
-1.55175
1.54883
0.168921
-0.163801
-1.27123
1.26611
0.159005
-0.153382
-1.05261
1.04699
0.148583
-0.143025
-0.87727
0.871711
0.136559
-0.125889
-0.713898
0.703229
0.111978
-0.0933522
-0.52277
0.504144
0.0745967
-0.0538712
-0.311502
0.290777
0.036879
-0.0217261
-0.139125
0.123972
0.0116014
-0.00450267
-0.0395299
0.0324312
0.00108756
-0.00207169
0.000984128
-0.0801116
0.0781175
0.00199406
0.00724859
-0.0162285
-0.364705
0.373685
0.0266588
-0.0346179
-0.522371
0.53033
0.0425976
-0.0505478
-0.653934
0.661884
0.0601702
-0.0690074
-0.773698
0.782535
0.0783212
-0.0867636
-0.896817
0.905259
0.0956302
-0.103064
-1.03809
1.04552
0.110832
-0.116899
-1.20027
1.20634
0.122523
-0.126273
-1.38546
1.38921
0.128328
-0.128206
-1.59768
1.59756
0.125674
-0.121225
-1.54494
1.54049
0.115775
-0.109068
-1.26029
1.25359
0.102794
-0.0958163
-1.04011
1.03313
0.08942
-0.082197
-0.862183
0.85496
0.0750176
-0.0657064
-0.688609
0.679298
0.05535
-0.0427971
-0.483846
0.471293
0.0314279
-0.0205588
-0.269987
0.259117
0.0128703
-0.0069895
-0.109524
0.103643
0.00353999
-0.00136342
-0.0257244
0.0235478
0.000367943
0.000114596
-0.000482539
-0.0814794
0.0785714
0.00290799
-0.00178806
-0.00338026
-0.385038
0.390206
0.0104392
-0.0163089
-0.542386
0.548256
0.0223364
-0.0292301
-0.671873
0.678767
0.037572
-0.0452561
-0.790462
0.798146
0.0535872
-0.0609886
-0.912985
0.920386
0.068518
-0.075181
-1.05279
1.05945
0.0819197
-0.0872486
-1.21196
1.21729
0.0917073
-0.0943864
-1.39225
1.39493
0.0955833
-0.0944787
-1.59662
1.59552
0.0910106
-0.0856607
-1.53526
1.52991
0.0795301
-0.0722998
-1.24655
1.23932
0.0651459
-0.0573864
-1.02517
1.01741
0.0501875
-0.0421768
-0.845464
0.837453
0.0350481
-0.0270488
-0.666201
0.658201
0.0192933
-0.0111308
-0.456858
0.448696
0.00544188
-0.00159941
-0.247459
0.243617
-0.000143105
0.000714493
-0.0971134
0.096542
-0.000608448
0.000282152
-0.0209767
0.021303
-8.71569e-05
0.000929362
-0.000842205
-0.0802306
0.0775013
0.0027292
-0.00528722
0.00280114
-0.39861
0.401096
0.00171362
-0.00621398
-0.557318
0.561818
0.0113892
-0.0172029
-0.686703
0.692517
0.0243835
-0.0310142
-0.805193
0.811824
0.0381828
-0.0445725
-0.927286
0.933676
0.0514472
-0.0571278
-1.0657
1.07138
0.06305
-0.0672753
-1.22221
1.22643
0.0710641
-0.073202
-1.39737
1.39951
0.0737262
-0.0719183
-1.59396
1.59215
0.068245
-0.0627773
-1.52402
1.51855
0.056554
-0.0488583
-1.2318
1.2241
0.0415501
-0.0334751
-1.00889
1.00081
0.0257638
-0.0176261
-0.827654
0.819516
0.0103265
-0.00343457
-0.646828
0.639936
-0.00220534
0.0067361
-0.43897
0.434439
-0.008523
0.00830817
-0.237305
0.237519
-0.00704545
0.0049596
-0.0948117
0.0968975
-0.00311661
0.00136201
-0.0210718
0.0228264
-0.000373944
0.000943965
-0.000570021
-0.0787785
0.0763879
0.00239065
-0.00630319
0.00537191
-0.407699
0.40863
-0.00205358
-0.00122516
-0.569408
0.572687
0.00552305
-0.0108505
-0.699197
0.704525
0.0169304
-0.0227971
-0.817752
0.823619
0.0290566
-0.0346513
-0.939642
0.945236
0.0405935
-0.0456967
-1.07695
1.08205
0.0507542
-0.0546899
-1.23054
1.23448
0.0579607
-0.0597209
-1.40131
1.40307
0.0599466
-0.0579664
-1.59021
1.58823
0.0542124
-0.0485297
-1.51243
1.50674
0.0423334
-0.0348404
-1.21635
1.20886
0.027606
-0.0194706
-0.992204
0.984069
0.0120528
-0.00422441
-0.8101
0.802272
-0.00232964
0.0080819
-0.629888
0.624136
-0.0122254
0.0149677
-0.427372
0.42463
-0.0151371
0.0131093
-0.234527
0.236555
-0.010475
0.0073034
-0.097804
0.100976
-0.00452484
0.00197617
-0.0240477
0.0265964
-0.000524337
0.00026964
0.000254697
-0.0774729
0.0754406
0.00203238
-0.00611613
0.00564999
-0.414
0.414466
-0.00367071
0.00101233
-0.578801
0.581459
0.0032219
-0.00781632
-0.709873
0.714467
0.0130941
-0.0182298
-0.828692
0.833827
0.0238442
-0.0288914
-0.950507
0.955555
0.0343853
-0.0389141
-1.0869
1.09143
0.0435379
-0.0471525
-1.23816
1.24177
0.0501035
-0.051659
-1.40461
1.40617
0.051736
-0.0500708
-1.58618
1.58451
0.0463161
-0.0408979
-1.50063
1.49522
0.0348765
-0.0276762
-1.20121
1.19401
0.0210682
-0.0134069
-0.975863
0.968202
0.00654553
0.000543256
-0.793888
0.786799
-0.00638842
0.0116658
-0.615392
0.610114
-0.0150918
0.0172923
-0.419254
0.417054
-0.016824
0.0143051
-0.235288
0.237807
-0.0114109
0.00793016
-0.103011
0.106492
-0.00491667
0.00221561
-0.028436
0.031137
-0.000636032
-0.000704834
0.00134087
-0.07652
0.0749491
0.00157091
-0.00520106
0.00504373
-0.418757
0.418914
-0.00342717
0.00138708
-0.587042
0.589082
0.00260038
-0.00678103
-0.719188
0.723369
0.011822
-0.0162842
-0.838558
0.84302
0.0212622
-0.0257836
-0.96059
0.965112
0.0310562
-0.0352402
-1.09602
1.1002
0.0394387
-0.0429528
-1.24524
1.24876
0.0461673
-0.0476878
-1.40778
1.4093
0.0479508
-0.0463705
-1.5825
1.58092
0.0431904
-0.0379694
-1.48967
1.48445
0.0326384
-0.0262974
-1.18685
1.1805
0.020287
-0.0136358
-0.960802
0.954151
0.00736623
-0.000549687
-0.77913
0.772313
-0.00492998
0.0103003
-0.60224
0.59687
-0.0136318
0.0154284
-0.41243
0.410634
-0.0152337
0.0132242
-0.237154
0.239164
-0.0105838
0.0073645
-0.108609
0.111828
-0.00459411
0.00211526
-0.0329737
0.0354526
-0.000636289
-0.0017724
0.00240869
-0.0760786
0.0748564
0.00122228
-0.00411578
0.00407237
-0.422596
0.42264
-0.00262673
0.000692879
-0.594269
0.596203
0.00317738
-0.00694918
-0.72761
0.731382
0.0113038
-0.0156309
-0.847416
0.851743
0.020268
-0.0249618
-0.969461
0.974154
0.0295672
-0.0336313
-1.10451
1.10857
0.0380383
-0.041401
-1.25219
1.25556
0.0442573
-0.0463011
-1.41078
1.41283
0.0468953
-0.0458008
-1.57947
1.57837
0.0430806
-0.0388531
-1.47961
1.47538
0.0343063
-0.0288337
-1.17415
1.16868
0.0236475
-0.0176522
-0.947557
0.941561
0.011839
-0.00544659
-0.765173
0.75878
-0.000436791
0.00567102
-0.589398
0.584164
-0.00899908
0.0109207
-0.406326
0.404405
-0.0111528
0.00976367
-0.238526
0.239915
-0.00789291
0.00554453
-0.113287
0.115635
-0.00350592
0.00164174
-0.0368746
0.0387388
-0.000514563
-0.00275513
0.00326969
-0.0761622
0.0751508
0.00101147
-0.00285046
0.00256529
-0.426075
0.426361
-0.00129833
-0.000716654
-0.600892
0.602907
0.00427606
-0.00792567
-0.73549
0.73914
0.0121139
-0.0160555
-0.855849
0.85979
0.0208341
-0.0247816
-0.978296
0.982243
0.0294058
-0.0333479
-1.11282
1.11676
0.0377139
-0.041344
-1.25894
1.26257
0.0445785
-0.046518
-1.41469
1.41663
0.0476185
-0.0471641
-1.57732
1.57687
0.0454166
-0.0419342
-1.47129
1.4678
0.0382165
-0.0335022
-1.16356
1.15884
0.0288918
-0.0232222
-0.935392
0.929723
0.0176975
-0.0112907
-0.751773
0.745366
0.00553319
-5.26281e-05
-0.577228
0.571747
-0.00344292
0.00531915
-0.39996
0.398084
-0.00600073
0.00551973
-0.238696
0.239177
-0.00460552
0.00326373
-0.116231
0.117573
-0.00209014
0.0010249
-0.0394639
0.0405291
-0.000335491
-0.00345646
0.00379195
-0.0765256
0.0758326
0.000692948
-0.00172766
0.00104493
-0.429676
0.430359
-1.59336e-05
-0.00233706
-0.606717
0.60907
0.00554575
-0.00906672
-0.742856
0.746377
0.0130841
-0.0171639
-0.863584
0.867664
0.0213555
-0.0254935
-0.986415
0.990553
0.0301241
-0.033908
-1.12115
1.12493
0.0384219
-0.042067
-1.26603
1.26968
0.0454377
-0.0479963
-1.41902
1.42158
0.0497419
-0.0498006
-1.57658
1.57664
0.0485907
-0.0461238
-1.4647
1.46223
0.0431543
-0.0389038
-1.15414
1.14988
0.0344897
-0.0291705
-0.923882
0.918563
0.0233685
-0.0171931
-0.738339
0.732164
0.0115962
-0.00618831
-0.565376
0.559968
0.0026048
-0.000151495
-0.393443
0.390989
-0.000923507
0.00135304
-0.237457
0.237027
-0.00129453
0.00101061
-0.117222
0.117506
-0.000738151
0.000422119
-0.0405512
0.0408672
-0.000166049
-0.00381298
0.00397903
-0.0772989
0.0767662
0.000532757
-0.000789375
0.000230703
-0.433507
0.434066
0.00162481
-0.00372111
-0.612841
0.614937
0.00706193
-0.0104629
-0.749723
0.753124
0.0143288
-0.018023
-0.871411
0.875105
0.0223598
-0.0262134
-0.994711
0.998564
0.0308293
-0.0350798
-1.12919
1.13344
0.0392783
-0.0432899
-1.27339
1.2774
0.0471336
-0.0498608
-1.42408
1.42681
0.0521086
-0.0531119
-1.57702
1.57803
0.0525227
-0.0508045
-1.45977
1.45805
0.048061
-0.0441682
-1.14567
1.14178
0.0399942
-0.0346449
-0.912701
0.907352
0.0291202
-0.023085
-0.725251
0.719216
0.0177384
-0.0124621
-0.553743
0.548466
0.0087081
-0.00585699
-0.386449
0.383597
0.00394719
-0.00263226
-0.234516
0.233201
0.00171603
-0.000932969
-0.116197
0.115414
0.000379088
-2.2578e-05
-0.0402414
0.0398849
-5.893e-05
-0.0038242
0.00388313
-0.0783352
0.0779936
0.000341604
0.000242698
-0.00110786
-0.437408
0.438274
0.0027634
-0.00515948
-0.618507
0.620903
0.00843653
-0.0116872
-0.756361
0.759612
0.015635
-0.0191893
-0.878776
0.882331
0.0233882
-0.0273832
-1.00291
1.0069
0.0319287
-0.0361653
-1.13755
1.14179
0.0406049
-0.0446656
-1.28135
1.28541
0.0487285
-0.0522476
-1.42985
1.43337
0.055021
-0.0564068
-1.57904
1.58043
0.0565518
-0.0551201
-1.45626
1.45482
0.0528131
-0.0492552
-1.13776
1.1342
0.0449733
-0.0397404
-0.901612
0.896379
0.0344329
-0.0285512
-0.712683
0.706802