/*--------------------------------*- C++ -*----------------------------------*\
| =========                 |                                                 |
| \\      /  F ield         | OpenFOAM: The Open Source CFD Toolbox           |
|  \\    /   O peration     | Version:  2306                                  |
|   \\  /    A nd           | Website:  www.openfoam.com                      |
|    \\/     M anipulation  |                                                 |
\*---------------------------------------------------------------------------*/
FoamFile
{
    version     2.0;
    format      ascii;
    arch        "LSB;label=32;scalar=64";
    class       surfaceScalarField;
    location    "65";
    object      phi;
}
// * * * * * * * * * * * * * * * * * * * * * * * * * * * * * * * * * * * * * //

dimensions      [0 3 -1 0 0 0 0];

oriented        oriented;

internalField   nonuniform List<scalar> 
17370
(
-0.0910983
0.0935443
0.286565
-0.0749531
0.0569527
0.364776
-0.0409355
0.0299513
0.427152
-0.0211964
0.0155966
0.504852
-0.0113474
0.00864892
0.602101
-0.00651754
0.00506536
0.72051
-0.00384655
0.00297499
0.863778
-0.00220696
0.00163109
1.03603
-0.00110072
0.00068012
1.24292
-0.000269032
-0.000125286
1.49159
0.000511936
-0.000926491
1.49161
0.00133119
-0.00183462
1.24319
0.00238159
-0.00311738
1.03637
0.00396375
-0.00516305
0.864106
0.0066046
-0.00872853
0.721181
0.0114203
-0.0156601
0.603454
0.0212501
-0.0299933
0.508182
0.0409663
-0.056974
0.432176
0.0749697
-0.093554
0.36536
0.091112
0.197899
-0.127348
0.0881473
0.0392012
-0.364739
0.353793
-0.0726254
0.0835708
-0.446567
0.454371
-0.0817033
0.0738986
-0.520972
0.529527
-0.0657883
0.0572333
-0.612852
0.621019
-0.0494808
0.0413134
-0.727003
0.733792
-0.0343851
0.0275955
-0.867516
0.872454
-0.0222516
0.0173127
-1.03855
1.04191
-0.0135908
0.0102357
-1.24471
1.24713
-0.00767789
0.00526322
-1.49284
1.49486
-0.00329335
0.00127405
-1.49269
1.49451
0.000548274
-0.00237132
-1.2441
1.24602
0.00434932
-0.00626582
-1.0376
1.04008
0.00860835
-0.0110916
-0.866158
0.869804
0.0143604
-0.0180066
-0.724478
0.729768
0.0228734
-0.0281632
-0.608886
0.61577
0.0349021
-0.0417866
-0.514988
0.522694
0.0499051
-0.0576106
-0.439772
0.447826
0.0661075
-0.0741618
-0.375153
0.376999
0.0818979
-0.0837444
-0.256914
0.223415
0.0727464
-0.0392476
-0.0686577
0.0589296
0.00972815
-0.0520656
0.0587584
-0.374548
0.367855
-0.0578691
0.0540397
-0.453833
0.457663
-0.0486791
0.0443375
-0.527749
0.532091
-0.0401118
0.036327
-0.62111
0.624895
-0.0321
0.0280242
-0.734885
0.73896
-0.0235456
0.019547
-0.874056
0.878055
-0.0154036
0.0118815
-1.04341
1.04693
-0.00830779
0.00523819
-1.24867
1.25174
-0.001998
-0.00100689
-1.49695
1.49996
0.00398967
-0.00716798
-1.49743
1.50061
0.0101471
-0.0135968
-1.25009
1.25354
0.0169918
-0.0209875
-1.04572
1.04971
0.0248551
-0.0292041
-0.877311
0.88166
0.0331761
-0.0373018
-0.739305
0.74343
0.041002
-0.0451423
-0.626335
0.630475
0.0494114
-0.0547014
-0.53493
0.54022
0.058453
-0.0592443
-0.457913
0.458705
0.0524275
-0.0320459
-0.336385
0.316004
0.00978883
-0.0684955
0.0587067
-0.0531727
0.0491256
0.00404714
-0.0331517
0.0436375
-0.358389
0.347903
-0.0473485
0.0467569
-0.459523
0.460115
-0.0437756
0.0405018
-0.536038
0.539311
-0.0367863
0.0334458
-0.628461
0.631801
-0.0298741
0.026716
-0.742276
0.745434
-0.0233568
0.0201801
-0.881597
0.884774
-0.0165722
0.0131838
-1.05042
1.05381
-0.0094382
0.00599084
-1.25504
1.25849
-0.0021564
-0.00149877
-1.50334
1.50699
0.00512193
-0.00886328
-1.50414
1.50788
0.0121836
-0.0157542
-1.25715
1.26072
0.0189615
-0.0223588
-1.05348
1.05688
0.0253486
-0.028522
-0.885267
0.88844
0.0315307
-0.0349556
-0.746917
0.750342
0.0381726
-0.0417606
-0.634486
0.638074
0.0449241
-0.0477811
-0.544444
0.547301
0.0482424
-0.0443487
-0.456866
0.452973
0.0336439
-0.0162721
-0.296624
0.279252
0.00412094
-0.0528837
0.0487627
-0.0460065
0.0434843
0.00252225
-0.0229063
0.0332626
-0.337272
0.326916
-0.0390341
0.0400121
-0.459832
0.458854
-0.0387879
0.0364823
-0.541989
0.544295
-0.0338342
0.0312644
-0.634804
0.637374
-0.0282488
0.0253813
-0.748507
0.751374
-0.0221369
0.0191315
-0.887783
0.890789
-0.0158031
0.0126831
-1.05699
1.06011
-0.00912514
0.00570825
-1.26192
1.26533
-0.00177054
-0.00205607
-1.51076
1.51459
0.00584118
-0.00965252
-1.51169
1.5155
0.0129
-0.0162276
-1.26418
1.26751
0.0191108
-0.0221646
-1.06004
1.06309
0.0249238
-0.0279197
-0.891579
0.894575
0.0305831
-0.0333964
-0.753523
0.756337
0.0357969
-0.0382734
-0.64107
0.643546
0.0404319
-0.0414629
-0.549111
0.550142
0.0402829
-0.0342165
-0.447765
0.441699
0.0235379
-0.0103032
-0.264056
0.250821
0.00261311
-0.0455614
0.0429483
-0.0413893
0.0396064
0.00178286
-0.0168361
0.0260989
-0.317061
0.307798
-0.0326954
0.0348208
-0.457279
0.455153
-0.0343883
0.0326977
-0.546305
0.547996
-0.0304865
0.0283715
-0.639682
0.641797
-0.0259362
0.0235455
-0.753999
0.75639
-0.0207045
0.0179361
-0.893658
0.896427
-0.014732
0.0116863
-1.06315
1.06619
-0.00821454
0.00489463
-1.26866
1.27198
-0.00104922
-0.00270649
-1.51837
1.52213
0.00640811
-0.0100948
-1.51924
1.52293
0.0132007
-0.0163811
-1.27076
1.27394
0.0191259
-0.0219788
-1.06611
1.06896
0.0244289
-0.0269468
-0.897366
0.899884
0.0290732
-0.0312486
-0.758778
0.760953
0.0331478
-0.0351381
-0.645732
0.647723
0.0366146
-0.0367836
-0.55069
0.550859
0.0343482
-0.0273205
-0.435063
0.428035
0.0176241
-0.00744906
-0.239262
0.229087
0.00189385
-0.0407528
0.038859
-0.038071
0.0367314
0.0013396
-0.0128582
0.0208244
-0.299187
0.291221
-0.0275767
0.0304932
-0.452601
0.449684
-0.0306935
0.0295655
-0.549435
0.550563
-0.027563
0.0256348
-0.643849
0.645777
-0.0234215
0.0212773
-0.758633
0.760777
-0.0187623
0.0162813
-0.898994
0.901475
-0.0133416
0.0104677
-1.06911
1.07198
-0.00711936
0.00389009
-1.27522
1.27845
-0.00014887
-0.00348277
-1.52579
1.52943
0.00704776
-0.0105893
-1.52653
1.53007
0.0135511
-0.0165354
-1.27705
1.28003
0.0190317
-0.0215295
-1.07169
1.07419
0.0236116
-0.0257213
-0.902183
0.904292
0.0275318
-0.0294146
-0.762962
0.764845
0.0310698
-0.0328065
-0.649565
0.651302
0.0336218
-0.0330535
-0.550663
0.550094
0.029694
-0.0223514
-0.420794
0.413451
0.0138284
-0.00577031
-0.220072
0.212013
0.00147465
-0.0372011
0.0357265
-0.0355615
0.0345302
0.00103135
-0.010045
0.0167816
-0.283894
0.277158
-0.0232732
0.0266448
-0.44652
0.443148
-0.0274201
0.0267185
-0.55147
0.552171
-0.0249485
0.0231581
-0.647676
0.649466
-0.0210848
0.0190674
-0.762855
0.764873
-0.0166945
0.0143665
-0.903813
0.906141
-0.0116274
0.0089394
-1.0747
1.07738
-0.00577501
0.00268714
-1.28157
1.28466
0.000915856
-0.00441589
-1.53297
1.53647
0.00783305
-0.0111898
-1.53351
1.53687
0.0139457
-0.0166594
-1.28289
1.28561
0.0188825
-0.0210773
-1.07657
1.07876
0.0229122
-0.0247824
-0.906293
0.908163
0.0263858
-0.0280489
-0.766609
0.768272
0.0295007
-0.0309039
-0.652891
0.654294
0.0312165
-0.0299185
-0.549176
0.547878
0.0259371
-0.0186692
-0.406121
0.398853
0.0112334
-0.004657
-0.204766
0.19819
0.00119554
-0.0344077
0.0332121
-0.0336246
0.0328219
0.00080277
-0.0079583
0.0136198
-0.270987
0.265326
-0.019628
0.0231984
-0.439667
0.436096
-0.0244519
0.023997
-0.552781
0.553236
-0.0224962
0.0208149
-0.651251
0.652932
-0.0188371
0.0169074
-0.766842
0.768771
-0.0146316
0.0123951
-0.908359
0.910595
-0.00976174
0.00718818
-1.07994
1.08251
-0.00417305
0.00122906
-1.28762
1.29057
0.0022086
-0.00554429
-1.53986
1.54319
0.00877949
-0.0119153
-1.5401
1.54323
0.014452
-0.0169187
-1.2882
1.29067
0.0189243
-0.0208897
-1.0809
1.08287
0.0225199
-0.0241772
-0.909946
0.911604
0.0255979
-0.0270705
-0.769831
0.771304
0.0283296
-0.0293552
-0.65549
0.656515
0.0292956
-0.0273292
-0.54625
0.544284
0.0229442
-0.0159405
-0.391713
0.384709
0.00941079
-0.00388717
-0.192191
0.186667
0.00100238
-0.0321257
0.0311233
-0.0321167
0.0314909
0.00062587
-0.00634906
0.0110917
-0.260152
0.255409
-0.0165101
0.0200823
-0.432524
0.428952
-0.0216604
0.0214314
-0.553613
0.553841
-0.0201635
0.0185427
-0.654629
0.65625
-0.0166209
0.0147411
-0.770669
0.772549
-0.0125252
0.010349
-0.912728
0.914904
-0.00778759
0.00528729
-1.08497
1.08747
-0.00236654
-0.000462252
-1.2934
1.29623
0.00375185
-0.00691801
-1.54641
1.54958
0.00995951
-0.0128772
-1.54623
1.54915
0.0152167
-0.0174703
-1.29303
1.29529
0.0192797
-0.0210268
-1.0848
1.08655
0.022462
-0.0239215
-0.913183
0.914642
0.0251775
-0.0264774
-0.772681
0.773981
0.0275915
-0.0281996
-0.657324
0.657932
0.0277698
-0.0252406
-0.542052
0.539522
0.020608
-0.0139346
-0.377881
0.371208
0.00812101
-0.00334991
-0.181558
0.176787
0.000868276
-0.0301985
0.0293302
-0.0309446
0.0304619
0.000482638
-0.00505417
0.00900445
-0.251088
0.247138
-0.0137883
0.0172133
-0.42546
0.422035
-0.018976
0.0189381
-0.554016
0.554053
-0.0178661
0.0162803
-0.657916
0.659502
-0.0143817
0.0125176
-0.77441
0.776274
-0.0103211
0.00816982
-0.916982
0.919134
-0.00564685
0.00319475
-1.08987
1.09232
-0.000343943
-0.00240978
-1.29895
1.30171
0.0055762
-0.00859176
-1.55263
1.55564
0.0114565
-0.0141736
-1.55194
1.55466
0.0163262
-0.0183718
-1.29744
1.29949
0.0199878
-0.0215212
-1.08828
1.08982
0.0227709
-0.0240487
-0.916032
0.91731
0.0251568
-0.0262991
-0.775191
0.776333
0.027221
-0.0274525
-0.658346
0.658578
0.0266255
-0.0236187
-0.53677
0.533764
0.0188365
-0.0124853
-0.364715
0.358363
0.00721714
-0.00298012
-0.172316
0.168079
0.000777524
-0.0285171
0.0277396
-0.030047
0.0296854
0.000361535
-0.00396968
0.00722393
-0.243559
0.240305
-0.0113615
0.0145295
-0.418753
0.415584
-0.0163507
0.0164672
-0.554062
0.553945
-0.0154778
0.013965
-0.661124
0.662636
-0.012062
0.0101813
-0.77813
0.780011
-0.00796636
0.00580506
-0.921193
0.923354
-0.00328395
0.000846688
-1.09467
1.09711
0.00197016
-0.00466618
-1.30437
1.30706
0.00773992
-0.0106312
-1.55855
1.56144
0.0133399
-0.0158687
-1.55725
1.55978
0.0178391
-0.0196797
-1.30143
1.30327
0.0211059
-0.0224296
-1.09136
1.09268
0.0234985
-0.0246012
-0.918523
0.919626
0.0255647
-0.0265385
-0.77738
0.778354
0.0272038
-0.0271475
-0.658683
0.658627
0.025882
-0.0224523
-0.530559
0.527129
0.0175651
-0.0114812
-0.352172
0.346088
0.00660848
-0.00273777
-0.164055
0.160184
0.000720105
-0.0270004
0.0262803
-0.0293843
0.0291308
0.000253534
-0.00301936
0.00564554
-0.237386
0.23476
-0.00913725
0.0119655
-0.412606
0.409777
-0.0137315
0.0139301
-0.553841
0.553643
-0.0129836
0.0115145
-0.664208
0.665677
-0.00958468
0.00765866
-0.781891
0.783817
-0.00539044
0.00318557
-0.925426
0.927631
-0.000628673
-0.00183016
-1.09944
1.1019
0.00464832
-0.00732039
-1.30967
1.31234
0.0103306
-0.013121
-1.56424
1.56703
0.0156905
-0.0180416
-1.56218
1.56453
0.0198368
-0.0214785
-1.30501
1.30665
0.0227161
-0.0238254
-1.09404
1.09515
0.0247083
-0.0256339
-0.920665
0.921591
0.0264542
-0.0272574
-0.779222
0.780025
0.0276325
-0.0272936
-0.658426
0.658087
0.0255805
-0.0217393
-0.523514
0.519673
0.0167466
-0.0108468
-0.340132
0.334232
0.00623594
-0.00259651
-0.156459
0.152819
0.000689204
-0.025586
0.0248968
-0.0289344
0.0287834
0.000150957
-0.00213947
0.00417619
-0.232449
0.230412
-0.00701749
0.00943625
-0.407177
0.404758
-0.0110392
0.0112413
-0.553506
0.553304
-0.0103045
0.00884104
-0.667239
0.668703
-0.00685766
0.00485676
-0.785746
0.787747
-0.00249992
0.000219453
-0.929749
0.932029
0.00241703
-0.00493043
-1.10428
1.10679
0.00778761
-0.0104663
-1.31494
1.31762
0.0134428
-0.0161533
-1.56972
1.57243
0.018597
-0.0207773
-1.56676
1.56894
0.0223989
-0.0238413
-1.30818
1.30962
0.0248856
-0.0257673
-1.09632
1.09721
0.0264494
-0.0271819
-0.922441
0.923174
0.0278502
-0.0285096
-0.780707
0.781367
0.028571
-0.0278551
-0.657532
0.656816
0.0256938
-0.0214478
-0.515674
0.511428
0.0163265
-0.0105185
-0.328422
0.322614
0.00605372
-0.002536
-0.149271
0.145754
0.000679446
-0.0242233
0.0235438
-0.0286892
0.028642
4.71887e-05
-0.00128166
0.00274363
-0.228681
0.227219
-0.00492083
0.00686696
-0.402602
0.400656
-0.00820376
0.00832734
-0.553218
0.553094
-0.00735343
0.00585913
-0.670297
0.671792
-0.00378331
0.00167486
-0.789754
0.791863
0.000809949
-0.00320861
-0.934226
0.936624
0.00596047
-0.00856646
-1.10922
1.11183
0.0115016
-0.0142208
-1.32022
1.32294
0.0171947
-0.0198466
-1.57506
1.57771
0.022177
-0.0241908
-1.57099
1.573
0.0256369
-0.0268732
-1.31093
1.31217
0.0277154
-0.0283632
-1.09818
1.09883
0.0288368
-0.0293626
-0.923831
0.924356
0.0298654
-0.0303153
-0.781828
0.782278
0.0300906
-0.0289235
-0.655873
0.654706
0.0262769
-0.021594
-0.507033
0.502351
0.0162887
-0.0104659
-0.316851
0.311028
0.00603823
-0.00254582
-0.142281
0.138789
0.000688192
-0.0228719
0.0221837
-0.0286515
0.0287147
-6.32586e-05
-0.000398966
0.00128165
-0.226062
0.225179
-0.00276796
0.00417709
-0.399006
0.397597
-0.00514562
0.00510572
-0.553147
0.553187
-0.00403765
0.00245833
-0.673467
0.675047
-0.000258548
-0.00199736
-0.793981
0.796237
0.00465811
-0.00721431
-0.938938
0.941494
0.0101304
-0.0128709
-1.11436
1.1171
0.0159271
-0.0187215
-1.3256
1.32839
0.0217239
-0.0243377
-1.58028
1.58289
0.0265651
-0.0284129
-1.57488
1.57673
0.0296774
-0.030697
-1.31325
1.31427
0.0313265
-0.0317304
-1.0996
1.1
0.031986
-0.03229
-0.924802
0.925106
0.0326032
-0.0327722
-0.78242
0.782589
0.0322572
-0.0305419
-0.653324
0.651609
0.0273661
-0.0221952
-0.497523
0.492352
0.0166283
-0.0106737
-0.305201
0.299246
0.00617671
-0.00261989
-0.1353
0.131743
0.000713727
-0.0214955
0.0207818
-0.0288345
0.0290127
-0.000178188
0.000522635
-0.000253702
-0.224617
0.224348
-0.000492652
0.00128655
-0.396515
0.395721
-0.0017757
0.00149177
-0.553471
0.553755
-0.00027253
-0.00146654
-0.676862
0.678601
0.00385429
-0.00630691
-0.798512
0.800964
0.00919347
-0.0119551
-0.943967
0.946729
0.0150877
-0.0180086
-1.11977
1.1227
0.0212321
-0.0241378
-1.33113
1.33404
0.0271994
-0.0297913
-1.58542
1.58802
0.0319188
-0.033593
-1.57844
1.58011
0.0346677
-0.0354527
-1.31512
1.3159
0.0358569
-0.036003
-1.10052
1.10067
0.036024
-0.0360891
-0.925314
0.925379
0.0362049
-0.0360077
-0.782381
0.782184
0.0351106
-0.0327854
-0.649722
0.647397
0.0290094
-0.0232662
-0.48702
0.481276
0.0173384
-0.011126
-0.293233
0.28702
0.00645589
-0.00275133
-0.128149
0.124445
0.000753893
-0.0200614
0.0193075
-0.0292727
0.029596
-0.000323293
0.00153851
-0.00191261
-0.224427
0.224801
0.00201434
-0.00194522
-0.395256
0.395187
0.00206747
-0.00271116
-0.55441
0.555053
0.00416348
-0.00609788
-0.680629
0.682563
0.00872442
-0.0114249
-0.803431
0.806131
0.0145975
-0.01762
-0.949411
0.952433
0.0210282
-0.0241804
-1.12556
1.12871
0.0276206
-0.0306746
-1.33689
1.33995
0.0338237
-0.0364057
-1.59053
1.59311
0.0384295
-0.0399087
-1.58162
1.5831
0.0407731
-0.0413097
-1.31647
1.317
0.0414722
-0.0413372
-1.1009
1.10077
0.0410994
-0.0409063
-0.925313
0.92512
0.0408154
-0.0401493
-0.781556
0.78089
0.03879
-0.0357549
-0.644924
0.641889
0.0312776
-0.0248424
-0.475343
0.468907
0.0184291
-0.0118198
-0.280689
0.27408
0.00686998
-0.00293628
-0.120666
0.116733
0.000807265
-0.0185415
0.0177342
-0.0299902
0.0304907
-0.000500509
0.00282455
-0.00395631
-0.225572
0.226704
0.0049247
-0.00565585
-0.395455
0.396186
0.00649757
-0.00760779
-0.556187
0.557297
0.00938364
-0.0115934
-0.684863
0.687073
0.0145417
-0.0175616
-0.808851
0.811871
0.0210952
-0.0244443
-0.955383
0.958732
0.0281958
-0.0316348
-1.13181
1.13525
0.0353424
-0.038579
-1.34295
1.34619
0.0418369
-0.0444117
-1.5956
1.59818
0.0463187
-0.0475832
-1.58441
1.58567
0.0481926
-0.0484612
-1.31727
1.31754
0.0483573
-0.0479131
-1.10068
1.10024
0.0473943
-0.0469239
-0.924735
0.924265
0.0465044
-0.0453796
-0.779806
0.778681
0.043411
-0.0395338
-0.638724
0.634846
0.0342221
-0.0269412
-0.46224
0.454959
0.0198968
-0.0127417
-0.267289
0.260134
0.00740621
-0.00316714
-0.11269
0.108451
0.000871148
-0.0169102
0.0160391
-0.0310614
0.0317831
-0.00072167
0.00432523
-0.00634432
-0.22825
0.230269
0.0083785
-0.0100179
-0.397319
0.398959
0.0116868
-0.0133807
-0.559065
0.560759
0.0156158
-0.0182008
-0.689734
0.692319
0.0215787
-0.025003
-0.814917
0.818341
0.0289866
-0.0327386
-0.962018
0.96577
0.0369086
-0.0406918
-1.13865
1.14244
0.044714
-0.048158
-1.34938
1.35282
0.0515294
-0.0540791
-1.60065
1.6032
0.0558347
-0.0568388
-1.58674
1.58774
0.0571569
-0.0571139
-1.31745
1.31741
0.0567122
-0.0559268
-1.0998
1.09901
0.0550984
-0.0543125
-0.923531
0.922745
0.0534874
-0.0518435
-0.777164
0.77552
0.0491278
-0.0442317
-0.630839
0.625942
0.0379076
-0.0295836
-0.447388
0.439064
0.021736
-0.0138746
-0.252729
0.244867
0.00804786
-0.00343396
-0.104071
0.0994567
0.000942053
-0.0151483
0.0142062
-0.032569
0.0335796
-0.00101058
0.00621155
-0.00928819
-0.232708
0.235785
0.0125897
-0.0152889
-0.401118
0.403817
0.0179269
-0.020333
-0.563322
0.565728
0.0231724
-0.0262552
-0.69545
0.698532
0.0301936
-0.0341294
-0.821801
0.825737
0.0386688
-0.0429089
-0.969472
0.973712
0.0475759
-0.0517566
-1.14619
1.15037
0.0561266
-0.0597825
-1.35621
1.35986
0.0632422
-0.0657179
-1.60561
1.60809
0.0672594
-0.0679302
-1.58851
1.58918
0.0678906
-0.0674649
-1.31688
1.31645
0.0667378
-0.0655723
-1.09816
1.09699
0.0643953
-0.0632979
-0.921629
0.920531
0.0619444
-0.0596888
-0.773484
0.771228
0.0560612
-0.0499111
-0.620907
0.614757
0.0423468
-0.032741
-0.430385
0.420779
0.0239001
-0.0151709
-0.23669
0.227961
0.00875854
-0.00371731
-0.0946777
0.0896364
0.00101352
-0.0132446
0.0122311
-0.0346396
0.0360504
-0.00141083
0.00868143
-0.0131077
-0.239274
0.2437
0.0179022
-0.0218378
-0.407218
0.411154
0.0256099
-0.0288787
-0.569286
0.572555
0.0324996
-0.0362396
-0.702279
0.706019
0.0409011
-0.0454784
-0.829713
0.834291
0.0506908
-0.0555051
-0.977915
0.982729
0.0607367
-0.0653464
-1.15451
1.15912
0.070062
-0.0738938
-1.36343
1.36726
0.0773678
-0.0796745
-1.61037
1.61268
0.0808975
-0.0811322
-1.58956
1.58979
0.0806676
-0.0797501
-1.31543
1.31451
0.0786374
-0.0770679
-1.09566
1.09409
0.0755446
-0.0740302
-0.918995
0.917481
0.0721488
-0.0690775
-0.768539
0.765467
0.0642989
-0.0565961
-0.608445
0.600742
0.0475086
-0.0363404
-0.410749
0.39958
0.0263025
-0.016554
-0.218859
0.20911
0.00948361
-0.00398994
-0.0844194
0.0789257
0.00107704
-0.011202
0.010125
-0.0374735
0.0394515
-0.00197804
0.012108
-0.0182619
-0.248459
0.254613
0.0248543
-0.0302343
-0.416117
0.421497
0.0353493
-0.0396742
-0.577353
0.581677
0.0442884
-0.0488888
-0.710558
0.715159
0.0544786
-0.0598435
-0.838906
0.844271
0.0658463
-0.0713012
-0.987515
0.99297
0.0771213
-0.0821345
-1.16366
1.16867
0.0871175
-0.0910135
-1.37093
1.37482
0.0943431
-0.0963124
-1.6147
1.61667
0.0970506
-0.0966933
-1.58964
1.58929
0.0956996
-0.0941929
-1.31293
1.31142
0.0926147
-0.0906105
-1.09222
1.09022
0.0887056
-0.0866398
-0.915372
0.913306
0.0842326
-0.0800867
-0.761865
0.757719
0.073869
-0.06423
-0.592831
0.583192
0.0532734
-0.0402257
-0.387925
0.374877
0.0287886
-0.0179007
-0.198954
0.188066
0.0101413
-0.00421361
-0.0732675
0.0673397
0.00112133
-0.00904149
0.00792015
-0.0413903
0.0442453
-0.00285496
0.0171025
-0.0255133
-0.261012
0.269422
0.0343325
-0.0414513
-0.428486
0.435605
0.0481968
-0.0537995
-0.588009
0.593611
0.0597053
-0.0654334
-0.720712
0.72644
0.0721621
-0.078431
-0.849651
0.85592
0.0852779
-0.0913536
-0.998374
1.00445
0.0976698
-0.102945
-1.17353
1.17881
0.107985
-0.111717
-1.37843
1.38216
0.114622
-0.115987
-1.61821
1.61958
0.115997
-0.114835
-1.58843
1.58727
0.113147
-0.110953
-1.3092
1.307
0.108834
-0.106357
-1.08773
1.08526
0.104054
-0.101307
-0.910461
0.907715
0.0982154
-0.0926859
-0.752902
0.747372
0.084648
-0.0726045
-0.573258
0.561214
0.0593769
-0.044118
-0.361312
0.346053
0.031111
-0.0190316
-0.176787
0.164708
0.0106203
-0.00433953
-0.0612926
0.0550118
0.00113274
-0.00680726
0.00567452
-0.0469672
0.0513068
-0.00433962
0.0248231
-0.0363068
-0.278089
0.289573
0.0480246
-0.057463
-0.445351
0.45479
0.0662343
-0.0733305
-0.601858
0.608955
0.0807864
-0.0880254
-0.733116
0.740355
0.0959456
-0.103036
-0.862147
0.869238
0.110555
-0.117027
-1.01037
1.01684
0.123518
-0.128712
-1.18375
1.18895
0.133395
-0.136567
-1.3854
1.38857
0.13861
-0.138985
-1.62031
1.62069
0.137936
-0.135705
-1.58547
1.58324
0.133143
-0.130124
-1.304
1.30098
0.127373
-0.124369
-1.08208
1.07908
0.121569
-0.118126
-0.904083
0.900641
0.114046
-0.106668
-0.740959
0.733581
0.0962772
-0.0812637
-0.54872
0.533707
0.0653486
-0.0475991
-0.330329
0.312579
0.0329359
-0.0197268
-0.152353
0.139144
0.0107925
-0.00431449
-0.0487064
0.0422283
0.0010963
-0.00456959
0.00347329
-0.0552798
0.0627147
-0.00743488
0.0383451
-0.0543121
-0.301848
0.317815
0.0701029
-0.0827677
-0.468374
0.481039
0.0937337
-0.102204
-0.619343
0.627813
0.111173
-0.119681
-0.748156
0.756664
0.128517
-0.136007
-0.876088
0.883577
0.143607
-0.149865
-1.02288
1.02914
0.155847
-0.160316
-1.1935
1.19797
0.163968
-0.165963
-1.39093
1.39292
0.166562
-0.16548
-1.62016
1.61908
0.163005
-0.159407
-1.58023
1.57663
0.155747
-0.151717
-1.29704
1.29301
0.148258
-0.144719
-1.07509
1.07155
0.141299
-0.137008
-0.896016
0.891724
0.131441
-0.121507
-0.724942
0.715008
0.10804
-0.089392
-0.517959
0.499311
0.0704929
-0.0501779
-0.294549
0.274234
0.0339567
-0.0198465
-0.125963
0.111853
0.0106001
-0.00412411
-0.0358965
0.0294205
0.00100543
-0.00242505
0.00141962
-0.0696319
0.0737502
-0.00411826
0.0293017
-0.0431796
-0.336286
0.350164
0.0572133
-0.0688622
-0.498996
0.510645
0.079271
-0.0889664
-0.640057
0.649752
0.0997696
-0.109699
-0.76469
0.77462
0.12073
-0.130542
-0.890154
0.899965
0.14099
-0.150277
-1.03446
1.04374
0.159965
-0.168247
-1.20134
1.20963
0.176442
-0.182936
-1.39375
1.40025
0.188648
-0.192278
-1.61679
1.62042
0.193802
-0.193807
-1.57202
1.57203
0.192703
-0.190895
-1.28797
1.28616
0.189388
-0.187472
-1.06654
1.06462
0.185445
-0.181204
-0.885582
0.881341
0.173412
-0.158478
-0.703274
0.68834
0.138042
-0.110906
-0.479685
0.452549
0.0848803
-0.0582491
-0.253926
0.227294
0.038183
-0.0216187
-0.0983995
0.0818351
0.011211
-0.004229
-0.023431
0.016449
0.000999837
-0.00047378
-0.000526057
-0.0810956
0.0791006
0.00199498
0.00747348
-0.016641
-0.366784
0.375951
0.0273324
-0.0356082
-0.52695
0.535226
0.0439563
-0.0520994
-0.662038
0.670181
0.0620361
-0.0713065
-0.784159
0.793429
0.0811903
-0.0902036
-0.9092
0.918214
0.0997668
-0.107922
-1.05273
1.06089
0.116605
-0.12365
-1.2177
1.22475
0.130551
-0.135712
-1.40641
1.41157
0.139664
-0.141713
-1.62322
1.62527
0.141678
-0.14012
-1.57132
1.56976
0.137454
-0.13397
-1.2836
1.28011
0.13082
-0.127394
-1.06034
1.05692
0.123913
-0.118553
-0.872519
0.867159
0.110157
-0.0967039
-0.669383
0.65593
0.0807702
-0.0616621
-0.423837
0.404729
0.0450787
-0.0298519
-0.201175
0.185948
0.0191779
-0.0108066
-0.0663691
0.0579977
0.00565915
-0.00217463
-0.00979231
0.00630779
0.000463795
0.00161883
-0.00208262
-0.0825072
0.0795466
0.00296057
-0.00176021
-0.00352811
-0.387409
0.392698
0.0108054
-0.0167864
-0.547634
0.553615
0.0229396
-0.0300884
-0.680564
0.687713
0.0386937
-0.0467409
-0.801793
0.80984
0.0555346
-0.0633871
-0.926458
0.934311
0.0714623
-0.0787007
-1.06885
1.07609
0.0861781
-0.0923078
-1.23132
1.23745
0.0978191
-0.101676
-1.416
1.41986
0.104487
-0.105251
-1.62654
1.6273
0.103942
-0.101113
-1.56753
1.5647
0.0974224
-0.0930218
-1.27623
1.27183
0.0885923
-0.0839029
-1.05142
1.04673
0.0792762
-0.0732439
-0.85745
0.851418
0.0656172
-0.0545609
-0.639414
0.628357
0.0430866
-0.0308094
-0.384098
0.371821
0.021586
-0.014039
-0.170419
0.162872
0.00915941
-0.0054526
-0.0497218
0.046015
0.00304468
-0.00117172
-0.00289145
0.00101849
0.000274018
0.0027599
-0.00303392
-0.081197
0.0783867
0.00281037
-0.00546433
0.00294948
-0.401147
0.403661
0.00173076
-0.00625623
-0.562881
0.567407
0.0114553
-0.0174493
-0.695838
0.701832
0.0247842
-0.0316555
-0.817231
0.824102
0.0391486
-0.0458625
-0.941611
0.948325
0.0531386
-0.0592384
-1.08287
1.08896
0.0657051
-0.0705158
-1.24312
1.24793
0.0750844
-0.0780958
-1.42343
1.42644
0.0798101
-0.0793703
-1.62752
1.62708
0.0772886
-0.0737065
-1.56122
1.55763
0.06934
-0.063826
-1.26697
1.26145
0.0586508
-0.0530018
-1.04043
1.03478
0.0473968
-0.041242
-0.841337
0.835182
0.0343183
-0.0258979
-0.614458
0.606038
0.0183288
-0.0116851
-0.358449
0.351805
0.00764789
-0.0049527
-0.154502
0.151807
0.00341761
-0.00234595
-0.0416755
0.0406039
0.00149202
-0.000592856
0.000888141
-0.0017873
0.000153534
0.00356957
-0.00372311
-0.0796137
0.0771148
0.00249884
-0.0066522
0.00578322
-0.410243
0.411112
-0.00237516
-0.000822006
-0.575115
0.578312
0.00505697
-0.0105061
-0.708619
0.714068
0.0166541
-0.0226624
-0.83026
0.836268
0.0291237
-0.0349214
-0.954559
0.960357
0.041115
-0.0464819
-1.0949
1.10027
0.0518763
-0.0561754
-1.25255
1.25685
0.0599228
-0.062217
-1.42901
1.4313
0.0631753
-0.062059
-1.62636
1.62525
0.0593553
-0.0549695
-1.55324
1.54886
0.0500937
-0.0441762
-1.2557
1.24978
0.0384691
-0.0320385
-1.02793
1.0215
0.026082
-0.0197603
-0.825556
0.819234
0.0139032
-0.00757375
-0.595306
0.588977
0.00294995
-4.27241e-05
-0.343367
0.34046
-0.000933548
0.000894185
-0.14749
0.14753
-0.000486781
2.96035e-05
-0.0387656
0.0392227
0.000158178
-9.70182e-05
0.00268713
-0.00274829
4.14801e-05
0.00410358
-0.00414506
-0.0781195
0.075966
0.00215346
-0.0065936
0.00626609
-0.416397
0.416725
-0.00426031
0.00169306
-0.584438
0.587005
0.00233569
-0.00697979
-0.719418
0.724062
0.0122425
-0.0174382
-0.841471
0.846666
0.0231536
-0.0282975
-0.965777
0.970921
0.0339056
-0.0385435
-1.10532
1.10996
0.0433029
-0.0470591
-1.26082
1.26457
0.0501941
-0.0519646
-1.43326
1.43503
0.0523641
-0.0511457
-1.62394
1.62272
0.0480001
-0.0433946
-1.54393
1.53933
0.0382007
-0.0319399
-1.24355
1.23728
0.0261453
-0.0192369
-1.01435
1.00745
0.0129707
-0.00659957
-0.810336
0.803964
0.00142053
0.00328997
-0.580263
0.575552
-0.00620202
0.00721252
-0.334969
0.333958
-0.00638476
0.00490626
-0.145911
0.147389
-0.00350913
0.00200803
-0.0391403
0.0406414
-0.00100039
0.000383753
0.00276449
-0.00214785
-8.16863e-05
0.00432382
-0.00424214
-0.0769419
0.0752465
0.00169549
-0.00576853
0.00580639
-0.420875
0.420837
-0.00422763
0.0023311
-0.592508
0.594404
0.00138701
-0.00557477
-0.728702
0.73289
0.0105417
-0.0149876
-0.851442
0.855888
0.0199725
-0.0244931
-0.976005
0.980526
0.0297568
-0.0339095
-1.1146
1.11875
0.0380548
-0.0415084
-1.2681
1.27155
0.0446497
-0.0461025
-1.43676
1.43822
0.0463354
-0.0448169
-1.62102
1.6195
0.0418086
-0.0368292
-1.53443
1.52945
0.0317197
-0.0255465
-1.23078
1.2246
0.0195634
-0.0128191
-1.00021
0.99347
0.00649659
2.37658e-05
-0.795691
0.789171
-0.00434323
0.00835152
-0.568021
0.564013
-0.0106628
0.0107868
-0.330154
0.330031
-0.00939642
0.00740776
-0.147252
0.14924
-0.00547275
0.0033816
-0.0416227
0.0437139
-0.00183926
0.000786151
0.00145884
-0.000405736
-0.000194971
0.00422303
-0.00402806
-0.0762567
0.0749132
0.00134355
-0.00473103
0.00491877
-0.424334
0.424146
-0.0035647
0.00177529
-0.599467
0.601256
0.00177488
-0.00548503
-0.736991
0.740701
0.00970971
-0.0139652
-0.860256
0.864511
0.0185296
-0.0231425
-0.984823
0.989436
0.0276161
-0.0315231
-1.12297
1.12688
0.0357173
-0.0388397
-1.27484
1.27797
0.0413887
-0.0431331
-1.43953
1.44127
0.043383
-0.0419686
-1.61798
1.61657
0.0389248
-0.0343077
-1.52461
1.52
0.029328
-0.0232843
-1.21808
1.21204
0.0175156
-0.0109097
-0.986399
0.979793
0.00479045
0.00128416
-0.781515
0.77544
-0.00585898
0.00937869
-0.557185
0.553665
-0.0113513
0.0116406
-0.327142
0.326852
-0.0103835
0.00825963
-0.14964
0.151764
-0.0062691
0.00405226
-0.0451458
0.0473627
-0.00233036
0.000992968
-0.00068427
0.00202166
-0.000259331
0.00387839
-0.00361906
-0.0760932
0.0749689
0.00112427
-0.00347881
0.00345241
-0.427375
0.427401
-0.0024005
0.000669505
-0.605798
0.607529
0.00274427
-0.00630435
-0.744633
0.748193
0.0103237
-0.014141
-0.868525
0.872342
0.018782
-0.0225611
-0.993439
0.997218
0.0269536
-0.0306283
-1.13091
1.13459
0.034643
-0.0378934
-1.28104
1.28429
0.0406444
-0.0420786
-1.44273
1.44417
0.042553
-0.0414122
-1.61504
1.6139
0.0388739
-0.0344313
-1.51523
1.51079
0.0297825
-0.024042
-1.20611
1.20037
0.018588
-0.0122302
-0.972883
0.966526
0.00648278
-0.000416609
-0.768179
0.762113
-0.00414972
0.00761968
-0.547254
0.543784
-0.00963245
0.0101884
-0.324197
0.323641
-0.00952336
0.00788073
-0.152001
0.153644
-0.00617291
0.00412768
-0.04885
0.0508952
-0.00246537
0.00108036
-0.00317472
0.00455973
-0.000304204
0.00338182
-0.00307761
-0.07621
0.0754214
0.000788579
-0.00233611
0.00185856
-0.430462
0.43094
-0.00097154
-0.000915502
-0.611305
0.613192
0.00395957
-0.00735131
-0.751724
0.755116
0.0111728
-0.0150931
-0.875995
0.879915
0.0190813
-0.0229906
-1.00118
1.00509
0.0273081
-0.0307359
-1.13867
1.14209
0.0347941
-0.0379494
-1.2873
1.29046
0.0406973
-0.0425991
-1.44598
1.44788
0.0434836
-0.0425453
-1.61277
1.61183
0.040173
-0.0363836
-1.50652
1.50273
0.0322406
-0.0268474
-1.19455
1.18915
0.0216506
-0.0158875
-0.960087
0.954324
0.0101229
-0.00448746
-0.755163
0.749528
-0.000301562
0.0039972
-0.537711
0.534015
-0.0059985
0.00708213
-0.320733
0.31965
-0.00703857
0.00619771
-0.15355
0.154391
-0.00500203
0.00347012
-0.0520336
0.0535655
-0.00214947
0.000971746
-0.00559058
0.0067683
-0.000290772
0.00281995
-0.00252917
-0.0767462
0.0761302
0.000616067
-0.00136854
0.000976654
-0.433756
0.434148
0.000441651
-0.00231435
-0.616876
0.618749
0.00548802
-0.00872256
-0.758262
0.761497
0.012369
-0.0158646
-0.883477
0.886972
0.0199539
-0.0235246
-1.00898
1.01255
0.0277647
-0.0316036
-1.14595
1.14979
0.0352667
-0.0387193
-1.29363
1.29708
0.0418491
-0.043801
-1.44965
1.4516
0.0450096
-0.0448075
-1.61109
1.61089
0.042842
-0.0396537
-1.49881
1.49562
0.0357288
-0.0308402
-1.18386
1.17897
0.0261341
-0.0206379
-0.948181
0.942685
0.0153522
-0.00987665
-0.742892
0.737416
0.00516966
-0.000864024
-0.528009
0.523703
-0.0016766
0.00323001
-0.316391
0.314837
-0.00392017
0.0038043
-0.153721
0.153837
-0.00325784
0.00239129
-0.0541399
0.0550065
-0.00154829
0.000727635
-0.00749815
0.0083188
-0.000243302
0.00231145
-0.00206815
-0.0775687
0.0771412
0.000427493
-0.000334488
-0.000205546
-0.437213
0.437754
0.00168519
-0.00383791
-0.622144
0.624297
0.00690079
-0.00995933
-0.76453
0.767588
0.0136802
-0.0170107
-0.890426
0.893756
0.0209246
-0.0246026
-1.01658
1.02026
0.0287283
-0.0325146
-1.15346
1.15725
0.0363799
-0.0398388
-1.30043
1.30389
0.0431305
-0.0458076
-1.45382
1.4565
0.0474285
-0.0474925
-1.61061
1.61067
0.0461932
-0.043317
-1.49233
1.48945
0.0399665
-0.0356815
-1.17408
1.1698
0.0311269
-0.0259801
-0.936964
0.931818
0.0209724
-0.0154972
-0.731122