/*--------------------------------*- C++ -*----------------------------------*\
| =========                 |                                                 |
| \\      /  F ield         | OpenFOAM: The Open Source CFD Toolbox           |
|  \\    /   O peration     | Version:  2306                                  |
|   \\  /    A nd           | Website:  www.openfoam.com                      |
|    \\/     M anipulation  |                                                 |
\*---------------------------------------------------------------------------*/
FoamFile
{
    version     2.0;
    format      ascii;
    arch        "LSB;label=32;scalar=64";
    class       volVectorField;
    location    "65";
    object      U;
}
// * * * * * * * * * * * * * * * * * * * * * * * * * * * * * * * * * * * * * //

dimensions      [0 1 -1 0 0 0 0];

internalField   nonuniform List<vector> 
8800
(
(0.984956 -0.0884518 0)
(1.00213 -0.0568247 0)
(0.999651 -0.0305575 0)
(1 -0.0158644 0)
(1.00009 -0.00872457 0)
(1.0001 -0.00509036 0)
(1.00007 -0.00300156 0)
(1.00002 -0.0016899 0)
(0.999999 -0.000784159 0)
(1.00007 -8.05357e-05 0)
(0.999983 0.000633499 0)
(0.999992 0.00139449 0)
(1.00003 0.00241966 0)
(1.00005 0.00401158 0)
(1.00004 0.00671715 0)
(1.00001 0.0117406 0)
(0.999838 0.0220506 0)
(0.999169 0.0411653 0)
(1.00748 0.0768942 0)
(0.773655 0.0450714 0)
(0.361011 -0.0151708 0)
(1.04557 -0.0741977 0)
(1.0871 -0.0678845 0)
(1.04775 -0.0522948 0)
(1.02459 -0.0383914 0)
(1.01242 -0.0261135 0)
(1.00652 -0.016763 0)
(1.00363 -0.0102392 0)
(1.00219 -0.00558417 0)
(1.00152 -0.00196835 0)
(1.00138 0.00126676 0)
(1.00173 0.0045953 0)
(1.0027 0.00850378 0)
(1.00472 0.0138338 0)
(1.00881 0.0215514 0)
(1.01734 0.0323645 0)
(1.03444 0.0456999 0)
(1.06548 0.0598038 0)
(1.09407 0.0729174 0)
(0.842195 0.0557165 0)
(0.217096 -0.00164615 0)
(1.07587 -0.0503495 0)
(1.09984 -0.0487082 0)
(1.06466 -0.0401581 0)
(1.04001 -0.0329953 0)
(1.02382 -0.0256935 0)
(1.01403 -0.0182963 0)
(1.00853 -0.0115515 0)
(1.00567 -0.00573173 0)
(1.00448 -0.000400024 0)
(1.00478 0.00474649 0)
(1.00662 0.0100779 0)
(1.01056 0.0161157 0)
(1.01786 0.0230091 0)
(1.03049 0.0302576 0)
(1.05063 0.0372506 0)
(1.08034 0.0445839 0)
(1.10617 0.0517921 0)
(0.942781 0.0413431 0)
(0.216433 0.00166872 0)
(0.175931 -0.000644986 0)
(1.01871 -0.0354024 0)
(1.1056 -0.0414071 0)
(1.07814 -0.0362416 0)
(1.05291 -0.0302144 0)
(1.03564 -0.0244827 0)
(1.0236 -0.0187383 0)
(1.01566 -0.0126955 0)
(1.01099 -0.00653739 0)
(1.00892 -0.000248622 0)
(1.00944 0.00595155 0)
(1.01254 0.0119134 0)
(1.01858 0.0177143 0)
(1.02832 0.0232632 0)
(1.04263 0.0286724 0)
(1.06334 0.0343216 0)
(1.09375 0.0402802 0)
(1.09408 0.0419 0)
(0.82871 0.0227983 0)
(0.174807 0.000668953 0)
(0.154395 -0.00048682 0)
(0.95738 -0.0255446 0)
(1.10413 -0.0350743 0)
(1.08799 -0.032629 0)
(1.06149 -0.0280756 0)
(1.0436 -0.0230726 0)
(1.03117 -0.0177926 0)
(1.02245 -0.0122651 0)
(1.0168 -0.00633693 0)
(1.01408 0.000150425 0)
(1.01471 0.0066376 0)
(1.01853 0.0125229 0)
(1.02542 0.0178057 0)
(1.03563 0.0227426 0)
(1.05028 0.027539 0)
(1.07196 0.0320075 0)
(1.10065 0.0358772 0)
(1.06903 0.0340079 0)
(0.741052 0.0143811 0)
(0.152701 0.000513507 0)
(0.139882 -0.000357984 0)
(0.90046 -0.0191976 0)
(1.09652 -0.0301235 0)
(1.09612 -0.0292377 0)
(1.06915 -0.0254818 0)
(1.05045 -0.0213736 0)
(1.03748 -0.016634 0)
(1.02843 -0.0113665 0)
(1.02241 -0.00563397 0)
(1.01936 0.000734402 0)
(1.01995 0.00711097 0)
(1.02396 0.0127531 0)
(1.03104 0.0177017 0)
(1.04154 0.0221456 0)
(1.0568 0.0260902 0)
(1.07939 0.0295656 0)
(1.10289 0.0322257 0)
(1.03704 0.0281663 0)
(0.674318 0.0102703 0)
(0.137491 0.000389277 0)
(0.129247 -0.000273405 0)
(0.85076 -0.0148218 0)
(1.08417 -0.0260138 0)
(1.10181 -0.0263329 0)
(1.076 -0.0230195 0)
(1.05678 -0.0193643 0)
(1.04337 -0.0151422 0)
(1.03396 -0.0102447 0)
(1.02768 -0.004722 0)
(1.02441 0.0014572 0)
(1.02486 0.00760791 0)
(1.02885 0.0129686 0)
(1.03606 0.0175069 0)
(1.04685 0.0213411 0)
(1.0625 0.0246549 0)
(1.08552 0.0276432 0)
(1.10202 0.0294181 0)
(1.00217 0.0236561 0)
(0.622294 0.00789473 0)
(0.126007 0.000311092 0)
(0.12114 -0.000210665 0)
(0.808472 -0.0116491 0)
(1.0689 -0.0224106 0)
(1.10536 -0.0236973 0)
(1.08226 -0.020818 0)
(1.06261 -0.0173799 0)
(1.04892 -0.0134475 0)
(1.03924 -0.00887873 0)
(1.03269 -0.00362653 0)
(1.02917 0.00232473 0)
(1.02945 0.00820955 0)
(1.03338 0.0132191 0)
(1.04065 0.0172934 0)
(1.05154 0.0206365 0)
(1.06741 0.0235513 0)
(1.0908 0.0262321 0)
(1.09827 0.0271012 0)
(0.966895 0.0201153 0)
(0.580468 0.00635007 0)
(0.116868 0.000256267 0)
(0.114861 -0.000162429 0)
(0.772856 -0.00927325 0)
(1.05212 -0.0192369 0)
(1.10774 -0.0212567 0)
(1.08815 -0.0187541 0)
(1.06809 -0.0154688 0)
(1.05415 -0.0116995 0)
(1.04428 -0.00733426 0)
(1.03749 -0.00232251 0)
(1.0337 0.003371 0)
(1.03376 0.00894875 0)
(1.03755 0.0135787 0)
(1.04476 0.0172438 0)
(1.05565 0.0202036 0)
(1.07174 0.022791 0)
(1.0948 0.0251257 0)
(1.09169 0.0251838 0)
(0.932531 0.0173826 0)
(0.545835 0.00529418 0)
(0.109334 0.000217687 0)
(0.109966 -0.00012405 0)
(0.742979 -0.00742963 0)
(1.03489 -0.0164214 0)
(1.10917 -0.018958 0)
(1.09374 -0.0167648 0)
(1.07339 -0.0135755 0)
(1.05918 -0.00990018 0)
(1.04911 -0.00565615 0)
(1.0421 -0.000814345 0)
(1.03802 0.00463117 0)
(1.03779 0.00988719 0)
(1.04135 0.0141547 0)
(1.04841 0.0174573 0)
(1.05929 0.0200686 0)
(1.07557 0.0223654 0)
(1.09752 0.0243258 0)
(1.08265 0.0236158 0)
(0.899656 0.0153082 0)
(0.516334 0.00455909 0)
(0.102916 0.000190937 0)
(0.10617 -9.2267e-05 0)
(0.718023 -0.00594322 0)
(1.01805 -0.0138927 0)
(1.10978 -0.016735 0)
(1.09923 -0.01482 0)
(1.07861 -0.0116452 0)
(1.0641 -0.00800367 0)
(1.05381 -0.00382318 0)
(1.04654 0.000907382 0)
(1.04214 0.00614486 0)
(1.04154 0.0111005 0)
(1.04479 0.0150288 0)
(1.05167 0.0179851 0)
(1.0625 0.0202568 0)
(1.07897 0.0222896 0)
(1.09888 0.0238475 0)
(1.07154 0.0223944 0)
(0.868386 0.0137782 0)
(0.490503 0.00405414 0)
(0.0972678 0.000173445 0)
(0.103281 -6.47601e-05 0)
(0.697345 -0.00469684 0)
(1.00221 -0.0115839 0)
(1.1097 -0.0145505 0)
(1.10456 -0.0128332 0)
(1.08383 -0.00962585 0)
(1.069 -0.00595955 0)
(1.05844 -0.00178223 0)
(1.05086 0.00288758 0)
(1.04607 0.00796644 0)
(1.04501 0.0126535 0)
(1.04789 0.0162567 0)
(1.05454 0.0188736 0)
(1.0653 0.0208091 0)
(1.08191 0.0225852 0)
(1.09923 0.0237378 0)
(1.05863 0.0215296 0)
(0.83856 0.0127028 0)
(0.467245 0.00372323 0)
(0.0921283 0.000163267 0)
(0.10118 -3.94398e-05 0)
(0.680474 -0.00360263 0)
(0.987824 -0.0094248 0)
(1.10916 -0.0123188 0)
(1.10971 -0.0107187 0)
(1.08912 -0.00745623 0)
(1.07394 -0.00370649 0)
(1.06307 0.000531465 0)
(1.05512 0.00519512 0)
(1.04983 0.0101661 0)
(1.04823 0.0146129 0)
(1.05066 0.0178999 0)
(1.05704 0.0201807 0)
(1.06771 0.0217736 0)
(1.08436 0.0232799 0)
(1.09857 0.0240099 0)
(1.04408 0.021038 0)
(0.80985 0.0120114 0)
(0.445703 0.00352832 0)
(0.0872946 0.00015889 0)
(0.0998048 -1.44519e-05 0)
(0.667106 -0.00259133 0)
(0.975255 -0.00734072 0)
(1.10847 -0.00998073 0)
(1.11481 -0.00841601 0)
(1.09458 -0.00506158 0)
(1.07901 -0.0011661 0)
(1.06776 0.00319444 0)
(1.05935 0.00791516 0)
(1.05346 0.0128284 0)
(1.05121 0.0170599 0)
(1.0531 0.0200332 0)
(1.05915 0.0219682 0)
(1.06969 0.0232016 0)
(1.08636 0.024442 0)
(1.09667 0.0247141 0)
(1.02794 0.0209044 0)
(0.781828 0.0116491 0)
(0.425175 0.00344395 0)
(0.082602 0.000159179 0)
(0.0991382 1.25415e-05 0)
(0.657086 -0.00160899 0)
(0.964818 -0.00525982 0)
(1.10795 -0.00747238 0)
(1.12 -0.0058507 0)
(1.10028 -0.00235449 0)
(1.08429 0.00175311 0)
(1.07259 0.006303 0)
(1.06361 0.0111492 0)
(1.05699 0.0160547 0)
(1.05395 0.0200922 0)
(1.0552 0.0227503 0)
(1.06086 0.0243205 0)
(1.07123 0.0251789 0)
(1.08781 0.0261164 0)
(1.09348 0.0258736 0)
(1.01019 0.0211633 0)
(0.754021 0.0115877 0)
(0.405077 0.0034555 0)
(0.0779162 0.000163583 0)
(0.0992017 3.70662e-05 0)
(0.650383 -0.000608764 0)
(0.956813 -0.00310974 0)
(1.10795 -0.00472176 0)
(1.12543 -0.00293646 0)
(1.10631 0.000761939 0)
(1.08987 0.00515521 0)
(1.07762 0.00997294 0)
(1.06796 0.0150156 0)
(1.06046 0.0199637 0)
(1.05647 0.0238244 0)
(1.05695 0.0261584 0)
(1.06212 0.0273469 0)
(1.07232 0.027809 0)
(1.08851 0.0283783 0)
(1.08878 0.0275083 0)
(0.990661 0.0218501 0)
(0.725891 0.0118116 0)
(0.384874 0.00355463 0)
(0.0731146 0.000171674 0)
(0.100029 7.38847e-05 0)
(0.647073 0.000419203 0)
(0.951557 -0.000818283 0)
(1.10883 -0.00164522 0)
(1.13132 0.00042431 0)
(1.11281 0.00440306 0)
(1.09585 0.00917322 0)
(1.08295 0.0143455 0)
(1.07245 0.0196597 0)
(1.06387 0.0246997 0)
(1.05874 0.028392 0)
(1.05831 0.0303808 0)
(1.06292 0.0311709 0)
(1.07287 0.0312069 0)
(1.08831 0.0313552 0)
(1.0823 0.0297244 0)
(0.969076 0.0229845 0)
(0.696852 0.012309 0)
(0.364067 0.00373259 0)
(0.0680881 0.000182807 0)
(0.101835 0.000109736 0)
(0.647538 0.00158466 0)
(0.949399 0.00170256 0)
(1.11101 0.00186986 0)
(1.13785 0.00432259 0)
(1.11989 0.00872349 0)
(1.10234 0.0139695 0)
(1.08866 0.0195909 0)
(1.07714 0.0252579 0)
(1.06726 0.0304361 0)
(1.06077 0.0339625 0)
(1.05925 0.0355655 0)
(1.06319 0.0359258 0)
(1.07284 0.0355027 0)
(1.08696 0.0351621 0)
(1.07378 0.0326028 0)
(0.945047 0.0246192 0)
(0.666277 0.0130796 0)
(0.342184 0.00398493 0)
(0.0627417 0.000196495 0)
(0.104676 0.000159895 0)
(0.652212 0.00303313 0)
(0.950832 0.00460713 0)
(1.115 0.00591479 0)
(1.14527 0.00893677 0)
(1.12773 0.0139024 0)
(1.10949 0.0197405 0)
(1.09486 0.0259227 0)
(1.08208 0.0320256 0)
(1.07063 0.037379 0)
(1.06251 0.0407151 0)
(1.05973 0.0418739 0)
(1.06286 0.0417709 0)
(1.07214 0.0408356 0)
(1.08429 0.0399698 0)
(1.06285 0.0362532 0)
(0.918042 0.0267826 0)
(0.633479 0.0141142 0)
(0.318773 0.00430228 0)
(0.0569919 0.000211846 0)
(0.10883 0.000226096 0)
(0.661537 0.00471724 0)
(0.956311 0.00803787 0)
(1.12127 0.0106839 0)
(1.15384 0.0144653 0)
(1.13653 0.0201739 0)
(1.11746 0.026749 0)
(1.10164 0.033615 0)
(1.08731 0.0402319 0)
(1.07396 0.0457701 0)
(1.06392 0.0488562 0)
(1.0597 0.0495065 0)
(1.06186 0.0488808 0)
(1.0707 0.0473642 0)
(1.08038 0.0458848 0)
(1.04903 0.0407741 0)
(0.887385 0.0295113 0)
(0.597719 0.0153987 0)
(0.29341 0.00467211 0)
(0.0507774 0.000227688 0)
(0.114638 0.000315104 0)
(0.676282 0.00681518 0)
(0.966485 0.0121969 0)
(1.13041 0.0164165 0)
(1.16393 0.0211761 0)
(1.14656 0.0278605 0)
(1.12643 0.0353415 0)
(1.10911 0.0430203 0)
(1.09287 0.0502081 0)
(1.07721 0.0558943 0)
(1.06493 0.058624 0)
(1.05897 0.0586306 0)
(1.06011 0.0574318 0)
(1.06846 0.0552785 0)
(1.07498 0.0530887 0)
(1.03167 0.0462524 0)
(0.852249 0.0327976 0)
(0.558238 0.0168888 0)
(0.265744 0.00506961 0)
(0.0440711 0.000241987 0)
(0.122609 0.000443576 0)
(0.697418 0.00956633 0)
(0.982223 0.0173925 0)
(1.14307 0.0234568 0)
(1.17604 0.0294658 0)
(1.15812 0.0374181 0)
(1.1366 0.0459922 0)
(1.11736 0.054597 0)
(1.09871 0.0623577 0)
(1.08029 0.0680775 0)
(1.06541 0.070276 0)
(1.05748 0.0694881 0)
(1.05751 0.0675795 0)
(1.06534 0.0647048 0)
(1.06772 0.061608 0)
(1.00997 0.0527515 0)
(0.811666 0.036598 0)
(0.514305 0.0185092 0)
(0.235553 0.00545903 0)
(0.0368973 0.000252307 0)
(0.133477 0.000627439 0)
(0.726185 0.0133431 0)
(1.00469 0.0240948 0)
(1.16005 0.0323525 0)
(1.19075 0.0399374 0)
(1.17155 0.0495241 0)
(1.14812 0.059379 0)
(1.12636 0.0689572 0)
(1.10472 0.0771725 0)
(1.08301 0.0826731 0)
(1.06519 0.0840591 0)
(1.05513 0.0822786 0)
(1.05395 0.0795269 0)
(1.06102 0.0757697 0)
(1.05792 0.071635 0)
(0.982871 0.0602434 0)
(0.764558 0.0407916 0)
(0.465313 0.0201311 0)
(0.202824 0.00578893 0)
(0.0293496 0.000255663 0)
(0.148482 0.000919441 0)
(0.764577 0.0187698 0)
(1.03554 0.0330942 0)
(1.18229 0.0440479 0)
(1.20885 0.0537241 0)
(1.18719 0.0652227 0)
(1.16104 0.0764605 0)
(1.13597 0.0868823 0)
(1.11062 0.0952184 0)
(1.0851 0.100046 0)
(1.06404 0.100197 0)
(1.05175 0.0971516 0)
(1.0493 0.0934026 0)
(1.05516 0.0888427 0)
(1.04481 0.083183 0)
(0.949013 0.0686116 0)
(0.70985 0.045134 0)
(0.410963 0.0215605 0)
(0.167884 0.00599233 0)
(0.0216114 0.000248733 0)
(0.16983 0.00142507 0)
(0.815866 0.0269888 0)
(1.07735 0.0459441 0)
(1.21092 0.0604072 0)
(1.23092 0.0728747 0)
(1.2051 0.0861284 0)
(1.1751 0.0985504 0)
(1.14574 0.109306 0)
(1.11597 0.117087 0)
(1.08616 0.120526 0)
(1.06166 0.118857 0)
(1.04712 0.114192 0)
(1.04345 0.109269 0)
(1.04774 0.103828 0)
(1.02732 0.0961655 0)
(0.90675 0.077478 0)
(0.646734 0.0492374 0)
(0.351615 0.0225487 0)
(0.131565 0.00599576 0)
(0.0139754 0.000227735 0)
(0.200914 0.00254481 0)
(0.885802 0.040675 0)
(1.13379 0.066488 0)
(1.24636 0.0850257 0)
(1.25669 0.100129 0)
(1.22467 0.114595 0)
(1.18946 0.127244 0)
(1.15486 0.137198 0)
(1.12005 0.143308 0)
(1.08565 0.144349 0)
(1.0577 0.140112 0)
(1.04105 0.133406 0)
(1.03627 0.127084 0)
(1.03831 0.120571 0)
(1.00394 0.110255 0)
(0.85415 0.0861964 0)
(0.575264 0.0525673 0)
(0.288998 0.022906 0)
(0.0955724 0.00577583 0)
(0.00692923 0.000190149 0)
(0.24329 0.00879893 7.91231e-20)
(0.978448 0.0679025 7.09188e-20)
(1.20255 0.101048 -2.49991e-20)
(1.28548 0.121541 0)
(1.28335 0.139096 -6.56064e-34)
(1.24373 0.152949 9.63337e-21)
(1.20257 0.164048 -1.75474e-20)
(1.16221 0.171781 0)
(1.12202 0.17513 3.64643e-34)
(1.08279 0.172968 -2.20832e-20)
(1.0512 0.165669 0)
(1.03232 0.156741 -2.63714e-20)
(1.02665 0.149174 -7.78637e-20)
(1.02559 0.142372 -3.67445e-20)
(0.970713 0.12797 -1.10666e-20)
(0.785195 0.0962241 -6.57683e-21)
(0.490261 0.0555131 0)
(0.221507 0.0230316 4.58441e-21)
(0.0599218 0.00564161 5.39065e-21)
(0.000445409 0.000155315 9.57357e-20)
(0.27283 0.0241865 5.50821e-20)
(1.05504 0.110658 1.06262e-21)
(1.25929 0.150291 6.51047e-21)
(1.32046 0.17091 0)
(1.3067 0.188355 -3.28083e-20)
(1.26005 0.200012 -3.75957e-20)
(1.21299 0.208779 -1.76033e-20)
(1.16681 0.214009 -6.33234e-20)
(1.12102 0.214558 0)
(1.07654 0.209248 9.40843e-20)
(1.04083 0.198973 9.36126e-20)
(1.01945 0.187832 2.78601e-20)
(1.01171 0.178467 1.01904e-19)
(1.00263 0.169195 1.43408e-19)
(0.918484 0.148631 0)
(0.692158 0.10674 2.01708e-19)
(0.390374 0.0580826 2.88662e-19)
(0.151488 0.0224478 3.19492e-19)
(0.0242791 0.00427514 -3.63527e-19)
(-0.00617369 -0.000493945 -6.74418e-21)
(0.274041 0.0402753 0)
(1.10351 0.166169 9.05647e-21)
(1.29752 0.210808 0)
(1.34765 0.230914 -4.04559e-20)
(1.32502 0.245317 0)
(1.27245 0.253067 -7.29393e-20)
(1.21986 0.258091 3.57387e-20)
(1.16817 0.25971 -1.26583e-19)
(1.11705 0.256589 -3.16188e-21)
(1.06756 0.247492 4.84979e-20)
(1.02793 0.233812 2.05977e-19)
(1.00412 0.220143 -4.46288e-22)
(0.994013 0.208772 -7.40503e-20)
(0.976509 0.196528 -1.35089e-19)
(0.871355 0.168898 1.5956e-19)
(0.625764 0.116561 -2.82124e-19)
(0.33239 0.0604458 -3.71587e-20)
(0.115455 0.0216044 0)
(0.00653513 0.00219275 -2.27232e-23)
(-0.00973308 -0.00136684 0)
(0.267568 0.0540869 9.66138e-20)
(1.12962 0.224887 -5.08723e-20)
(1.32103 0.275844 -4.35989e-20)
(1.36564 0.29613 1.85559e-20)
(1.33689 0.306599 -3.15721e-20)
(1.27989 0.309798 1.52199e-19)
(1.22274 0.310389 7.42651e-20)
(1.16626 0.307745 0)
(1.11035 0.300393 -2.41152e-19)
(1.05626 0.287024 0)
(1.01296 0.269576 -1.0786e-19)
(0.986767 0.253122 -1.33815e-19)
(0.974279 0.239441 -8.06293e-20)
(0.949888 0.223644 -9.80954e-20)
(0.832797 0.188984 0)
(0.5831 0.127625 0)
(0.302304 0.0650482 -2.41649e-19)
(0.0979447 0.0216739 4.75571e-20)
(-0.00332427 1.79063e-05 -2.77447e-20)
(-0.0122874 -0.00240153 -3.19601e-20)
(0.2598 0.066213 -2.33943e-20)
(1.14095 0.283428 0)
(1.33386 0.341749 8.08256e-20)
(1.3754 0.362717 5.02426e-20)
(1.34239 0.369335 7.42993e-20)
(1.28216 0.367984 0)
(1.22142 0.364028 7.1753e-20)
(1.16101 0.356927 1.39344e-19)
(1.10099 0.345112 1.2294e-19)
(1.04277 0.327231 2.28623e-19)
(0.996026 0.305783 0)
(0.967484 0.28633 -2.88535e-19)
(0.952637 0.270161 -1.74147e-19)
(0.923048 0.250884 -1.03001e-19)
(0.801045 0.210007 6.29682e-19)
(0.556342 0.140838 7.45661e-20)
(0.28838 0.0718885 3.48899e-19)
(0.0921753 0.0230177 -1.65065e-18)
(-0.0071192 -0.00166474 9.72353e-19)
(-0.0137965 -0.00341715 -1.15382e-18)
(0.252316 0.0771426 7.85663e-21)
(1.14284 0.339947 3.71675e-21)
(1.33893 0.406636 -6.68552e-21)
(1.37855 0.428785 -4.43418e-20)
(1.34247 0.431792 -5.88666e-20)
(1.27982 0.42607 3.59063e-21)
(1.21626 0.417719 -7.78503e-20)
(1.15262 0.406238 1.43463e-19)
(1.08906 0.389984 -2.64631e-19)
(1.02714 0.367559 0)
(0.977207 0.342037 -1.30422e-19)
(0.946352 0.319497 -3.19732e-21)
(0.929244 0.300768 -1.90796e-19)
(0.896075 0.278099 0)
(0.774006 0.23188 -1.36458e-19)
(0.539207 0.156086 -3.22556e-19)
(0.284428 0.0810534 8.55545e-19)
(0.0940902 0.0261344 -8.43407e-19)
(-0.00599845 -0.00228866 1.193e-18)
(-0.0141321 -0.00420297 -1.22084e-18)
(0.245962 0.087209 -8.20914e-22)
(1.13884 0.393764 4.69642e-21)
(1.33841 0.469506 -7.73913e-21)
(1.37651 0.493133 1.46487e-20)
(1.33818 0.492927 -2.90429e-20)
(1.27371 0.483113 0)
(1.20787 0.470622 -7.08987e-20)
(1.14151 0.454965 -1.49834e-19)
(1.07489 0.434429 -1.37144e-19)
(1.00967 0.407562 0)
(0.956763 0.378004 -1.35069e-19)
(0.923646 0.352376 -1.68189e-19)
(0.904342 0.331095 2.07204e-19)
(0.868623 0.305342 -1.25901e-19)
(0.749469 0.254271 -5.97272e-19)
(0.526512 0.172812 3.53083e-19)
(0.284778 0.0917545 1.04217e-19)
(0.0999572 0.030891 0)
(-0.00143194 -0.0015352 -1.15625e-18)
(-0.0133938 -0.00463121 -4.18061e-20)
(0.240851 0.096739 7.36928e-21)
(1.13126 0.444692 -1.04631e-20)
(1.33379 0.529899 1.49024e-21)
(1.37054 0.555054 5.70343e-20)
(1.33049 0.552076 -1.0116e-19)
(1.26462 0.538541 1.35273e-19)
(1.19694 0.522213 1.52933e-19)
(1.12827 0.502641 -2.39319e-19)
(1.05896 0.478055 8.5805e-20)
(0.990712 0.446922 -5.62403e-19)
(0.935027 0.413437 -1.53374e-19)
(0.89974 0.384778 0)
(0.878398 0.361043 2.25149e-19)
(0.840876 0.332183 2.70246e-19)
(0.72587 0.276798 3.22691e-19)
(0.514937 0.190423 -3.84838e-19)
(0.286132 0.103563 -1.13315e-19)
(0.106994 0.0371013 1.33349e-19)
(0.00483861 0.000458022 0)
(-0.0119668 -0.00469348 -9.09782e-20)
(0.236901 0.105886 -1.22422e-19)
(1.12178 0.492837 6.73168e-20)
(1.32634 0.587621 1.71143e-21)
(1.36166 0.614228 3.01727e-20)
(1.32022 0.608847 -4.18535e-20)
(1.25327 0.591959 -8.15384e-21)
(1.18407 0.572144 -1.67824e-19)
(1.11342 0.54897 -8.67729e-20)
(1.04168 0.520597 -2.38684e-19)
(0.970639 0.485424 6.45042e-22)
(0.912331 0.44815 -4.79932e-19)
(0.874991 0.41656 4.07609e-19)
(0.851752 0.390403 -2.48105e-19)
(0.812842 0.358627 2.98663e-19)
(0.701872 0.299008 0)
(0.502403 0.208224 -2.09888e-19)
(0.286082 0.115759 4.51758e-22)
(0.113471 0.0441833 -5.83646e-19)
(0.0115204 0.00332674 -8.52277e-20)
(-0.0101294 -0.00444026 0)
(0.234004 0.114795 0)
(1.11134 0.538432 7.86864e-20)
(1.31696 0.643039 2.64057e-20)
(1.35068 0.670511 -2.28527e-20)
(1.30804 0.663033 -5.79712e-20)
(1.24026 0.643146 0)
(1.16981 0.620193 -7.39713e-20)
(1.09742 0.593747 -2.08893e-21)
(1.02347 0.561894 5.11909e-19)
(0.949812 0.522927 -7.70505e-20)
(0.888999 0.482022 -3.46941e-19)
(0.849711 0.447575 2.11657e-19)
(0.824707 0.419014 -4.46537e-21)
(0.78448 0.384236 3.17982e-19)
(0.676867 0.320584 1.95762e-19)
(0.48805 0.225494 -4.53879e-19)
(0.283128 0.127782 5.36189e-19)
(0.117717 0.0514816 1.58615e-19)
(0.0172851 0.00662454 6.5045e-19)
(-0.00824403 -0.00397561 -1.7109e-18)
(0.232073 0.123639 -4.29968e-20)
(1.10066 0.581658 5.76097e-20)
(1.3063 0.695482 -3.82583e-20)
(1.33823 0.723879 8.35449e-21)
(1.29451 0.714536 0)
(1.22608 0.691973 -5.70964e-20)
(1.15459 0.666231 2.51225e-19)
(1.08067 0.636848 1.89462e-19)
(1.00469 0.601835 0)
(0.928516 0.559346 -1.11365e-18)
(0.865263 0.514958 9.40065e-19)
(0.824103 0.477687 0)
(0.797453 0.446701 2.90743e-19)
(0.755948 0.408831 -4.45453e-21)
(0.650854 0.340955 -6.27796e-19)
(0.47174 0.241309 2.44712e-19)
(0.277199 0.138873 0)
(0.118973 0.058197 8.56927e-19)
(0.0212484 0.00969484 0)
(-0.0066325 -0.00347925 -8.11117e-19)
(0.230963 0.132459 5.22536e-20)
(1.09013 0.622742 7.69504e-20)
(1.29486 0.745034 -3.73039e-20)
(1.32476 0.774346 0)
(1.28012 0.763336 -4.19865e-20)
(1.21118 0.738402 0)
(1.1388 0.710188 -2.44047e-19)
(1.06352 0.678201 -8.6271e-20)
(0.985625 0.640357 8.96577e-20)
(0.907011 0.594637 -5.51075e-19)
(0.84132 0.546914 9.68615e-20)
(0.798328 0.506815 0)
(0.770132 0.473311 -6.21292e-19)
(0.727309 0.432123 4.32196e-21)
(0.624031 0.359581 0)
(0.45316 0.255269 2.32922e-21)
(0.268251 0.148197 7.86487e-19)
(0.117036 0.0635162 -7.3956e-19)
(0.0229891 0.0119737 2.1763e-19)
(-0.00551036 -0.00308959 0)
(0.230358 0.141169 0)
(1.08009 0.661733 9.41017e-20)
(1.28288 0.791878 5.80673e-20)
(1.3107 0.821964 -4.9981e-21)
(1.26522 0.809456 -8.13162e-21)
(1.19589 0.782431 -1.28334e-19)
(1.12276 0.752047 9.26294e-20)
(1.04624 0.717772 -1.03398e-19)
(0.966547 0.677427 4.02215e-19)
(0.885517 0.628789 -8.81544e-19)
(0.817336 0.57789 -8.12539e-21)
(0.772489 0.534938 -2.71162e-19)
(0.742781 0.498732 1.00912e-18)
(0.698529 0.453845 -5.15217e-21)
(0.596531 0.37619 -4.88179e-19)
(0.432736 0.266843 -8.66352e-19)
(0.256621 0.155435 0)
(0.112582 0.0670262 0)
(0.0228537 0.0132201 2.34615e-19)
(-0.00482493 -0.00288321 -1.35716e-19)
(0.230436 0.149908 7.48766e-20)
(1.07065 0.698548 -2.15494e-19)
(1.2706 0.836114 -6.23218e-20)
(1.29638 0.866792 0)
(1.25012 0.852954 -3.00265e-21)
(1.18048 0.824089 -1.10491e-19)
(1.10673 0.791817 2.19065e-19)
(1.02908 0.755558 4.02496e-19)
(0.947675 0.713042 5.2151e-19)
(0.864233 0.661812 -7.1948e-19)
(0.793454 0.607927 -8.09339e-19)
(0.746643 0.562095 7.25397e-19)
(0.715368 0.522892 0)
(0.669589 0.473747 -2.22284e-19)
(0.568409 0.390426 -5.27796e-19)
(0.410553 0.275727 -6.23213e-19)
(0.242681 0.160107 -7.33803e-19)
(0.105788 0.0686288 2.16059e-19)
(0.0212049 0.0134171 -1.26217e-19)
(-0.00452987 -0.0028737 5.77546e-22)
(0.230641 0.158563 0)
(1.06191 0.733602 0)
(1.2583 0.877836 4.90067e-21)
(1.28201 0.908962 0)
(1.23504 0.893921 1.50013e-22)
(1.16517 0.863435 6.90333e-20)
(1.0909 0.829526 0)
(1.01224 0.79157 4.69447e-20)
(0.9292 0.747207 8.68621e-19)
(0.84334 0.693734 -1.65492e-18)
(0.769807 0.637101 0)
(0.720829 0.588347 -4.67303e-19)
(0.687827 0.54575 -6.05352e-21)
(0.640372 0.491637 -4.64286e-21)
(0.539689 0.401998 5.64846e-19)
(0.386917 0.281644 -1.794e-22)
(0.226988 0.162063 -1.58139e-18)
(0.0972155 0.0682523 4.64925e-19)
(0.0184032 0.012699 1.36657e-19)
(-0.00446626 -0.00298995 0)
(0.230996 0.167075 -3.02257e-19)
(1.05363 0.767014 -1.47822e-19)
(1.24607 0.917135 -1.89817e-19)
(1.26777 0.948599 1.72153e-19)
(1.22017 0.932432 -2.99579e-20)
(1.15014 0.900535 0)
(1.07545 0.865222 1.29115e-19)
(0.995863 0.825835 -1.05407e-19)
(0.911276 0.779939 7.78471e-21)
(0.823001 0.724591 1.22295e-19)
(0.746525 0.665501 1.04811e-18)
(0.695072 0.613795 -1.63785e-19)
(0.660049 0.567341 -6.22253e-19)
(0.610733 0.507366 -2.59005e-19)
(0.510447 0.410592 3.06485e-19)
(0.362537 0.284336 1.73387e-22)
(0.20999 0.161194 4.25737e-19)
(0.0875617 0.0660034 -9.99961e-19)
(0.0149639 0.0112017 1.17663e-18)
(-0.00455444 -0.00319335 1.68932e-19)
(0.231244 0.175342 1.15429e-19)
(1.04581 0.798865 -8.3662e-20)
(1.23405 0.954109 1.22301e-20)
(1.25378 0.985836 1.14864e-19)
(1.20563 0.968599 1.97305e-20)
(1.13552 0.935462 -1.14579e-19)
(1.06049 0.898956 3.52155e-20)
(0.980084 0.858375 -4.37695e-19)
(0.894037 0.811242 -9.54301e-19)
(0.803354 0.754396 -9.84929e-19)
(0.723746 0.69321 0)
(0.669408 0.638579 -7.20594e-19)
(0.631933 0.587797 8.97374e-19)
(0.580415 0.520813 0)
(0.480595 0.415806 -6.56363e-19)
(0.337997 0.283342 3.89667e-19)
(0.193064 0.157358 -4.57559e-19)
(0.0781036 0.0621916 -5.37728e-19)
(0.0116164 0.00926152 -9.4714e-19)
(-0.00470837 -0.00342978 -7.27248e-19)
(0.23185 0.18348 -1.30556e-19)
(1.0383 0.829147 8.94028e-20)
(1.22228 0.988831 2.03853e-19)
(1.24013 1.02076 1.70513e-19)
(1.19153 1.00252 -3.37666e-20)
(1.1214 0.968306 -5.39572e-20)
(1.04612 0.930781 1.19253e-19)
(0.964991 0.889233 -4.46924e-19)
(0.877571 0.841141 -5.64543e-19)
(0.78452 0.783172 1.02979e-18)
(0.701596 0.720299 2.30144e-18)
(0.643911 0.662874 0)
(0.60337 0.607332 0)
(0.549041 0.531984 -2.9792e-19)
(0.449793 0.417204 0)
(0.313515 0.277823 8.36887e-19)
(0.17756 0.149755 9.82946e-19)
(0.0708361 0.0567577 0)
(0.00954324 0.00724304 0)
(-0.00482749 -0.00365403 7.81036e-19)
(0.23213 0.191189 1.49142e-19)
(1.03112 0.857855 1.22901e-19)
(1.21084 1.02143 1.48199e-19)
(1.22688 1.05347 -1.67453e-19)
(1.17794 1.0343 -5.01338e-20)
(1.10785 0.999144 4.37931e-20)
(1.0324 0.960757 -1.61884e-19)
(0.950648 0.918439 -1.04751e-21)
(0.861961 0.869643 -1.00951e-20)
(0.766598 0.81092 -9.15783e-21)
(0.68022 0.746821 1.18478e-18)
(0.618688 0.686857 0)
(0.574305 0.626225 9.09145e-19)
(0.516203 0.541074 6.35837e-19)
(0.417291 0.4146 1.53016e-18)
(0.288628 0.266499 4.50676e-19)
(0.164947 0.135675 -5.28501e-19)
(0.070043 0.0465902 -3.09356e-19)
(0.0147263 0.0038861 0)
(-0.00294673 -0.00321133 8.3896e-19)
(0.232719 0.198915 -3.36182e-19)
(1.02424 0.885074 0)
(1.19971 1.05194 1.75877e-19)
(1.21408 1.08405 -1.43096e-19)
(1.16491 1.06403 7.52613e-20)
(1.09491 1.02806 -2.59858e-20)
(1.01938 0.988943 3.03673e-19)
(0.937097 0.946027 -3.69934e-20)
(0.847251 0.896757 0)
(0.749669 0.837617 -1.13268e-18)
(0.659756 0.772796 -2.57332e-18)
(0.593893 0.710698 1.06125e-19)
(0.54479 0.644779 1.25526e-18)
(0.481606 0.548536 0)
(0.381921 0.40845 1.03261e-18)
(0.261054 0.24832 0)
(0.153195 0.109354 0)
(0.0807873 0.0173207 -3.34246e-19)
(0.0489407 -0.0111137 0)
(0.0268145 0.0102153 2.24604e-19)
(0.232957 0.206049 -3.76792e-19)
(1.0176 0.911155 0)
(1.18888 1.08059 2.93502e-19)
(1.20168 1.11275 0)
(1.15241 1.09199 -4.79346e-20)
(1.08251 1.05535 0)
(1.007 1.01565 1.31261e-20)
(0.924239 0.972335 6.08433e-20)
(0.833319 0.922846 7.04812e-20)
(0.733561 0.863646 -1.23835e-18)
(0.640016 0.798664 7.68201e-20)
(0.569274 0.735051 8.54723e-19)
(0.514392 0.66379 1.22339e-18)
(0.444347 0.55503 1.65206e-19)
(0.34175 0.400237 8.0943e-19)
(0.225787 0.22421 0)
(0.130274 0.0664583 1.11292e-18)
(0.0714179 -0.0256738 -6.43997e-19)
(0.0407647 0.0447074 7.43466e-19)
(-0.0595929 0.436248 -8.81668e-19)
(0.233177 0.212993 3.12783e-19)
(1.01095 0.935865 4.90741e-19)
(1.17829 1.10768 0)
(1.18954 1.14 9.68806e-21)
(1.14022 1.11876 1.4592e-19)
(1.07039 1.08169 -2.91766e-20)
(0.994926 1.04167 9.87081e-20)
(0.91166 0.998297 0)
(0.819629 0.948994 4.6277e-19)
(0.7176 0.890309 -6.41773e-20)
(0.620082 0.825914 0)
(0.543565 0.76162 0)
(0.481127 0.684699 1.09799e-18)
(0.402023 0.561104 -5.11681e-19)
(0.293595 0.39191 -8.21673e-19)
(0.178097 0.197593 0)
(0.0757264 0.0757892 5.56351e-19)
(0.00557078 0.440226 -6.36202e-19)
(0.0312505 1.8964 -3.48933e-19)
(0.0620167 2.81167 -4.60744e-19)
(0.233179 0.219187 -2.34356e-19)
(1.0044 0.959371 -6.29453e-19)
(1.16793 1.1332 1.74556e-19)
(1.17766 1.16568 1.42482e-19)
(1.12839 1.14411 0)
(1.05863 1.10679 -4.19177e-20)
(0.983378 1.0667 1.24804e-19)
(0.899553 1.02348 -2.89285e-20)
(0.806453 0.974687 6.92851e-20)
(0.702169 0.916999 1.1784e-18)
(0.600556 0.853902 1.29896e-18)
(0.517699 0.790062 9.59493e-19)
(0.445798 0.707552 1.10603e-18)
(0.356108 0.565775 -1.20444e-18)
(0.243244 0.38739 -1.24242e-18)
(0.11966 0.241807 0)
(0.0430367 0.834421 0)
(0.0976475 2.55513 3.0531e-19)
(0.10058 3.20314 0)
(0.10329 3.38849 6.69956e-19)
(0.236207 0.224956 0)
(0.998525 0.981948 0)
(1.15754 1.157 0)
(1.16583 1.18965 4.34715e-20)
(1.11656 1.16778 1.34368e-19)
(1.04703 1.13052 -5.61629e-20)
(0.972248 1.09063 7.63075e-20)
(0.887863 1.04778 -2.78995e-20)
(0.793742 0.999772 5.71926e-19)
(0.687281 0.943569 -1.77005e-20)
(0.581567 0.882512 2.56456e-18)
(0.491991 0.820231 -1.10995e-19)
(0.408496 0.733295 1.33824e-19)
(0.308984 0.566989 1.74674e-19)
(0.1822 0.39985 -7.65747e-21)
(0.0983265 0.964656 3.56352e-21)
(0.137669 2.72743 -1.62254e-18)
(0.144925 3.29383 -5.99578e-19)
(0.1344 3.42565 3.00578e-19)
(0.122362 3.44753 -3.29621e-19)
(0.156255 0.177231 1.33885e-19)
(0.988097 1.0065 0)
(1.14681 1.17924 -3.42383e-19)
(1.15448 1.21232 -3.86095e-19)
(1.10546 1.19047 3.26215e-19)
(1.03641 1.1535 6.90587e-20)
(0.96143 1.1135 -7.30037e-20)
(0.876672 1.07129 2.93934e-19)
(0.781636 1.0244 -4.63309e-19)
(0.673211 0.970179 0)
(0.563501 0.911944 1.25447e-18)
(0.466968 0.851869 -7.82681e-19)
(0.370654 0.764739 0)
(0.253995 0.566058 1.5766e-19)
(0.14162 0.740436 3.8359e-19)
(0.153154 2.50315 -4.46352e-19)
(0.208265 3.32274 4.92424e-19)
(0.189304 3.43754 2.65167e-19)
(0.157312 3.45912 2.91042e-19)
(0.13616 3.46943 4.64864e-19)
(0.276137 0.26302 -2.36722e-19)
(0.971878 1.01611 0)
(1.12869 1.20479 3.79492e-19)
(1.13966 1.24282 4.24359e-19)
(1.08819 1.22362 -3.63583e-19)
(1.01841 1.18706 -1.14191e-19)
(0.942432 1.14865 4.19963e-20)
(0.857179 1.1077 2.33095e-20)
(0.760841 1.06303 4.36638e-19)
(0.649677 1.01283 1.00713e-18)
(0.53466 0.961175 7.04419e-20)
(0.42737 0.906209 6.9525e-19)
(0.301605 0.803031 1.24609e-19)
(0.212235 0.919047 -1.59334e-19)
(0.226858 2.35416 -3.55654e-19)
(0.286709 3.3251 3.30972e-19)
(0.270302 3.46539 -3.7098e-19)
(0.235009 3.48756 -2.14635e-19)
(0.198646 3.51508 -1.70722e-19)
(0.148049 3.5091 -1.64441e-20)
(0.265263 0.260571 0)
(0.969674 1.03906 1.10719e-19)
(1.12034 1.22834 -7.90025e-20)
(1.12908 1.26655 -5.12495e-20)
(1.07737 1.24684 -2.54808e-19)
(1.00753 1.21048 1.21058e-19)
(0.931253 1.17225 -1.1263e-20)
(0.845797 1.13212 2.04842e-20)
(0.748918 1.08894 -4.5176e-19)
(0.636427 1.04163 -2.70472e-20)
(0.518519 0.994944 -2.26691e-18)
(0.405896 0.943951 9.94617e-20)
(0.283415 0.868788 -1.16878e-19)
(0.25298 1.48328 -1.47743e-19)
(0.326973 3.10329 3.49514e-20)
(0.346355 3.46327 7.39549e-22)
(0.305731 3.51865 5.32037e-19)
(0.26888 3.54559 2.54463e-19)
(0.220559 3.56883 -5.34763e-20)
(0.163245 3.56485 -7.51044e-20)
(0.249656 0.258694 2.79442e-19)
(0.966001 1.06457 7.61089e-19)
(1.11156 1.25394 -2.27477e-19)
(1.11787 1.29164 -1.94114e-19)
(1.06593 1.27143 0)
(0.996222 1.2351 2.30357e-19)
(0.919935 1.19713 1.30845e-20)
(0.834546 1.15778 1.7429e-20)
(0.737448 1.11619 -5.06803e-20)
(0.624172 1.07204 -9.02489e-19)
(0.504259 1.03076 -1.04201e-18)
(0.387998 0.983393 -8.06735e-19)
(0.286045 0.998886 -8.9138e-19)
(0.322814 2.20966 9.13825e-19)
(0.413652 3.37486 7.4251e-19)
(0.390625 3.52046 0)
(0.344601 3.56516 0)
(0.306554 3.60536 -4.18994e-20)
(0.256676 3.66388 0)
(0.175706 3.6403 -3.26386e-20)
(0.239274 0.260622 -4.21468e-19)
(0.960235 1.09098 -6.50501e-19)
(1.10135 1.28075 0)
(1.1053 1.31745 1.15205e-20)
(1.05322 1.29663 -2.8159e-19)
(0.983806 1.26023 3.80962e-19)
(0.907838 1.22255 2.56749e-20)