/*--------------------------------*- C++ -*----------------------------------*\
| =========                 |                                                 |
| \\      /  F ield         | OpenFOAM: The Open Source CFD Toolbox           |
|  \\    /   O peration     | Version:  2306                                  |
|   \\  /    A nd           | Website:  www.openfoam.com                      |
|    \\/     M anipulation  |                                                 |
\*---------------------------------------------------------------------------*/
FoamFile
{
    version     2.0;
    format      ascii;
    arch        "LSB;label=32;scalar=64";
    class       volScalarField;
    location    "6";
    object      p;
}
// * * * * * * * * * * * * * * * * * * * * * * * * * * * * * * * * * * * * * //

dimensions      [0 2 -2 0 0 0 0];

internalField   nonuniform List<scalar> 
8800
(
0.464023
0.416222
0.378202
0.350097
0.330079
0.315973
0.305996
0.299073
0.294634
0.292703
0.293586
0.297122
0.302992
0.311485
0.323448
0.340287
0.364092
0.3972
0.439296
0.496289
0.295814
0.30331
0.31244
0.316666
0.315614
0.31096
0.305014
0.299438
0.295001
0.292151
0.291648
0.293853
0.297823
0.303096
0.309106
0.314772
0.317909
0.316539
0.309616
0.300075
0.27151
0.278175
0.283433
0.287627
0.290799
0.292349
0.292028
0.29057
0.288982
0.288175
0.288735
0.290381
0.292299
0.293526
0.29311
0.290738
0.287055
0.282373
0.276748
0.272958
0.269602
0.272382
0.276449
0.279836
0.28202
0.283371
0.284144
0.284334
0.284161
0.284077
0.284433
0.285034
0.285373
0.285115
0.284193
0.282589
0.279904
0.276026
0.272446
0.271277
0.270997
0.271741
0.273323
0.275137
0.276991
0.278658
0.279818
0.280474
0.280779
0.28098
0.281305
0.281582
0.28146
0.280804
0.279546
0.277864
0.276118
0.27438
0.273222
0.272944
0.269376
0.269657
0.270327
0.271141
0.271979
0.272848
0.273691
0.274432
0.274994
0.27543
0.275759
0.27583
0.275628
0.27514
0.274508
0.27375
0.273039
0.272306
0.271858
0.271755
0.266847
0.266988
0.267381
0.267948
0.268606
0.269332
0.270061
0.270749
0.271385
0.271955
0.272348
0.272492
0.272353
0.272003
0.271523
0.270987
0.270477
0.270041
0.269802
0.269751
0.263506
0.263566
0.263732
0.264008
0.264377
0.264846
0.26541
0.266042
0.266705
0.267359
0.267858
0.26809
0.268112
0.267986
0.267784
0.267566
0.267363
0.267195
0.267107
0.267083
0.259652
0.2597
0.259822
0.260023
0.260308
0.260691
0.261181
0.261779
0.262474
0.263233
0.263894
0.26431
0.264498
0.264541
0.264499
0.26442
0.264333
0.264257
0.264214
0.264199
0.255496
0.255525
0.25562
0.25578
0.256019
0.256362
0.256832
0.257452
0.258225
0.259133
0.259984
0.260583
0.260947
0.26115
0.261246
0.261281
0.261284
0.261274
0.261265
0.261256
0.251079
0.251104
0.251185
0.251331
0.251561
0.251906
0.252401
0.253083
0.25398
0.255088
0.256184
0.257011
0.257562
0.257917
0.258132
0.258255
0.258321
0.258352
0.258363
0.258357
0.24638
0.246401
0.246486
0.246639
0.246887
0.247268
0.247832
0.24863
0.249708
0.251081
0.25248
0.253573
0.254341
0.254852
0.255181
0.255384
0.255504
0.255568
0.255595
0.255591
0.241372
0.241393
0.241487
0.241661
0.241949
0.242399
0.243073
0.244042
0.245372
0.247093
0.248877
0.250298
0.251307
0.251996
0.252448
0.252733
0.252905
0.253
0.253041
0.253037
0.235986
0.236011
0.236123
0.236334
0.236685
0.237237
0.238069
0.239274
0.240939
0.243108
0.245376
0.247195
0.248501
0.249398
0.249991
0.250369
0.250598
0.250727
0.250783
0.250779
0.230136
0.230166
0.230306
0.23057
0.23101
0.231702
0.232749
0.234267
0.23637
0.239117
0.241995
0.244312
0.24598
0.247128
0.24789
0.248376
0.248673
0.24884
0.248912
0.248909
0.223703
0.223741
0.223919
0.224255
0.224814
0.225695
0.227025
0.228954
0.231625
0.235112
0.238762
0.241698
0.243813
0.245271
0.246238
0.246857
0.247234
0.247448
0.24754
0.247535
0.216522
0.216572
0.216801
0.217234
0.217952
0.219082
0.220786
0.223251
0.226655
0.231085
0.235709
0.239421
0.242093
0.243932
0.245153
0.245934
0.246411
0.24668
0.246797
0.246791
0.208376
0.208441
0.20874
0.209302
0.210233
0.211694
0.213891
0.217056
0.221406
0.227038
0.232888
0.237568
0.240928
0.243241
0.244776
0.245757
0.246357
0.246696
0.246842
0.246835
0.19897
0.199057
0.199451
0.200188
0.201406
0.203311
0.206159
0.210241
0.215814
0.222977
0.230364
0.236248
0.240464
0.243362
0.245285
0.246514
0.247265
0.24769
0.247872
0.247862
0.1879
0.188019
0.188544
0.189524
0.191136
0.193642
0.197365
0.202655
0.20981
0.218914
0.22822
0.235591
0.240862
0.244486
0.24689
0.248429
0.249369
0.2499
0.250127
0.250113
0.17461
0.174778
0.175488
0.176812
0.178977
0.182318
0.187229
0.194127
0.203333
0.214885
0.226562
0.235756
0.242321
0.246838
0.249842
0.251768
0.252946
0.253611
0.253894
0.253877
0.158302
0.158544
0.159525
0.161359
0.164336
0.168869
0.175429
0.184484
0.196345
0.210958
0.225523
0.236922
0.245064
0.250685
0.254441
0.256858
0.258338
0.259171
0.259525
0.259505
0.137763
0.138114
0.139528
0.142178
0.146412
0.152709
0.161607
0.173583
0.188861
0.207242
0.225261
0.239278
0.249316
0.256301
0.261013
0.264072
0.265953
0.267007
0.267451
0.267427
0.11103
0.111558
0.113757
0.117839
0.124132
0.13314
0.145422
0.161352
0.180972
0.203892
0.225933
0.242985
0.255268
0.26393
0.269881
0.273823
0.276288
0.277674
0.27825
0.278214
0.0747079
0.0756458
0.0795438
0.086401
0.0962356
0.109532
0.126713
0.147896
0.172879
0.201093
0.227669
0.248127
0.262996
0.273696
0.281269
0.286485
0.2899
0.291908
0.292758
0.292699
0.022123
0.0248724
0.0332515
0.0458328
0.0619327
0.0819251
0.105908
0.133721
0.164998
0.199107
0.230571
0.254687
0.272408
0.285479
0.295105
0.302126
0.30713
0.310397
0.311995
0.311943
-0.0580318
-0.0447278
-0.0254417
-0.00258932
0.0230621
0.0519824
0.0841862
0.119533
0.157706
0.198175
0.234927
0.26311
0.284155
0.300164
0.312552
0.322287
0.330024
0.33603
0.340102
0.341093
-0.142553
-0.115144
-0.084059
-0.0508167
-0.015454
0.0222858
0.0625832
0.105438
0.150694
0.198043
0.240941
0.274135
0.299374
0.319105
0.334926
0.34794
0.358846
0.368386
0.376741
0.378222
-0.205048
-0.174748
-0.135861
-0.094433
-0.0508819
-0.0052442
0.0424898
0.0923126
0.144167
0.197879
0.246284
0.283656
0.312061
0.334242
0.351933
0.366289
0.378101
0.387876
0.395082
0.396574
-0.2528
-0.220444
-0.177238
-0.130527
-0.0812304
-0.0295984
0.0241583
0.0798915
0.137472
0.196729
0.249843
0.290607
0.321299
0.344929
0.363449
0.378193
0.390116
0.399842
0.40711
0.408697
-0.289028
-0.256218
-0.210187
-0.159919
-0.10663
-0.0506083
0.00781664
0.0683702
0.130842
0.195012
0.252344
0.296044
0.328599
0.353346
0.372466
0.387466
0.399405
0.408975
0.41599
0.41759
-0.318027
-0.285092
-0.237367
-0.184542
-0.128217
-0.0687975
-0.00667967
0.0577861
0.124344
0.19277
0.253911
0.300347
0.334669
0.360465
0.380147
0.395382
0.407362
0.416852
0.423717
0.425319
-0.342241
-0.309205
-0.260331
-0.205714
-0.147132
-0.085072
-0.0200472
0.0475587
0.117541
0.189783
0.254608
0.303855
0.340061
0.367022
0.387359
0.402914
0.414999
0.424446
0.431183
0.432792
-0.363375
-0.330096
-0.280257
-0.224263
-0.163963
-0.0999043
-0.0326217
0.0374817
0.110309
0.185989
0.254495
0.306806
0.34518
0.373544
0.394715
0.410707
0.422982
0.432449
0.439109
0.440725
-0.382157
-0.348586
-0.298007
-0.240877
-0.179212
-0.113606
-0.04463
0.0273514
0.102441
0.181206
0.253505
0.309289
0.350281
0.380412
0.402669
0.419271
0.431828
0.441387
0.447986
0.449592
-0.399327
-0.365354
-0.314029
-0.255979
-0.193238
-0.126474
-0.0562855
0.0170005
0.0937677
0.175236
0.251488
0.3113
0.355512
0.387896
0.411585
0.429015
0.441986
0.45171
0.458297
0.459894
-0.414932
-0.380561
-0.328647
-0.269807
-0.206214
-0.138622
-0.0676781
0.00634372
0.0841514
0.167869
0.248213
0.312737
0.360934
0.396203
0.421766
0.440312
0.453873
0.463815
0.47043
0.472105
-0.429383
-0.394599
-0.342003
-0.282495
-0.218261
-0.150117
-0.0788332
-0.00465352
0.0734978
0.158874
0.243399
0.313394
0.366517
0.405463
0.433471
0.453489
0.467862
0.478199
0.484714
0.486539
-0.442697
-0.407631
-0.354307
-0.294171
-0.229432
-0.16098
-0.0897239
-0.0159521
0.0617693
0.148051
0.236702
0.313005
0.372159
0.41575
0.446892
0.468833
0.484256
0.495075
0.501744
0.503503
-0.454982
-0.419288
-0.365636
-0.304921
-0.239751
-0.171188
-0.100288
-0.0274772
0.048981
0.135225
0.227759
0.311226
0.37767
0.427066
0.4622
0.486595
0.503376
0.514828
0.521667
0.523397
-0.466342
-0.430268
-0.375947
-0.314739
-0.249237
-0.180701
-0.110446
-0.0391018
0.035221
0.120274
0.216189
0.307643
0.382796
0.439349
0.479445
0.506914
0.525454
0.537766
0.544846
0.546382
-0.476938
-0.440313
-0.385375
-0.323664
-0.257879
-0.189482
-0.120089
-0.0506872
0.0206234
0.103144
0.201621
0.301816
0.387244
0.452388
0.498584
0.529873
0.550588
0.563996
0.571386
0.572611
-0.486673
-0.449468
-0.393932
-0.331732
-0.265693
-0.197494
-0.129122
-0.0620487
0.00536732
0.0838569
0.183692
0.293257
0.390617
0.465948
0.519322
0.55528
0.578615
0.593237
0.600884
0.60175
-0.495609
-0.457833
-0.401681
-0.338984
-0.272696
-0.204721
-0.137458
-0.0730179
-0.010321
0.0624946
0.162108
0.281499
0.392655
0.4795
0.541147
0.58296
0.609726
0.625583
0.633009
0.633176
-0.503933
-0.465465
-0.40869
-0.345475
-0.278919
-0.211157
-0.145027
-0.0834257
-0.0261708
0.0392111
0.136591
0.266007
0.392803
0.492674
0.563626
0.612177
0.643812
0.661266
0.666862
0.665441
-0.511599
-0.472452
-0.414983
-0.351242
-0.284406
-0.216808
-0.151777
-0.0931149
-0.0419132
0.0142535
0.106855
0.246308
0.390739
0.505233
0.585726
0.641295
0.679731
0.701777
0.703746
0.696535
-0.518817
-0.478865
-0.420617
-0.356356
-0.289232
-0.221733
-0.157736
-0.102067
-0.0575081
-0.0125402
0.0721592
0.22115
0.386296
0.517505
0.605806
0.66704
0.713051
0.747517
0.754078
0.733626
-0.525597
-0.484693
-0.425652
-0.360956
-0.293553
-0.226076
-0.163053
-0.110465
-0.0733189
-0.0424502
0.0298249
0.186881
0.378212
0.529749
0.62246
0.683538
0.729829
0.760662
0.760608
0.731405
-0.53179
-0.489795
-0.429979
-0.365038
-0.297289
-0.229731
-0.167637
-0.118007
-0.0887822
-0.0749081
-0.0206564
0.141048
0.366442
0.544973
0.632459
0.675166
0.704836
0.707196
0.638127
0.590473
-0.53694
-0.493807
-0.433207
-0.368157
-0.300019
-0.232439
-0.171354
-0.124456
-0.103473
-0.109719
-0.0816829
0.0806593
0.348543
0.55925
0.635452
0.638862
0.643441
0.590339
0.50058
0.442576
-0.588041
-0.494537
-0.436345
-0.371066
-0.302723
-0.235075
-0.174022
-0.129261
-0.116629
-0.147215
-0.156716
0.000715902
0.314799
0.573612
0.636115
0.593909
0.531725
0.437697
0.327979
0.268311
-0.51288
-0.4958
-0.440627
-0.374901
-0.305982
-0.23755
-0.177289
-0.135971
-0.135676
-0.207889
-0.305414
-0.199656
0.212747
0.544616
0.594192
0.393385
0.207046
0.0863987
-0.0251526
0.0372288
-0.539273
-0.502571
-0.444891
-0.378788
-0.309041
-0.239821
-0.178676
-0.13844
-0.145084
-0.245915
-0.426904
-0.425305
0.0217747
0.428999
0.39842
0.140293
-0.082534
-0.23254
-0.38132
-0.269032
-0.553401
-0.511961
-0.451062
-0.383646
-0.312583
-0.242159
-0.179754
-0.139652
-0.151579
-0.284379
-0.587901
-0.765906
-0.264798
0.158317
0.0926362
-0.201201
-0.431169
-0.61317
-0.830215
-0.674887
-0.565949
-0.520798
-0.457412
-0.388058
-0.315401
-0.243506
-0.179736
-0.139154
-0.155033
-0.317961
-0.78504
-1.24483
-0.678247
-0.234463
-0.324547
-0.598032
-0.861266
-1.09116
-1.39647
-1.29263
-0.576325
-0.528976
-0.463613
-0.39231
-0.317891
-0.244214
-0.178642
-0.136482
-0.154089
-0.340241
-0.977999
-1.77967
-1.21366
-0.691652
-0.762948
-0.989712
-1.30021
-1.61073
-2.04531
-2.31801
-0.585416
-0.536892
-0.469944
-0.396794
-0.320434
-0.24466
-0.176667
-0.131759
-0.148089
-0.349281
-1.13205
-2.19137
-1.65545
-1.12943
-1.14216
-1.31252
-1.60861
-1.94358
-2.15777
-2.62827
-0.594542
-0.544982
-0.476643
-0.401675
-0.323226
-0.245032
-0.173961
-0.125061
-0.136421
-0.345342
-1.2196
-2.4029
-1.92297
-1.47883
-1.45992
-1.57237
-1.69584
-1.90276
-2.05117
-2.09706
-0.604085
-0.553577
-0.483856
-0.407037
-0.326386
-0.245416
-0.170711
-0.116327
-0.118648
-0.316943
-1.18737
-2.34566
-1.95467
-1.64239
-1.69396
-1.84774
-1.72594
-1.67286
-1.82789
-1.8584
-0.614548
-0.563007
-0.491785
-0.413051
-0.330024
-0.246004
-0.167101
-0.105839
-0.0948524
-0.256971
-1.009
-1.97087
-1.71182
-1.65696
-1.88931
-2.24547
-2.0605
-1.73101
-1.87484
-2.00242
-0.626568
-0.573669
-0.500772
-0.419989
-0.334418
-0.247105
-0.163462
-0.0942834
-0.0664951
-0.175316
-0.712152
-1.35636
-1.26953
-1.45548
-2.01501
-2.95147
-3.51691
-3.3126
-2.96617
-2.84703
-0.640425
-0.585961
-0.511181
-0.428179
-0.33991
-0.249078
-0.160413
-0.082657
-0.0356151
-0.0816631
-0.374077
-0.701933
-0.755564
-1.09596
-1.93423
-3.37817
-4.6481
-4.46868
-3.88204
-3.56715
-0.656431
-0.600228
-0.523368
-0.437961
-0.346826
-0.252389
-0.15843
-0.0716437
-0.00512068
0.00962627
-0.0758877
-0.153437
-0.249536
-0.582904
-1.29362
-2.32405
-3.14117
-3.10995
-2.7364
-2.52036
-0.674892
-0.616865
-0.537644
-0.449626
-0.355473
-0.257251
-0.15799
-0.0625878
0.0223876
0.0875923
0.135098
0.192484
0.158083
-0.00130569
-0.28768
-0.60942
-0.84489
-0.860902
-0.77662
-0.736804
-0.696087
-0.636053
-0.554184
-0.463329
-0.366061
-0.264118
-0.159703
-0.0556747
0.0456143
0.147284
0.263672
0.383708
0.427643
0.414709
0.36181
0.322835
0.339831
0.38265
0.404403
0.408927
-0.719858
-0.657787
-0.572956
-0.479144
-0.378616
-0.272756
-0.163276
-0.0514024
0.0632807
0.189934
0.338914
0.486059
0.582624
0.648954
0.702856
0.759672
0.820539
0.868623
0.891122
0.894437
-0.745325
-0.681297
-0.593537
-0.496552
-0.392675
-0.283073
-0.168864
-0.0500513
0.0753069
0.218689
0.383612
0.542562
0.665553
0.764301
0.848047
0.922288
0.986836
1.03465
1.05971
1.06464
-0.771754
-0.706035
-0.615096
-0.514953
-0.407751
-0.294483
-0.17585
-0.0513956
0.0820086
0.236267
0.408172
0.569157
0.700036
0.805405
0.891981
0.964183
1.02308
1.06722
1.09298
1.09863
-0.797107
-0.72973
-0.636366
-0.532942
-0.422523
-0.305951
-0.183617
-0.0547118
0.0848524
0.245133
0.418463
0.575599
0.704335
0.807065
0.888978
0.954571
1.00719
1.04701
1.0732
1.07883
-0.818069
-0.750138
-0.654776
-0.548653
-0.435485
-0.316195
-0.19098
-0.0586585
0.0848391
0.247852
0.418918
0.569213
0.691623
0.788834
0.865567
0.926341
0.974548
1.01199
1.03493
1.04144
-0.831861
-0.764396
-0.667614
-0.559381
-0.444398
-0.323341
-0.196267
-0.0620139
0.0829949
0.246175
0.411938
0.554566
0.669645
0.760981
0.833252
0.890534
0.93605
0.97165
0.993662
1.00032
-0.834449
-0.767978
-0.671447
-0.56231
-0.446518
-0.325119
-0.197892
-0.0637824
0.0803133
0.239947
0.398766
0.533304
0.640825
0.726598
0.794847
0.8492
0.892606
0.926559
0.94807
0.954935
-0.819092
-0.75577
-0.661433
-0.553216
-0.439042
-0.319564
-0.194508
-0.0631053
0.0771062
0.230424
0.380011
0.505587
0.605352
0.685442
0.749755
0.801383
0.842976
0.875424
0.896764
0.903943
-0.778073
-0.720233
-0.631675
-0.527715
-0.418191
-0.303991
-0.184751
-0.0596296
0.073398
0.217353
0.355587
0.470803
0.561975
0.6356
0.695431
0.744016
0.783424
0.814728
0.835687
0.843292
-0.706697
-0.658312
-0.575937
-0.481213
-0.381178
-0.276638
-0.167281
-0.0523115
0.0697261
0.200911
0.325737
0.428042
0.508928
0.574207
0.627707
0.67185
0.707812
0.736557
0.757367
0.764896
-0.596227
-0.560648
-0.49114
-0.411007
-0.326099
-0.23628
-0.141128
-0.0402127
0.0672895
0.182416
0.290714
0.377831
0.445701
0.499424
0.542635
0.57822
0.607693
0.63089
0.646532
0.651474
-0.430353
-0.412808
-0.369476
-0.314234
-0.252479
-0.183418
-0.107287
-0.02365
0.0677251
0.167014
0.260643
0.335198
0.392247
0.436329
0.470454
0.49648
0.516208
0.532091
0.544193
0.547649
-0.260731
-0.255333
-0.235544
-0.206705
-0.169388
-0.123206
-0.0677475
-0.0028937
0.0713205
0.154429
0.233811
0.296787
0.344136
0.379291
0.405015
0.42377
0.437299
0.446093
0.450881
0.451949
-0.13425
-0.132441
-0.125142
-0.112081
-0.0924102
-0.0646066
-0.0272344
0.0203873
0.0783099
0.145798
0.211465
0.263414
0.301746
0.3295
0.34913
0.362262
0.370373
0.375134
0.377552
0.377895
-0.0513473
-0.0518984
-0.0508591
-0.0456094
-0.0348885
-0.0176504
0.00744807
0.0417359
0.0858517
0.139368
0.192612
0.234826
0.265552
0.287079
0.301485
0.310778
0.316486
0.319521
0.320596
0.320639
-0.00269918
-0.00338758
-0.00374122
-0.00178939
0.00405213
0.0151504
0.032759
0.0579753
0.0916085
0.133601
0.17605
0.209752
0.234062
0.250938
0.262211
0.269286
0.273284
0.27521
0.275859
0.275887
0.0265362
0.0262494
0.0262159
0.027641
0.0314978
0.038892
0.0511931
0.0697001
0.0952994
0.128086
0.161731
0.188541
0.207808
0.221009
0.229589
0.234856
0.237861
0.239351
0.239888
0.239932
0.0457444
0.0456348
0.0457211
0.0468193
0.0496654
0.0551074
0.064158
0.0779281
0.0973785
0.122816
0.149255
0.170381
0.185486
0.195765
0.20244
0.206538
0.20885
0.209977
0.210384
0.210419
0.0581615
0.0581463
0.0583319
0.0592471
0.0614033
0.0654561
0.0722397
0.0826745
0.0975773
0.1173
0.137996
0.154589
0.166449
0.174504
0.179707
0.182883
0.184677
0.185554
0.185881
0.185909
0.0659486
0.0659759
0.0662036
0.0669857
0.0686937
0.0718133
0.0769766
0.0849271
0.0963692
0.11166
0.127819
0.140808
0.150088
0.156375
0.160429
0.162904
0.1643
0.164987
0.165239
0.165258
0.0703842
0.0704218
0.0706411
0.0712882
0.072636
0.0750547
0.0790308
0.0851443
0.0939689
0.105824
0.118415
0.128562
0.135811
0.140719
0.143883
0.145811
0.146898
0.147431
0.147625
0.147638
0.072306
0.0723431
0.0725345
0.0730589
0.0741228
0.0760051
0.0790792
0.083799
0.0906198
0.0998165
0.109622
0.117535
0.123192
0.127021
0.129485
0.130983
0.131825
0.132236
0.132385
0.132394
0.0722999
0.0723322
0.0724906
0.072909
0.0737437
0.0752101
0.0775946
0.0812482
0.0865315
0.0936683
0.101295
0.10746
0.111866
0.114848
0.116765
0.117931
0.118584
0.118901
0.119013
0.119018
0.0708021
0.0708285
0.0709551
0.0712845
0.0719371
0.073078
0.0749286
0.077761
0.0818569
0.0873978
0.0933292
0.0981275
0.101557
0.103876
0.105365
0.106268
0.106773
0.107017
0.107102
0.107106
0.0681447
0.0681661
0.0682667
0.068525
0.0690335
0.0699202
0.0713568
0.073554
0.0767305
0.0810305
0.0856375
0.0893666
0.0920335
0.0938369
0.0949953
0.0956965
0.0960862
0.0962719
0.0963356
0.0963377
0.0645893
0.0646059
0.0646842
0.064885
0.0652809
0.0659702
0.0670848
0.0687879
0.0712505
0.0745871
0.0781654
0.0810635
0.0831352
0.0845335
0.0854295
0.0859709
0.0862718
0.0864155
0.0864649
0.0864661
0.0603346
0.0603476
0.0604088
0.060565
0.0608719
0.0614058
0.0622693
0.0635893
0.0654987
0.0680858
0.0708602
0.0731064
0.0747113
0.075795
0.0764892
0.0769083
0.0771403
0.0772505
0.077287
0.0772877
0.0555397
0.0555496
0.0555965
0.0557169
0.0559539
0.0563669
0.0570351
0.0580564
0.0595333
0.0615341
0.0636824
0.0654211
0.0666626
0.0675012
0.068039
0.0683628
0.0685406
0.0686237
0.0686511
0.0686512
0.0503249
0.0503324
0.0503681
0.0504606
0.0506436
0.0509621
0.0514771
0.0522649
0.0534049
0.0549503
0.0566097
0.0579535
0.0589128
0.0595595
0.0599713
0.0602177
0.0603534
0.0604168
0.0604375
0.0604372
0.0447873
0.0447929
0.0448199
0.04489
0.0450292
0.0452729
0.0456684
0.046273
0.0471487
0.0483366
0.0496104
0.0506422
0.0513793
0.0518747
0.0521901
0.05238
0.0524838
0.0525317
0.052547
0.0525466
0.0389991
0.0390032
0.0390232
0.0390761
0.0391813
0.0393669
0.039669
0.0401313
0.0407997
0.0417057
0.0426777
0.0434633
0.0440218
0.044397
0.0446367
0.0447805
0.0448597
0.0448967
0.0449084
0.0449081
0.0330201
0.0330229
0.0330377
0.033078
0.0331574
0.0332965
0.0335227
0.0338694
0.034372
0.0350538
0.0357846
0.0363756
0.0367977
0.0370813
0.037262
0.0373692
0.0374266
0.0374526
0.037458
0.0374576
0.0268978
0.0268995
0.0269097
0.026938
0.0269957
0.0270982
0.0272647
0.0275194
0.0278888
0.028391
0.0289311
0.0293676
0.0296783
0.029885
0.0300144
0.0300914
0.0301326
0.0301503
0.0301533
0.0301533
0.0206681
0.0206688
0.0206747
0.0206937
0.0207344
0.0208068
0.0209243
0.021105
0.021367
0.0217225
0.0221033
0.0224096
0.0226261
0.0227713
0.0228623
0.0229146
0.0229412
0.0229516
0.0229539
0.0229541
0.0143609
0.0143615
0.0143656
0.0143786
0.0144057
0.0144523
0.014528
0.0146447
0.0148145
0.0150449
0.0152932
0.0154925
0.0156347
0.0157297
0.015788
0.0158197
0.0158349
0.0158396
0.015839
0.015839
0.00799855
0.00799899
0.00800237
0.00801023
0.0080241
0.00804883
0.00808954
0.00815163
0.00824064
0.00836112
0.00849516
0.0085998
0.00867365
0.00872175
0.00875254
0.0087708
0.00877811
0.00877746
0.00877495
0.00877496
0.00160301
0.00160215
0.00159939
0.00159817
0.0015997
0.00160379
0.0016104
0.0016207
0.00163632
0.00165822
0.0016854
0.00171126
0.00172914
0.00174139
0.00174979
0.0017545
0.00175663
0.00175748
0.00175692
0.00175597
-0.94315
-0.605847
-0.268333
-0.00373628
0.203836
0.370407
0.513188
0.637182
0.696608
0.672049
-0.367521
-0.163951
0.03473
0.202677
0.343414
0.46112
0.557842
0.627376
0.6613
0.663923
-0.0121339
0.113916
0.239116
0.349458
0.444309
0.523723
0.586716
0.630321
0.657055
0.666837
0.21431
0.295829
0.378849
0.454066
0.52014
0.575742
0.6195
0.65082
0.672401
0.683988
0.371647
0.426351
0.485658
0.540914
0.588709
0.628694
0.660485
0.684898
0.703081
0.715914
0.489001
0.529606
0.574703
0.616126
0.652841
0.684605
0.711457
0.733144
0.748713
0.762845
0.584567
0.616977
0.655199
0.690555
0.723368
0.752569
0.777186
0.796838
0.810107
0.825487
0.672576
0.705005
0.74195
0.776868
0.808394
0.835944
0.859144
0.877265
0.888881
0.905195
0.767794
0.804093
0.843366
0.878442
0.90963
0.936471
0.958571
0.975259
0.986037
1.00318
0.88407
0.923979
0.963901
0.999258
1.02905
1.05413
1.07448
1.09003
1.10109
1.11923
1.03
1.07025
1.1064
1.1375
1.16352
1.1858
1.20499
1.2205
1.23303
1.2511
1.20542
1.238
1.26416
1.28676
1.30705
1.32593
1.34365
1.36035
1.37623
1.39441
1.39363
1.41158
1.42735
1.44396
1.46016
1.47482
1.48793
1.50196
1.51919
1.53882
1.57582
1.58665
1.59892
1.60989
1.61929
1.62888
1.6397
1.65131
1.66131
1.67651
1.78648
1.78849
1.77345
1.7585
1.75228
1.75794
1.77664
1.80705
1.83911
1.86981
2.09298
1.95606
1.87965
1.83711
1.81953
1.82379
1.85099
1.90719
2.0109
2.22627
0.359984
0.356771
0.351262
0.342063
0.329739
0.318036
0.308446
0.30116
0.295991
0.292923
0.292406
0.294656
0.299068
0.305475
0.314037
0.324861
0.337237
0.348551
0.355436
0.359854
0.276973
0.283046
0.290889
0.297068
0.300868
0.30153
0.299593
0.296313
0.293062
0.290777
0.290395
0.292267
0.295423
0.299025
0.301941
0.302781
0.30058
0.295496
0.288569
0.280818
0.269672
0.271835
0.276388
0.280519
0.283417
0.285447
0.28654
0.286737
0.286264
0.285763
0.285814
0.286493
0.287387
0.287839
0.287401
0.285941
0.283567
0.280129
0.275562
0.27195
0.270507
0.271084
0.273437
0.276491
0.279094
0.280946
0.28215
0.282781
0.282956
0.28292
0.283093
0.283584
0.283925
0.283785
0.28302
0.281682
0.279527
0.276738
0.273867
0.272416
0.270455
0.270609
0.271201
0.272193
0.273267
0.274547
0.275792
0.276763
0.27741
0.277829
0.278166
0.278387
0.278333
0.277873
0.276978
0.275816
0.274748
0.273775
0.272959
0.27263
0.268185
0.268257
0.268659
0.269353
0.270117
0.270899
0.27165
0.272355
0.272984
0.273516
0.273939
0.274201
0.274182
0.273913
0.273471
0.2729
0.272244
0.271575
0.271045
0.270848
0.265271
0.265299
0.265452
0.265766
0.266193
0.266733
0.267363
0.268041
0.268719
0.269367
0.26992
0.270223
0.270253
0.270074
0.269765
0.269399
0.269057
0.268757
0.268555
0.268485
0.261623
0.261643
0.261734
0.261922
0.262195
0.262561
0.263023
0.263582
0.26422
0.264911
0.26557
0.266032
0.266243
0.266269
0.266192
0.266066
0.265923
0.26579
0.265696
0.26566
0.257607
0.257618
0.257689
0.257831
0.258046
0.258351
0.258766
0.259306
0.259975
0.260763
0.261581
0.262219
0.262599
0.262786
0.262854
0.262854
0.262823
0.262782
0.26275
0.262735
0.25332
0.253327
0.253382
0.2535
0.253687
0.253968
0.254372
0.254929
0.255664
0.256583
0.2576
0.258456
0.259034
0.259393
0.259604
0.259718
0.259774
0.259796
0.259802
0.2598
0.248766
0.248769
0.248823
0.248935
0.249123
0.249415
0.249851
0.250475
0.251328
0.252438
0.253714
0.254838
0.25563
0.25617
0.256513
0.256725
0.25685
0.256918
0.256951
0.256957
0.243918
0.243919
0.243974
0.244097
0.244306
0.244639
0.245144
0.245881
0.246911
0.248278
0.249888
0.251342
0.2524
0.253128
0.253611
0.25392
0.25411
0.254219
0.254274
0.254288
0.238731
0.238731
0.238795
0.238938
0.239185
0.239584
0.240196
0.241098
0.242372
0.244082
0.246119
0.247979
0.249348
0.250306
0.250949
0.251365
0.251623
0.251775
0.251853
0.251873
0.233126
0.233125
0.233203
0.233379
0.233685
0.23418
0.234942
0.23607
0.237669
0.239825
0.242405
0.244775
0.246528
0.247759
0.248589
0.24913
0.249468
0.249667
0.24977
0.249798
0.227002
0.227
0.227099
0.227321
0.227708
0.228332
0.229296
0.230724
0.23275
0.235481
0.238755
0.241762
0.24399
0.245558
0.246617
0.247307
0.247739
0.247995
0.248127
0.248163
0.220218
0.220216
0.220343
0.220628
0.221122
0.221921
0.223152
0.224973
0.227553
0.231026
0.235179
0.238988
0.241807
0.24379
0.24513
0.246005
0.246552
0.246876
0.247043
0.247088
0.212587
0.212584
0.212749
0.213118
0.213757
0.214787
0.216371
0.218707
0.222006
0.22643
0.231697
0.236512
0.240067
0.242566
0.244254
0.245354
0.246043
0.246451
0.246663
0.24672
0.203855
0.203852
0.204069
0.204551
0.205385
0.206724
0.208775
0.211789
0.216022
0.221665
0.228342
0.234414
0.238884
0.242021
0.244139
0.24552
0.246385
0.246897
0.247163
0.247233
0.193678
0.193676
0.193966
0.194605
0.195705
0.197462
0.200139
0.204048
0.209499
0.216705
0.225158
0.232795
0.238398
0.242325
0.244976
0.246704
0.247785
0.248427
0.248758
0.248846
0.181579
0.181578
0.181975
0.182839
0.18431
0.18664
0.190168
0.195275
0.202323
0.211528
0.222205
0.231775
0.238771
0.24367
0.24698
0.24914
0.250495
0.251299
0.251715
0.251824
0.166874
0.166878
0.16744
0.168636
0.17064
0.173781
0.178491
0.185222
0.194373
0.206133
0.219569
0.231499
0.240193
0.246286
0.250413
0.253114
0.254815
0.255831
0.256359
0.256495
0.148559
0.148581
0.149415
0.151125
0.153918
0.158244
0.164642
0.173615
0.185549
0.200546
0.217358
0.232123
0.242864
0.250419
0.255567
0.258958
0.261111
0.262411
0.263096
0.263272
0.125102
0.125183
0.1265
0.129042
0.133072
0.139228
0.148122
0.160227
0.175824
0.19486
0.215715
0.233815
0.246977
0.256306
0.262739
0.267034
0.269799
0.271502
0.272425
0.272669
0.0939546
0.094206
0.0964616
0.100488
0.106691
0.115875
0.128554
0.145018
0.165348
0.189289
0.214836
0.236733
0.252681
0.264128
0.272183
0.277699
0.281344
0.283652
0.284948
0.285309
0.050343
0.0510573
0.0555244
0.0627449
0.0731964
0.0875378
0.105882
0.128248
0.154485
0.184155
0.214935
0.240986
0.26002
0.273911
0.283977
0.291154
0.296144
0.299481
0.301471
0.302009
-0.0141801
-0.0116715
-0.00122453
0.0132586
0.0318417
0.0543805
0.0806467
0.110519
0.143717
0.179755
0.216105
0.246491
0.268778
0.285341
0.29775
0.307069
0.314033
0.319204
0.322642
0.323271
-0.0928802
-0.087192
-0.0674404
-0.0411484
-0.0120931
0.0198057
0.0546323
0.0923829
0.132896
0.175849
0.218609
0.254386
0.281039
0.301423
0.317341
0.329991
0.340212
0.348565
0.353634
0.355741
-0.171662
-0.158507
-0.128739
-0.0925094
-0.0538539
-0.0130049
0.0300305
0.0753296
0.122892
0.172569
0.221668
0.262765
0.293554
0.317344
0.336207
0.35145
0.363899
0.374129
0.38145
0.385294
-0.227004
-0.213011
-0.178438
-0.135888
-0.0903635
-0.0425545
0.00738765
0.0593588
0.11328
0.169028
0.223709
0.269225
0.303159
0.32918
0.349544
0.365698
0.378603
0.388956
0.396311
0.399909
-0.269303
-0.255109
-0.217157
-0.170559
-0.120512
-0.0677238
-0.0125756
0.0446965
0.103914
0.164916
0.224533
0.273907
0.310387
0.338007
0.35931
0.375973
0.389109
0.399495
0.406923
0.410536
-0.301918
-0.287947
-0.248339
-0.198951
-0.145616
-0.0891909
-0.0300271
0.0315277
0.0951777
0.160717
0.224696
0.277499
0.316224
0.345227
0.367319
0.384368
0.397651
0.408031
0.415492
0.419098
-0.32867
-0.314841
-0.274118
-0.222856
-0.167119
-0.107848
-0.0455291
0.019407
0.086668
0.156071
0.224012
0.280123
0.321092
0.351513
0.374426
0.391908
0.405377
0.415801
0.423337
0.426944
-0.351498
-0.337705
-0.296091
-0.243445
-0.185944
-0.124554
-0.0597953
0.00784204
0.0780659
0.150823
0.2225
0.281998
0.32541
0.357444
0.381335
0.399356
0.413096
0.423614
0.43124
0.434838
-0.371585
-0.357808
-0.315362
-0.261599
-0.202707
-0.139669
-0.0730507
-0.00335315
0.0692069
0.144817
0.220076
0.283191
0.32942
0.363406
0.38853
0.407273
0.421392
0.432089
0.439784
0.443425
-0.389632
-0.375788
-0.332746
-0.277957
-0.217939
-0.153607
-0.0855961
-0.0143964
0.0598973
0.137863
0.21657
0.283666
0.333244
0.369661
0.396381
0.416082
0.430725
0.441674
0.449478
0.453143
-0.406135
-0.392116
-0.348496
-0.292839
-0.231897
-0.166593
-0.0975902
-0.0254129
0.0500015
0.129764
0.211772
0.283295
0.336902
0.376389
0.405176
0.426151
0.441514
0.452819
0.460807
0.464504
-0.421288
-0.407108
-0.362774
-0.306491
-0.244762
-0.178736
-0.109108
-0.0364511
0.0394519
0.120359
0.205416
0.281859
0.340337
0.383682
0.415147
0.437798
0.454134
0.465938
0.474116
0.477838
-0.435308
-0.420931
-0.375881
-0.318964
-0.256642
-0.190101
-0.120176
-0.0475142
0.0282227
0.109519
0.197223
0.279056
0.343385
0.391565
0.426454
0.451294
0.468903
0.481385
0.489831
0.493576
-0.448218
-0.433602
-0.388041
-0.330432
-0.267594
-0.200693
-0.130755
-0.0585411
0.0163424
0.097157
0.186902
0.274536
0.345806
0.399982
0.439221
0.466862
0.486115
0.499473
0.50829
0.512119
-0.460206
-0.445264
-0.399182
-0.340954
-0.277648
-0.210519
-0.140786
-0.0694367
0.00390953
0.0832399
0.174187
0.267897
0.347291
0.408804
0.453488
0.484695
0.506037
0.520517
0.52981
0.533759
-0.471238
-0.456092
-0.409325
-0.350555
-0.286821
-0.21956
-0.150208
-0.0800703
-0.00895392
0.0678038
0.158833
0.2587
0.347479
0.417833
0.469243
0.504872
0.528817
0.544662
0.554555
0.558563
-0.481476
-0.46605
-0.418598
-0.359275
-0.295138
-0.227799
-0.158958
-0.0903112
-0.0220445
0.0509405
0.140642
0.246498
0.345937
0.426854
0.48628
0.527234
0.554442
0.572009
0.582624
0.586624
-0.490836
-0.475137
-0.427025
-0.367147
-0.302622
-0.235223
-0.166975
-0.100033
-0.0351655
0.032835
0.11948
0.230835
0.342287
0.435437
0.504089
0.551502
0.582774
0.602438
0.613787
0.617621
-0.499513
-0.483511
-0.434692
-0.374242
-0.309319
-0.241861
-0.174216
-0.109111
-0.0481016
0.0137156
0.0952975
0.211196
0.336113
0.44314
0.522277
0.577153
0.613517
0.635897
0.647272
0.650147
-0.507527
-0.491154
-0.441661
-0.380598
-0.315259
-0.247726
-0.180654
-0.117431
-0.060627
-0.00615876
0.0681026
0.187188
0.326962
0.449729
0.540104
0.603148
0.646204
0.673153
0.684089
0.682772
-0.515007
-0.498281
-0.447957
-0.386256
-0.320504
-0.252854
-0.186286
-0.124922
-0.0725348
-0.0264783
0.0380362
0.158202
0.314343
0.455098
0.557362
0.627457
0.677449
0.712699
0.728428
0.716489
-0.522001
-0.504905
-0.453634
-0.391306
-0.325181
-0.257376
-0.191248
-0.131742
-0.0840846
-0.0479596
0.00313794
0.121281
0.296249