/*--------------------------------*- C++ -*----------------------------------*\
| =========                 |                                                 |
| \\      /  F ield         | OpenFOAM: The Open Source CFD Toolbox           |
|  \\    /   O peration     | Version:  2306                                  |
|   \\  /    A nd           | Website:  www.openfoam.com                      |
|    \\/     M anipulation  |                                                 |
\*---------------------------------------------------------------------------*/
FoamFile
{
    version     2.0;
    format      ascii;
    arch        "LSB;label=32;scalar=64";
    class       volVectorField;
    location    "6";
    object      U;
}
// * * * * * * * * * * * * * * * * * * * * * * * * * * * * * * * * * * * * * //

dimensions      [0 1 -1 0 0 0 0];

internalField   nonuniform List<vector> 
8800
(
(0.984795 -0.088321 0)
(1.00194 -0.0566407 0)
(0.999959 -0.0304806 0)
(0.999705 -0.0155869 0)
(0.999208 -0.0084282 0)
(0.999639 -0.00501373 0)
(0.99987 -0.00313036 0)
(0.999981 -0.00186348 0)
(1.00004 -0.000886965 0)
(1.00005 -0.000102642 0)
(1.00004 0.000563642 0)
(1.00002 0.00143128 0)
(0.999931 0.00256366 0)
(0.999785 0.00403452 0)
(0.999437 0.00650288 0)
(0.999299 0.0113822 0)
(1.00005 0.0218745 0)
(0.999171 0.0409522 0)
(1.00719 0.0768787 0)
(0.773702 0.0450628 0)
(0.363037 -0.0147193 0)
(1.04709 -0.072694 0)
(1.08657 -0.0654279 0)
(1.04639 -0.0489748 0)
(1.0239 -0.0354323 0)
(1.01208 -0.0234139 0)
(1.00598 -0.0144848 0)
(1.00288 -0.00857935 0)
(1.00149 -0.0047132 0)
(1.00107 -0.00184408 0)
(1.00107 0.000862825 0)
(1.00115 0.00351309 0)
(1.00199 0.00675705 0)
(1.00408 0.0114915 0)
(1.0085 0.0187544 0)
(1.01716 0.0292983 0)
(1.03348 0.0423451 0)
(1.06428 0.0564084 0)
(1.09419 0.07096 0)
(0.844244 0.0548459 0)
(0.225628 -0.00130803 0)
(1.08047 -0.0442043 0)
(1.10208 -0.042669 0)
(1.06579 -0.0346833 0)
(1.04042 -0.0280461 0)
(1.02357 -0.0216512 0)
(1.01331 -0.0158082 0)
(1.00785 -0.0104003 0)
(1.0053 -0.00558722 0)
(1.00445 -0.000850991 0)
(1.00463 0.00386001 0)
(1.00624 0.0084559 0)
(1.01003 0.0134567 0)
(1.01763 0.0190771 0)
(1.03079 0.0250378 0)
(1.05164 0.0315435 0)
(1.0824 0.0386609 0)
(1.10967 0.0451919 0)
(0.951811 0.0363247 0)
(0.225402 0.00131566 0)
(0.196914 5.29312e-05 0)
(1.0317 -0.0203221 0)
(1.10042 -0.0278608 0)
(1.07206 -0.0282536 0)
(1.04733 -0.0260659 0)
(1.03179 -0.0226306 0)
(1.02142 -0.0178829 0)
(1.01476 -0.0124897 0)
(1.01077 -0.00674763 0)
(1.00902 -0.000936473 0)
(1.00955 0.00476714 0)
(1.01228 0.0104875 0)
(1.01744 0.0159336 0)
(1.02579 0.0209289 0)
(1.03839 0.024876 0)
(1.058 0.0276253 0)
(1.08791 0.0286743 0)
(1.09405 0.0257819 0)
(0.865102 0.0119427 0)
(0.196578 -4.84456e-05 0)
(0.193993 8.29017e-05 0)
(0.99373 -0.00694451 0)
(1.0828 -0.0161832 0)
(1.06757 -0.0217605 0)
(1.04864 -0.0234404 0)
(1.03476 -0.0219869 0)
(1.02519 -0.0184953 0)
(1.0186 -0.0135461 0)
(1.01427 -0.0076346 0)
(1.01223 -0.000916743 0)
(1.01283 0.00594909 0)
(1.01579 0.0120532 0)
(1.02111 0.0173333 0)
(1.02903 0.0213891 0)
(1.0405 0.0237739 0)
(1.05691 0.0235836 0)
(1.0777 0.019867 0)
(1.06639 0.0122777 0)
(0.826584 0.00256356 0)
(0.193435 -7.80779e-05 0)
(0.19327 -4.83536e-07 0)
(0.970657 -0.00364119 0)
(1.06305 -0.0105565 0)
(1.05924 -0.0161443 0)
(1.04866 -0.0186076 0)
(1.03942 -0.0183373 0)
(1.03191 -0.0162255 0)
(1.02601 -0.0125009 0)
(1.02192 -0.00744045 0)
(1.01978 -0.000680736 0)
(1.02025 0.00615872 0)
(1.02325 0.0120045 0)
(1.0281 0.016302 0)
(1.03462 0.0190624 0)
(1.04283 0.0201045 0)
(1.05277 0.018699 0)
(1.06289 0.0143324 0)
(1.04187 0.00733558 0)
(0.809975 0.00135086 0)
(0.192483 8.74861e-06 0)
(0.193057 2.88095e-05 0)
(0.95788 -0.001293 0)
(1.04803 -0.00514741 0)
(1.05017 -0.00912048 0)
(1.04495 -0.0117409 0)
(1.03898 -0.0126665 0)
(1.03343 -0.0119296 0)
(1.02866 -0.00955408 0)
(1.02543 -0.00563866 0)
(1.02346 -0.00012887 0)
(1.02381 0.00556591 0)
(1.0261 0.0101823 0)
(1.02997 0.0132411 0)
(1.03492 0.0144076 0)
(1.0404 0.013949 0)
(1.04589 0.0117673 0)
(1.04973 0.00806873 0)
(1.02542 0.00353234 0)
(0.801847 0.000508778 0)
(0.19197 -1.14809e-05 0)
(0.193181 9.74055e-06 0)
(0.952342 -0.00057345 0)
(1.03998 -0.00238067 0)
(1.04434 -0.00459213 0)
(1.0421 -0.00639848 0)
(1.03881 -0.00738846 0)
(1.0353 -0.00720142 0)
(1.03191 -0.00576705 0)
(1.02947 -0.00302263 0)
(1.02782 0.000704333 0)
(1.0279 0.00463349 0)
(1.02992 0.00750061 0)
(1.03211 0.00936999 0)
(1.0352 0.00956383 0)
(1.03827 0.00861046 0)
(1.04087 0.00677249 0)
(1.04179 0.00435466 0)
(1.01697 0.00188495 0)
(0.798041 0.000354192 0)
(0.191679 7.17831e-06 0)
(0.193198 9.73208e-06 0)
(0.94987 -0.000255485 0)
(1.03606 -0.00105509 0)
(1.04094 -0.0021175 0)
(1.0399 -0.0030979 0)
(1.03809 -0.00372048 0)
(1.03591 -0.00365358 0)
(1.03358 -0.00275663 0)
(1.03164 -0.000936026 0)
(1.03021 0.00149826 0)
(1.02997 0.00405934 0)
(1.03154 0.00570635 0)
(1.03254 0.00639939 0)
(1.0343 0.00623611 0)
(1.03596 0.00533296 0)
(1.0372 0.00399937 0)
(1.03708 0.00250163 0)
(1.01246 0.00112078 0)
(0.795797 0.000254179 0)
(0.191362 8.19574e-06 0)
(0.193342 1.53282e-05 0)
(0.948808 -8.08648e-07 0)
(1.03437 -0.000313912 0)
(1.03941 -0.000746469 0)
(1.03886 -0.00115099 0)
(1.03782 -0.00138411 0)
(1.03642 -0.0012499 0)
(1.03478 -0.000608914 0)
(1.0332 0.000616885 0)
(1.03188 0.00225271 0)
(1.03139 0.00386339 0)
(1.03222 0.00473741 0)
(1.03262 0.00474286 0)
(1.03348 0.00439513 0)
(1.03428 0.00362066 0)
(1.03483 0.00265857 0)
(1.03428 0.00167747 0)
(1.00982 0.000810227 0)
(0.79427 0.00022711 0)
(0.191059 1.20533e-05 0)
(0.193625 1.85657e-05 0)
(0.948659 0.000194878 0)
(1.03381 0.000171117 0)
(1.0389 0.000103797 0)
(1.03858 6.96046e-05 0)
(1.03789 0.00013978 0)
(1.0369 0.000415775 0)
(1.03565 0.000988597 0)
(1.03427 0.00190362 0)
(1.03296 0.00304575 0)
(1.03219 0.00402037 0)
(1.03223 0.00440618 0)
(1.03232 0.00409199 0)
(1.03261 0.0035888 0)
(1.03291 0.00287546 0)
(1.0331 0.00209874 0)
(1.03236 0.00135606 0)
(1.00798 0.000710457 0)
(0.792998 0.000235487 0)
(0.190714 1.59701e-05 0)
(0.194022 2.28128e-05 0)
(0.949086 0.000350248 0)
(1.03399 0.000535924 0)
(1.03909 0.000716002 0)
(1.03885 0.000946066 0)
(1.03831 0.00126253 0)
(1.0375 0.00171061 0)
(1.03641 0.00233186 0)
(1.03509 0.00312366 0)
(1.03367 0.00396753 0)
(1.03258 0.00451191 0)
(1.03206 0.00451129 0)
(1.03177 0.0040544 0)
(1.03168 0.00341609 0)
(1.03167 0.00268803 0)
(1.03165 0.00196525 0)
(1.0308 0.00130199 0)
(1.00644 0.000727329 0)
(0.791747 0.000269359 0)
(0.190299 2.08319e-05 0)
(0.194548 2.95453e-05 0)
(0.950036 0.000504221 0)
(1.0347 0.000862201 0)
(1.03977 0.00124428 0)
(1.03956 0.00169672 0)
(1.03905 0.00223692 0)
(1.03828 0.00287929 0)
(1.0372 0.00362045 0)
(1.0358 0.00441119 0)
(1.03415 0.00509757 0)
(1.03266 0.00535131 0)
(1.03167 0.00506112 0)
(1.03102 0.00443238 0)
(1.03063 0.00365954 0)
(1.03039 0.00285563 0)
(1.03024 0.00209483 0)
(1.0293 0.00141515 0)
(1.00492 0.000824202 0)
(0.790363 0.000324709 0)
(0.189784 2.66774e-05 0)
(0.195228 3.73679e-05 0)
(0.951454 0.000670928 0)
(1.03589 0.00119739 0)
(1.04092 0.00177594 0)
(1.04068 0.0024483 0)
(1.04014 0.00322183 0)
(1.03931 0.00408752 0)
(1.03811 0.00500803 0)
(1.03649 0.00588649 0)
(1.03448 0.00651484 0)
(1.03252 0.0065646 0)
(1.03106 0.00603819 0)
(1.03006 0.00519472 0)
(1.0294 0.00424061 0)
(1.02897 0.0032947 0)
(1.0287 0.00242299 0)
(1.02769 0.00165507 0)
(1.00324 0.000985766 0)
(0.788727 0.000400364 0)
(0.189142 3.38224e-05 0)
(0.196101 4.78691e-05 0)
(0.95338 0.000876145 0)
(1.03758 0.00158974 0)
(1.04254 0.00238229 0)
(1.04224 0.00329703 0)
(1.0416 0.00433413 0)
(1.04063 0.00546729 0)
(1.0392 0.00662695 0)
(1.03725 0.00766511 0)
(1.03474 0.00830844 0)
(1.0322 0.00819868 0)
(1.03022 0.00742768 0)
(1.02883 0.00632686 0)
(1.0279 0.00513427 0)
(1.02729 0.00398151 0)
(1.02689 0.0029345 0)
(1.02581 0.00201556 0)
(1.00126 0.00121452 0)
(0.786727 0.000501131 0)
(0.188333 4.28195e-05 0)
(0.197227 6.17104e-05 0)
(0.955914 0.00113618 0)
(1.03984 0.00207406 0)
(1.04471 0.00311951 0)
(1.04432 0.00432236 0)
(1.04353 0.00567722 0)
(1.04232 0.00714059 0)
(1.04056 0.00860812 0)
(1.03812 0.00987544 0)
(1.03495 0.0105884 0)
(1.03169 0.0103316 0)
(1.02911 0.00928097 0)
(1.02728 0.00786383 0)
(1.02603 0.00636157 0)
(1.02521 0.00492643 0)
(1.02469 0.00363234 0)
(1.02352 0.00250183 0)
(0.998842 0.0015157 0)
(0.784237 0.000629374 0)
(0.187315 5.39096e-05 0)
(0.198681 7.99744e-05 0)
(0.959208 0.00147115 0)
(1.04279 0.0026901 0)
(1.04754 0.00404994 0)
(1.04702 0.00560952 0)
(1.04602 0.00736033 0)
(1.04449 0.00923659 0)
(1.04226 0.0110959 0)
(1.03916 0.0126662 0)
(1.03514 0.0134911 0)
(1.03098 0.0130759 0)
(1.02766 0.011687 0)
(1.0253 0.00987048 0)
(1.02368 0.00796983 0)
(1.02263 0.00616825 0)
(1.02195 0.00454726 0)
(1.02069 0.00313462 0)
(0.995829 0.0019027 0)
(0.781114 0.00079182 0)
(0.186034 6.7764e-05 0)
(0.200568 0.000104248 0)
(0.96347 0.00190754 0)
(1.04662 0.00348652 0)
(1.05121 0.00524687 0)
(1.0505 0.00726073 0)
(1.04921 0.00951098 0)
(1.04724 0.01191 0)
(1.04439 0.0142642 0)
(1.04044 0.0162172 0)
(1.03532 0.0171878 0)
(1.03001 0.0165786 0)
(1.02579 0.0147655 0)
(1.02278 0.0124432 0)
(1.02073 0.0100335 0)
(1.01938 0.00775959 0)
(1.01853 0.00572115 0)
(1.01713 0.00394655 0)
(0.992048 0.00239734 0)
(0.777181 0.000997399 0)
(0.184423 8.50627e-05 0)
(0.203033 0.000137033 0)
(0.968982 0.00248545 0)
(1.05155 0.00453407 0)
(1.05593 0.00681249 0)
(1.05497 0.00940721 0)
(1.05329 0.0122964 0)
(1.05074 0.0153574 0)
(1.04705 0.0183315 0)
(1.04198 0.0207553 0)
(1.03546 0.0218928 0)
(1.02873 0.0210264 0)
(1.02338 0.0186706 0)
(1.01958 0.0157055 0)
(1.01698 0.0126522 0)
(1.01528 0.009781 0)
(1.01421 0.00721065 0)
(1.01266 0.00497297 0)
(0.987284 0.00302012 0)
(0.772224 0.00125505 0)
(0.1824 0.000106442 0)
(0.206279 0.000182273 0)
(0.976118 0.00326289 0)
(1.0579 0.00593682 0)
(1.062 0.00889299 0)
(1.0607 0.012236 0)
(1.05848 0.0159395 0)
(1.05514 0.0198374 0)
(1.05035 0.0235815 0)
(1.04383 0.0265684 0)
(1.03552 0.0278737 0)
(1.02701 0.0266499 0)
(1.02029 0.0235997 0)
(1.0155 0.0198219 0)
(1.01224 0.0159562 0)
(1.01011 0.0123314 0)
(1.00876 0.00909019 0)
(1.00702 0.00626813 0)
(0.981278 0.00380224 0)
(0.76598 0.00157576 0)
(0.179865 0.000132827 0)
(0.210614 0.00024846 0)
(0.985388 0.00434505 0)
(1.06607 0.00786782 0)
(1.06981 0.0117037 0)
(1.06803 0.0159973 0)
(1.06506 0.0207411 0)
(1.06064 0.0256979 0)
(1.05437 0.0303847 0)
(1.04597 0.0340179 0)
(1.0354 0.0354567 0)
(1.02471 0.0337301 0)
(1.0163 0.0297873 0)
(1.01033 0.0249919 0)
(1.00625 0.0201149 0)
(1.00358 0.0155539 0)
(1.00189 0.0114768 0)
(0.999929 0.00791954 0)
(0.973714 0.0047994 0)
(0.758113 0.00198374 0)
(0.176688 0.000166754 0)
(0.216525 0.00035327 0)
(0.997541 0.00592673 0)
(1.07671 0.0105941 0)
(1.07997 0.0155275 0)
(1.07746 0.021017 0)
(1.07339 0.027102 0)
(1.06743 0.0334005 0)
(1.05918 0.0392198 0)
(1.04835 0.043553 0)
(1.03497 0.0450291 0)
(1.02162 0.0425933 0)
(1.01118 0.0375192 0)
(1.00376 0.0314661 0)
(0.998677 0.0253478 0)
(0.99534 0.0196404 0)
(0.993243 0.0145398 0)
(0.991004 0.0100694 0)
(0.964183 0.00610711 0)
(0.748161 0.00251737 0)
(0.172692 0.000212747 0)
(0.224831 0.000527555 0)
(1.01378 0.00834052 0)
(1.09094 0.0144708 0)
(1.09348 0.0207155 0)
(1.08977 0.0277604 0)
(1.084 0.0356285 0)
(1.07584 0.0436128 0)
(1.06487 0.0507255 0)
(1.05088 0.0557236 0)
(1.03404 0.0570379 0)
(1.01752 0.0536113 0)
(1.00468 0.047131 0)
(0.995521 0.0395633 0)
(0.989194 0.0319557 0)
(0.985003 0.0248735 0)
(0.982363 0.0185486 0)
(0.979766 0.0129748 0)
(0.95216 0.00793134 0)
(0.735498 0.00326908 0)
(0.167625 0.000281797 0)
(0.236942 0.000823116 0)
(1.03602 0.0122012 0)
(1.11048 0.0201219 0)
(1.11173 0.0280689 0)
(1.10602 0.037321 0)
(1.09764 0.0475344 0)
(1.08629 0.0574511 0)
(1.07162 0.065813 0)
(1.05358 0.0712132 0)
(1.03253 0.0719766 0)
(1.01229 0.0671811 0)
(0.996645 0.0589967 0)
(0.985394 0.0496658 0)
(0.977495 0.0403294 0)
(0.972144 0.0316375 0)
(0.968688 0.0238766 0)
(0.965529 0.0170185 0)
(0.936958 0.0106307 0)
(0.719381 0.00442241 0)
(0.161141 0.000388778 0)
(0.255305 0.00137915 0)
(1.06696 0.0189591 0)
(1.13716 0.0291367 0)
(1.136 0.0396985 0)
(1.12705 0.0520322 0)
(1.11477 0.0648805 0)
(1.0989 0.0765117 0)
(1.07933 0.0856125 0)
(1.05629 0.0907724 0)
(1.0303 0.0903257 0)
(1.00583 0.0836529 0)
(0.986969 0.0734547 0)
(0.973243 0.0621624 0)
(0.963357 0.05092 0)
(0.95638 0.0404085 0)
(0.951605 0.0309754 0)
(0.947427 0.0225978 0)
(0.917757 0.0145778 0)
(0.699148 0.00617306 0)
(0.152879 0.000534477 0)
(0.283178 0.00274296 0)
(1.11138 0.0325092 0)
(1.17327 0.0455664 0)
(1.16709 0.0597606 0)
(1.15263 0.0752841 0)
(1.13441 0.0900096 0)
(1.11244 0.102316 0)
(1.0869 0.111055 0)
(1.05814 0.114923 0)
(1.02677 0.112383 0)
(0.997768 0.103243 0)
(0.975438 0.0907459 0)
(0.958922 0.0773981 0)
(0.946652 0.0642412 0)
(0.937531 0.0518702 0)
(0.930803 0.040649 0)
(0.924831 0.0304704 0)
(0.893526 0.0205416 0)
(0.673665 0.00862323 0)
(0.142964 0.000675351 0)
(0.324224 0.0110976 -1.62986e-20)
(1.17019 0.060874 -1.11798e-20)
(1.21828 0.0776338 2.44577e-21)
(1.20262 0.0947015 0)
(1.17988 0.111153 -5.82212e-35)
(1.15387 0.12546 1.13442e-21)
(1.12471 0.136538 -3.73026e-21)
(1.09256 0.143399 0)
(1.05772 0.144876 1.14777e-34)
(1.02065 0.139533 -8.20258e-21)
(0.986796 0.127671 0)
(0.960575 0.112953 -1.13522e-20)
(0.940726 0.0978145 -3.45234e-20)
(0.925382 0.0831614 -1.66551e-20)
(0.913252 0.0695408 -5.211e-21)
(0.903453 0.0573657 -3.15061e-21)
(0.894267 0.0465396 0)
(0.860742 0.0358011 2.27042e-21)
(0.639509 0.0211445 2.66175e-21)
(0.132818 0.00408693 4.72711e-20)
(0.343954 0.0302095 -3.95493e-20)
(1.21921 0.110334 9.99637e-22)
(1.2591 0.128815 -1.78667e-21)
(1.23492 0.143594 0)
(1.20419 0.157998 7.33897e-22)
(1.17075 0.170239 -1.37968e-21)
(1.1346 0.179173 -2.88719e-21)
(1.09582 0.183734 -1.59306e-20)
(1.05463 0.182786 0)
(1.01131 0.174953 3.45574e-20)
(0.971673 0.160971 3.74506e-20)
(0.940449 0.144905 1.18522e-20)
(0.916119 0.129098 4.64085e-20)
(0.896517 0.114248 6.82408e-20)
(0.880242 0.100837 0)
(0.866236 0.0892868 1.01258e-19)
(0.852622 0.0797688 1.48489e-19)
(0.81616 0.0703345 1.65455e-19)
(0.612669 0.050522 -1.92299e-19)
(0.131591 0.0113324 -3.49734e-21)
(0.331196 0.0488988 0)
(1.24868 0.174561 -1.22438e-20)
(1.28937 0.192547 0)
(1.25936 0.203133 1.67884e-20)
(1.22242 0.21317 0)
(1.18281 0.221298 3.89913e-21)
(1.14067 0.226485 4.38649e-21)
(1.09611 0.22765 -2.58208e-20)
(1.04929 0.223588 -2.92606e-21)
(1.00037 0.212956 1.67382e-20)
(0.955675 0.196947 8.56285e-20)
(0.920385 0.179864 -3.88762e-22)
(0.892725 0.163939 -3.45102e-20)
(0.870308 0.149758 -6.63836e-20)
(0.851682 0.137605 8.05997e-20)
(0.835825 0.127683 -1.44407e-19)
(0.821192 0.119971 -1.9732e-20)
(0.788302 0.11164 0)
(0.602381 0.085311 1.20331e-21)
(0.136184 0.0198235 0)
(0.317021 0.0646521 -3.15142e-19)
(1.26179 0.242076 1.29349e-19)
(1.30697 0.260858 6.63647e-20)
(1.27372 0.267151 -1.16636e-20)
(1.23286 0.272258 1.74693e-20)
(1.18899 0.275707 -1.16846e-20)
(1.14243 0.27654 7.29361e-21)
(1.09339 0.273705 0)
(1.04211 0.26605 -6.8301e-20)
(0.988773 0.252302 0)
(0.940207 0.234084 -4.32182e-20)
(0.901976 0.215922 -6.00029e-20)
(0.872201 0.199792 -3.81115e-20)
(0.848395 0.185949 -4.89076e-20)
(0.828961 0.174419 0)
(0.812789 0.165258 0)
(0.798297 0.15838 -1.30944e-19)
(0.7674 0.150016 2.60754e-20)
(0.591632 0.115614 -1.52957e-20)
(0.135794 0.027032 -1.76563e-20)
(0.305926 0.0787707 2.31623e-19)
(1.26381 0.308953 0)
(1.31399 0.328973 -1.85195e-19)
(1.27918 0.331211 -4.47263e-20)
(1.23605 0.331796 -3.10606e-20)
(1.18955 0.330708 0)
(1.13999 0.327222 8.67082e-22)
(1.08766 0.320337 2.39717e-20)
(1.03287 0.308967 3.05909e-20)
(0.975915 0.291942 8.0828e-20)
(0.924253 0.271324 0)
(0.883885 0.251808 -1.28962e-19)
(0.852779 0.235065 -8.19934e-20)
(0.828221 0.221049 -4.92255e-20)
(0.808479 0.2096 3.2167e-19)
(0.792319 0.200529 3.9329e-20)
(0.778152 0.193707 1.88033e-19)
(0.74861 0.184647 -9.09078e-19)
(0.579626 0.143004 5.41478e-19)
(0.134352 0.0336467 -6.45379e-19)
(0.297983 0.0919665 2.42395e-19)
(1.25909 0.372502 -4.48585e-20)
(1.31351 0.394745 3.25336e-20)
(1.27795 0.393434 8.63539e-20)
(1.23348 0.389916 5.0336e-20)
(1.18527 0.384761 3.08249e-21)
(1.13363 0.377255 -1.78187e-21)
(1.07891 0.366464 1.99154e-20)
(1.02153 0.351404 -6.54433e-20)
(0.961895 0.331047 0)
(0.907939 0.307886 -5.55941e-20)
(0.866034 0.286774 -2.76827e-21)
(0.834045 0.269045 -9.10573e-20)
(0.809083 0.254457 0)
(0.789272 0.242616 -6.98275e-20)
(0.773263 0.233243 -1.69297e-19)
(0.759402 0.226066 4.67843e-19)
(0.730882 0.216112 -4.67427e-19)
(0.567604 0.167797 6.63576e-19)
(0.132266 0.0395989 -6.82123e-19)
(0.292108 0.10438 -1.0456e-21)
(1.25045 0.432017 5.42684e-20)
(1.30764 0.456984 1.56173e-19)
(1.27186 0.452822 -5.33415e-20)
(1.2267 0.445825 2.86102e-20)
(1.17741 0.437023 0)
(1.12437 0.425796 8.86199e-21)
(1.06798 0.411341 -1.73694e-20)
(1.0087 0.392738 -3.03673e-20)
(0.947007 0.369103 0)
(0.891272 0.343336 -5.33224e-20)
(0.848184 0.320411 -7.43151e-20)
(0.815559 0.301421 9.88656e-20)
(0.790366 0.285923 -6.33615e-20)
(0.770586 0.273396 -3.05846e-19)
(0.754784 0.263429 1.8785e-19)
(0.741256 0.255699 5.95512e-20)
(0.713616 0.244741 0)
(0.555361 0.19028 -6.42333e-19)
(0.129754 0.0449528 -2.32654e-20)
(0.287436 0.116193 3.89202e-20)
(1.23964 0.487414 -6.18758e-20)
(1.29815 0.515365 -8.42455e-20)
(1.26225 0.508881 -1.59946e-19)
(1.21674 0.498908 1.40187e-19)
(1.16679 0.486913 -6.90684e-20)
(1.11281 0.472323 -1.85318e-20)
(1.05523 0.454464 -2.55275e-20)
(0.994579 0.432539 2.64518e-20)
(0.931386 0.40575 -1.89034e-19)
(0.874262 0.377412 -6.47456e-20)
(0.830194 0.352554 0)
(0.79707 0.332092 1.07515e-19)
(0.771716 0.315425 1.32957e-19)
(0.752022 0.301949 1.63881e-19)
(0.736466 0.291218 -2.04814e-19)
(0.723278 0.282753 -6.16527e-20)
(0.696475 0.270669 7.33043e-20)
(0.542881 0.210562 0)
(0.126918 0.0497171 -5.08923e-20)
(0.283558 0.127515 -4.44609e-19)
(1.2278 0.539276 2.85075e-19)
(1.28623 0.570048 9.04293e-20)
(1.25024 0.561564 -1.21032e-19)
(1.20452 0.548992 8.4129e-20)
(1.15414 0.534149 -6.52397e-21)
(1.09951 0.51652 1.70906e-20)
(1.04112 0.495539 -9.75085e-21)
(0.979545 0.470518 -5.17006e-20)
(0.915272 0.440799 -3.81457e-22)
(0.857031 0.410004 -1.89447e-19)
(0.812073 0.383199 1.86686e-19)
(0.778429 0.361111 -1.2007e-19)
(0.752899 0.34305 1.49953e-19)
(0.733294 0.328425 0)
(0.71799 0.316706 -1.11463e-19)
(0.705193 0.30737 -2.82978e-21)
(0.679245 0.293975 -3.21088e-19)
(0.530067 0.228816 -4.73182e-20)
(0.12369 0.0538518 0)
(0.280303 0.13823 0)
(1.21549 0.587927 3.01608e-19)
(1.2727 0.621156 2.10424e-19)
(1.23659 0.610905 1.35786e-19)
(1.19073 0.596107 7.92059e-20)
(1.14008 0.578713 0)
(1.08501 0.55832 2.19835e-20)
(1.02604 0.534424 -2.43282e-21)
(0.963856 0.50653 1.05904e-19)
(0.898889 0.474124 -2.2456e-20)
(0.839737 0.441083 -1.37624e-19)
(0.793877 0.412414 9.24473e-20)
(0.759574 0.388617 -4.13567e-21)
(0.733769 0.368975 1.57662e-19)
(0.714181 0.35296 1.04001e-19)
(0.699134 0.340048 -2.43362e-19)
(0.686736 0.329676 2.95255e-19)
(0.661661 0.314879 8.86035e-20)
(0.516777 0.244993 3.65708e-19)
(0.119978 0.0572852 -9.64694e-19)
(0.277596 0.148621 -1.11059e-19)
(1.20287 0.633696 1.73007e-19)
(1.25816 0.668947 -1.30373e-19)
(1.22185 0.657118 -1.556e-19)
(1.17588 0.64033 0)
(1.125 0.62066 6.18226e-20)
(1.06964 0.597724 -6.09465e-20)
(1.01031 0.571076 1.09218e-20)
(0.947783 0.540454 0)
(0.882457 0.505612 -3.34302e-19)
(0.822602 0.470687 3.66433e-19)
(0.775711 0.440377 0)
(0.740502 0.414869 1.41957e-19)
(0.714176 0.393444 -4.60025e-21)
(0.694482 0.375783 -3.30496e-19)
(0.67962 0.36141 1.29609e-19)
(0.667654 0.349778 0)
(0.643483 0.333524 4.82527e-19)
(0.502762 0.259242 0)
(0.115772 0.0600295 -4.63913e-19)
(0.2754 0.158683 1.21936e-19)
(1.19014 0.676931 1.96688e-19)
(1.2432 0.713565 -1.35165e-19)
(1.20646 0.700448 0)
(1.16037 0.681844 1.06962e-19)
(1.10925 0.660097 0)
(1.05366 0.634773 8.45255e-20)
(0.99416 0.605515 6.30359e-21)
(0.931555 0.572256 1.13883e-20)
(0.866199 0.535212 -1.6152e-19)
(0.805858 0.498876 3.47022e-20)
(0.757803 0.467312 0)
(0.721262 0.440153 -3.00846e-19)
(0.693999 0.416781 5.00715e-21)
(0.673946 0.397136 0)
(0.659142 0.380999 5.71078e-21)
(0.647595 0.367812 4.42176e-19)
(0.624431 0.3498 -4.28429e-19)
(0.487801 0.271446 1.25873e-19)
(0.110891 0.0618477 0)
(0.273448 0.168338 0)
(1.17735 0.717632 2.16863e-19)
(1.228 0.755321 1.56809e-19)
(1.1908 0.741048 -4.07555e-21)
(1.14449 0.720838 6.74381e-20)
(1.09311 0.697158 1.4073e-19)
(1.03728 0.669567 -2.65019e-20)
(0.977701 0.637767 -3.95982e-22)
(0.915325 0.601932 5.87056e-20)
(0.850336 0.562853 -2.3613e-19)
(0.789834 0.525665 -2.26773e-21)
(0.740372 0.493459 -1.18761e-19)
(0.701942 0.464874 4.94759e-19)
(0.673153 0.439388 -6.48557e-21)
(0.652299 0.417411 -2.66235e-19)
(0.637327 0.399069 -4.88261e-19)
(0.626169 0.383953 0)
(0.604028 0.363863 0)
(0.471599 0.281393 1.41829e-19)
(0.105115 0.0626727 -8.1113e-20)
(0.272126 0.177722 1.47783e-19)
(1.16492 0.756009 -4.63803e-19)
(1.21263 0.794642 -1.65005e-19)
(1.17507 0.779162 0)
(1.12847 0.757499 -1.79271e-21)
(1.07679 0.732007 1.68094e-19)
(1.02068 0.702229 -9.19706e-20)
(0.961055 0.667894 -3.03741e-20)
(0.899151 0.629494 5.77321e-20)
(0.835078 0.588489 -1.69892e-19)
(0.774826 0.551057 -2.84531e-19)
(0.723787 0.519051 3.12394e-19)
(0.682744 0.489508 0)
(0.651585 0.461823 -1.20363e-19)
(0.629231 0.437015 -2.96504e-19)
(0.61378 0.415875 -3.59981e-19)
(0.602892 0.398384 -4.39821e-19)
(0.581647 0.37567 1.32674e-19)
(0.453443 0.288933 -7.69018e-20)
(0.0979966 0.0623651 1.81119e-21)
(0.270929 0.186834 0)
(1.15301 0.792227 0)
(1.19741 0.831596 2.35178e-21)
(1.15942 0.815006 0)
(1.11247 0.792014 -2.43889e-19)
(1.06043 0.764812 -1.46568e-19)
(1.00402 0.732903 0)
(0.94431 0.696005 -9.36474e-21)
(0.883036 0.65491 6.31355e-20)
(0.820495 0.612077 -3.69858e-19)
(0.761207 0.574987 0)
(0.708539 0.544321 -1.94497e-19)
(0.664001 0.514635 -8.56002e-21)
(0.629279 0.484855 -7.2225e-21)
(0.60453 0.456796 3.2103e-19)
(0.588073 0.431782 -4.49051e-22)
(0.57685 0.411262 -9.74014e-19)
(0.55643 0.385302 2.95525e-19)
(0.432782 0.29372 8.81612e-20)
(0.0893518 0.0604577 0)
(0.269887 0.195892 -5.30964e-19)
(1.14131 0.826476 -2.76038e-19)
(1.18252 0.866377 -3.99504e-19)
(1.14399 0.848774 5.45812e-19)
(1.09665 0.824545 -4.47596e-19)
(1.04414 0.795731 0)
(0.98736 0.761736 -7.77542e-20)
(0.927564 0.722224 1.80375e-20)
(0.866984 0.678237 4.94575e-21)
(0.806571 0.633459 2.74069e-20)
(0.749294 0.597349 3.21499e-19)
(0.695152 0.569472 -6.4322e-20)
(0.646147 0.540898 -3.03879e-19)
(0.606412 0.509495 -1.48322e-19)
(0.577725 0.477124 1.83268e-19)
(0.559369 0.447449 -9.02331e-24)
(0.547553 0.422384 2.7503e-19)
(0.528836 0.392437 -6.53164e-19)
(0.408674 0.294743 7.8554e-19)
(0.0788951 0.0566205 1.10621e-19)
(0.268941 0.204705 1.92451e-19)
(1.1299 0.858971 -1.46956e-19)
(1.16802 0.899158 8.77871e-21)
(1.12891 0.88064 3.0093e-19)
(1.0811 0.855266 1.03239e-19)
(1.02804 0.824919 2.84035e-19)
(0.970765 0.788882 -3.44384e-20)
(0.910818 0.74668 8.89107e-20)
(0.851036 0.699547 -7.4958e-21)
(0.793284 0.652486 -1.64137e-19)
(0.739241 0.617952 0)
(0.684334 0.594607 -2.87978e-19)
(0.629802 0.569115 4.4463e-19)
(0.582787 0.537005 0)
(0.548108 0.499147 -3.96496e-19)
(0.526484 0.464816 2.53669e-19)
(0.514709 0.433194 -3.03894e-19)
(0.496877 0.397574 -3.71081e-19)
(0.379019 0.291855 -6.56025e-19)
(0.0658907 0.050254 -5.03698e-19)
(0.268413 0.213456 -2.08098e-19)
(1.11887 0.889778 1.56719e-19)
(1.154 0.930086 3.60444e-19)
(1.11426 0.910736 4.09678e-19)
(1.0659 0.884319 -2.11247e-19)
(1.01219 0.852531 1.89721e-19)
(0.954319 0.814501 -1.05443e-19)
(0.894068 0.769535 1.12605e-19)
(0.835117 0.718946 1.72533e-20)
(0.780571 0.669087 1.12261e-19)
(0.731044 0.636432 5.85706e-19)
(0.676697 0.61977 0)
(0.615497 0.599874 0)
(0.558959 0.567801 -1.7421e-19)
(0.514986 0.525239 0)
(0.487949 0.482695 5.62936e-19)
(0.47556 0.444176 6.82727e-19)
(0.457805 0.400095 0)
(0.341927 0.283623 0)
(0.0500203 0.0409632 5.69489e-19)
(0.267883 0.221783 2.26309e-19)
(1.10827 0.919037 1.83469e-19)
(1.1405 0.959307 2.55563e-19)
(1.1001 0.939206 -3.55631e-19)
(1.05114 0.911839 -2.30643e-19)
(0.996682 0.878703 -2.46664e-19)
(0.938077 0.838753 1.53666e-19)
(0.877342 0.790958 2.43764e-21)
(0.819107 0.736523 -4.6742e-21)
(0.76828 0.683195 -2.50437e-20)
(0.725076 0.652212 2.7023e-19)
(0.673287 0.644993 0)
(0.604952 0.633022 4.52413e-19)
(0.535303 0.601014 3.69436e-19)
(0.478817 0.558311 9.95867e-19)
(0.445239 0.504849 3.09727e-19)
(0.428317 0.452662 -3.92835e-19)
(0.410871 0.394996 -2.33195e-19)
(0.297344 0.266312 0)
(0.0331077 0.0284242 6.40579e-19)
(0.267881 0.230366 -4.89301e-19)
(1.09814 0.946804 0)
(1.12755 0.986925 2.78529e-19)
(1.0865 0.966149 -2.84564e-19)
(1.03687 0.937935 2.53083e-19)
(0.981579 0.903558 3.53095e-19)
(0.922109 0.861791 -3.47044e-19)
(0.860644 0.81111 3.89599e-21)
(0.802918 0.752419 0)
(0.756133 0.694751 -1.7477e-20)
(0.721494 0.664875 -4.32279e-19)
(0.674551 0.669498 3.16525e-20)
(0.599046 0.668809 6.15629e-19)
(0.51269 0.643109 0)
(0.442485 0.594328 6.8814e-19)
(0.394612 0.536088 0)
(0.366373 0.469543 0)
(0.348457 0.380672 -2.70643e-19)
(0.248229 0.229609 0)
(0.0360334 0.0203395 1.76018e-19)
(0.267782 0.238432 -5.26039e-19)
(1.08839 0.973288 0)
(1.1151 1.01311 4.4708e-19)
(1.07344 0.991768 0)
(1.0231 0.962851 -1.33431e-19)
(0.966846 0.927387 0)
(0.906367 0.884002 -2.52838e-20)
(0.843859 0.830424 -2.10228e-20)
(0.786308 0.76711 -8.69026e-21)
(0.743666 0.70394 4.72412e-20)
(0.72032 0.673964 6.06551e-21)
(0.681413 0.693054 2.69099e-19)
(0.598496 0.708159 5.95899e-19)
(0.493156 0.692479 9.51585e-20)
(0.406609 0.646718 5.5406e-19)
(0.339069 0.574419 0)
(0.28547 0.487307 8.87543e-19)
(0.253739 0.352572 -5.37897e-19)
(0.13328 0.175777 6.16251e-19)
(-0.0411083 0.407684 -7.49664e-19)
(0.267954 0.246489 4.24232e-19)
(1.07882 0.998636 6.6399e-19)
(1.10302 1.03812 0)
(1.06079 1.01646 2.57333e-21)
(1.00961 0.987117 3.58087e-19)
(0.952181 0.950826 -6.52791e-19)
(0.890416 0.906135 -1.46478e-19)
(0.826336 0.849652 0)
(0.768267 0.781229 -8.77974e-20)
(0.72986 0.71061 7.26598e-21)
(0.721963 0.678327 0)
(0.696396 0.716354 0)
(0.60597 0.757022 5.1983e-19)
(0.484701 0.753387 -3.15873e-19)
(0.367409 0.704679 -5.66256e-19)
(0.271367 0.636419 0)
(0.177132 0.5296 4.54838e-19)
(0.0733055 0.608802 -5.35035e-19)
(0.0648312 1.81426 -2.96818e-19)
(0.0957639 2.76787 -3.81667e-19)
(0.26822 0.253688 -3.03052e-19)
(1.06925 1.02287 -8.2255e-19)
(1.0913 1.06184 2.47812e-19)
(1.04867 1.04012 2.30039e-19)
(0.996512 1.01057 0)
(0.937747 0.973701 -4.5769e-19)
(0.874542 0.928084 -2.38201e-19)
(0.808323 0.868766 1.35035e-20)
(0.748894 0.794734 -1.62813e-20)
(0.714533 0.714271 -1.64738e-19)
(0.725272 0.677513 -1.5504e-20)
(0.720572 0.737106 1.68261e-19)
(0.629062 0.810149 5.01928e-19)
(0.47191 0.827457 -7.49568e-19)
(0.319452 0.790769 -8.76831e-19)
(0.205215 0.71865 0)
(0.112009 0.964423 0)
(0.165157 2.46883 2.35545e-19)
(0.168233 3.13572 0)
(0.165019 3.32529 5.16593e-19)
(0.272351 0.259886 0)
(1.05933 1.04579 0)
(1.07978 1.08396 0)
(1.03685 1.06258 6.34577e-20)
(0.983616 1.03305 3.0603e-19)
(0.923436 0.995966 -3.35142e-19)
(0.858774 0.949916 -1.63182e-19)
(0.789795 0.887932 1.46713e-20)
(0.727972 0.807771 -1.72867e-19)
(0.697385 0.714785 -4.14916e-20)
(0.72964 0.66842 -3.46816e-19)
(0.752826 0.747375 -2.28526e-20)
(0.659915 0.875231 4.72209e-20)
(0.465845 0.930066 1.15992e-19)
(0.263085 0.883699 -7.48066e-21)
(0.169305 1.06097 4.02114e-21)
(0.222682 2.54551 -1.16037e-18)
(0.246988 3.2252 -4.36798e-19)
(0.224757 3.37254 2.02455e-19)
(0.203165 3.40089 -2.04284e-19)
(0.169903 0.19695 1.62193e-19)
(1.04685 1.06728 0)
(1.06921 1.10481 -4.6159e-19)
(1.02577 1.08436 -5.78398e-19)
(0.971513 1.05517 6.25704e-19)
(0.909911 1.01814 3.52128e-19)
(0.844403 0.971651 1.87622e-19)
(0.772333 0.909827 -2.14777e-19)
(0.705447 0.825644 1.57752e-19)
(0.676486 0.717822 0)
(0.731984 0.648655 -3.73179e-19)
(0.80278 0.726363 -4.56251e-21)
(0.748962 0.919974 0)
(0.496592 1.04655 9.96385e-20)
(0.254465 1.05367 2.65401e-19)
(0.201142 2.13118 -3.08576e-19)
(0.334742 3.22952 3.28328e-19)
(0.311816 3.38128 1.58456e-19)
(0.262123 3.42098 1.71502e-19)
(0.228833 3.44087 2.11596e-19)
(0.326927 0.313933 -2.71124e-19)
(1.02493 1.07871 0)
(1.05532 1.13599 4.64443e-19)
(1.00816 1.11653 5.72302e-19)
(0.951645 1.08785 -6.19595e-19)
(0.886783 1.05056 -3.51978e-19)
(0.815399 1.00171 -2.69245e-19)
(0.738327 0.934401 -1.71316e-20)
(0.667354 0.838649 -2.19666e-19)
(0.64034 0.705675 -4.7656e-19)
(0.743957 0.593735 -3.83534e-20)
(0.945231 0.680734 -2.92439e-19)
(0.934264 1.041 1.43503e-20)
(0.596614 1.31074 -9.28882e-20)
(0.382845 1.93635 -2.57687e-19)
(0.475389 3.16726 1.71045e-19)
(0.459254 3.41203 -1.47958e-19)
(0.399172 3.46533 -7.91258e-20)
(0.337316 3.51194 1.74408e-20)
(0.250411 3.50273 -9.15451e-22)
(0.317671 0.313676 0)
(1.02345 1.10238 1.26658e-19)
(1.04581 1.1586 -9.28057e-20)
(0.997299 1.13963 -6.42393e-20)
(0.939249 1.11137 -3.9769e-19)
(0.872403 1.0742 3.40338e-19)
(0.797825 1.0247 1.72886e-19)
(0.716067 0.95537 -1.7106e-20)
(0.637963 0.852531 2.59132e-19)
(0.603137 0.691154 -4.40526e-20)
(0.731201 0.505871 1.87249e-18)
(1.07831 0.61078 -4.888e-20)
(1.11433 1.17733 1.82166e-20)
(0.719939 1.60588 -8.8713e-20)
(0.560793 2.59479 6.15113e-20)
(0.626986 3.37731 7.47732e-21)
(0.526145 3.50723 -8.16109e-20)
(0.468626 3.55907 -1.42174e-19)
(0.371828 3.61062 2.11968e-19)
(0.2759 3.58905 8.70163e-20)
(0.300168 0.310906 3.15918e-19)
(1.02022 1.13003 8.43506e-19)
(1.03618 1.18386 -2.57765e-19)
(0.986038 1.16495 -2.38231e-19)
(0.926241 1.13696 0)
(0.857266 1.0999 4.79778e-19)
(0.779256 1.04993 2.54791e-19)
(0.692064 0.978783 -1.68345e-20)
(0.604366 0.868218 3.24921e-20)
(0.556765 0.675211 7.3319e-19)
(0.715013 0.386185 1.36876e-18)
(1.16466 0.606658 9.11809e-19)
(1.28578 1.39684 4.8969e-19)
(0.890037 1.99367 2.21068e-19)
(0.745962 3.09471 1.60593e-19)
(0.742829 3.52503 0)
(0.606403 3.59543 0)
(0.521371 3.67683 2.1869e-19)
(0.421614 3.74367 0)
(0.292557 3.71055 2.75405e-19)
(0.287865 0.312346 -4.61193e-19)
(1.01464 1.15979 -7.0012e-19)
(1.02552 1.21129 0)
(0.973694 1.19203 2.48269e-21)
(0.912127 1.16418 -3.78577e-19)
(0.840946 1.1273 6.9628e-19)
(0.759461 1.07732 1.61529e-19)
(0.666296 1.00525 -1.74011e-20)