/*--------------------------------*- C++ -*----------------------------------*\
| =========                 |                                                 |
| \\      /  F ield         | OpenFOAM: The Open Source CFD Toolbox           |
|  \\    /   O peration     | Version:  2306                                  |
|   \\  /    A nd           | Website:  www.openfoam.com                      |
|    \\/     M anipulation  |                                                 |
\*---------------------------------------------------------------------------*/
FoamFile
{
    version     2.0;
    format      ascii;
    arch        "LSB;label=32;scalar=64";
    class       volScalarField;
    location    "5";
    object      p;
}
// * * * * * * * * * * * * * * * * * * * * * * * * * * * * * * * * * * * * * //

dimensions      [0 2 -2 0 0 0 0];

internalField   nonuniform List<scalar> 
8800
(
0.536333
0.488662
0.450824
0.422924
0.403073
0.38915
0.37934
0.372562
0.36821
0.366298
0.367162
0.370615
0.376352
0.384674
0.396455
0.413111
0.436746
0.469628
0.511555
0.568504
0.367715
0.375389
0.38495
0.389528
0.38887
0.384551
0.378853
0.373361
0.36885
0.365909
0.365373
0.367632
0.371679
0.376942
0.382755
0.388104
0.390861
0.389141
0.381784
0.371902
0.344777
0.35143
0.356818
0.360928
0.363799
0.365238
0.364898
0.363562
0.3621
0.361384
0.361875
0.363378
0.36513
0.366315
0.365992
0.363812
0.360352
0.355645
0.349763
0.346119
0.34666
0.349097
0.352624
0.355604
0.357755
0.358605
0.358958
0.358811
0.358367
0.358121
0.358517
0.359307
0.35993
0.359988
0.359563
0.358167
0.355698
0.352363
0.349216
0.348213
0.347356
0.34781
0.348775
0.349964
0.351243
0.352623
0.353549
0.35398
0.354123
0.354239
0.354569
0.354932
0.354987
0.354576
0.353529
0.352263
0.351104
0.350003
0.349318
0.349135
0.344586
0.344823
0.345356
0.345995
0.346646
0.347267
0.347842
0.348326
0.348684
0.349004
0.349339
0.349546
0.349543
0.349284
0.348888
0.348381
0.34782
0.347262
0.346899
0.34681
0.341368
0.341463
0.341699
0.342058
0.342511
0.343037
0.343587
0.344118
0.344618
0.345098
0.345484
0.345689
0.345667
0.345464
0.345144
0.344791
0.344466
0.344202
0.344053
0.344011
0.337322
0.337377
0.337498
0.337693
0.337963
0.338314
0.338741
0.339232
0.339766
0.34033
0.340815
0.341106
0.341217
0.341196
0.341099
0.340974
0.34085
0.340744
0.340681
0.340658
0.332947
0.33299
0.333088
0.333241
0.33346
0.333761
0.334157
0.334653
0.335249
0.335931
0.336562
0.336995
0.337231
0.337333
0.337351
0.337328
0.337289
0.337249
0.337221
0.337208
0.328365
0.328389
0.328468
0.328596
0.328791
0.329075
0.329471
0.330005
0.330688
0.331518
0.332327
0.332925
0.333307
0.333539
0.333666
0.333728
0.333753
0.333758
0.333755
0.333746
0.323558
0.323582
0.32365
0.323773
0.323969
0.324267
0.324702
0.325311
0.326125
0.32715
0.328185
0.32898
0.329531
0.32989
0.330113
0.330245
0.330319
0.330355
0.330367
0.330362
0.318502
0.318521
0.318595
0.318729
0.318948
0.31929
0.319799
0.320527
0.321521
0.322801
0.324121
0.325167
0.325904
0.3264
0.326721
0.32692
0.327037
0.327101
0.327127
0.327123
0.313164
0.313184
0.313267
0.313423
0.313684
0.314094
0.314714
0.31561
0.316848
0.318461
0.320143
0.32149
0.322451
0.323108
0.323539
0.323811
0.323973
0.324063
0.324101
0.324097
0.307474
0.307497
0.307599
0.307791
0.308113
0.308622
0.309395
0.310518
0.312077
0.314118
0.316257
0.317978
0.319214
0.320062
0.320622
0.320977
0.321192
0.321311
0.321363
0.32136
0.30135
0.301378
0.301506
0.301748
0.302153
0.302797
0.303774
0.305197
0.307174
0.309763
0.312482
0.314671
0.316246
0.317329
0.318046
0.318501
0.318776
0.31893
0.318998
0.318994
0.294674
0.29471
0.294873
0.295182
0.2957
0.296522
0.297769
0.299583
0.3021
0.305393
0.308844
0.311619
0.313616
0.31499
0.315898
0.316477
0.316827
0.317023
0.317109
0.317104
0.287288
0.287335
0.287546
0.287944
0.288612
0.28967
0.291271
0.293594
0.296809
0.301
0.305376
0.308887
0.311411
0.313145
0.314291
0.315021
0.315463
0.315711
0.315819
0.315813
0.278981
0.279043
0.279319
0.279838
0.280706
0.282077
0.284145
0.287134
0.29125
0.296585
0.302128
0.306559
0.309735
0.311917
0.313359
0.314277
0.314833
0.315145
0.315281
0.315273
0.269469
0.269553
0.269918
0.270601
0.27174
0.27353
0.276218
0.28008
0.285361
0.292155
0.299162
0.304739
0.308729
0.311466
0.313275
0.314426
0.315123
0.315514
0.315683
0.315673
0.258362
0.258478
0.258967
0.259878
0.261388
0.263749
0.26727
0.272285
0.279075
0.28772
0.296557
0.303551
0.308546
0.311972
0.314238
0.31568
0.316554
0.317044
0.317256
0.317242
0.245113
0.245277
0.245945
0.247181
0.249216
0.252372
0.257028
0.263581
0.272332
0.283314
0.294413
0.303146
0.309375
0.313653
0.316489
0.318298
0.319396
0.320011
0.320277
0.32026
0.228942
0.229182
0.230114
0.231833
0.234639
0.238934
0.245172
0.253795
0.265088
0.278996
0.292851
0.303689
0.311426
0.316762
0.320316
0.322593
0.32398
0.324757
0.325092
0.325071
0.208673
0.209033
0.21038
0.212871
0.216875
0.222869
0.231363
0.242795
0.257363
0.274868
0.292016
0.305356
0.314912
0.321559
0.326034
0.32893
0.330703
0.331696
0.332121
0.332097
0.182383
0.182934
0.185032
0.188897
0.194899
0.203536
0.215307
0.230544
0.249267
0.271092
0.292062
0.308295
0.320007
0.328276
0.333956
0.33771
0.340047
0.341358
0.341913
0.341884
0.146599
0.147574
0.151368
0.157974
0.167496
0.180343
0.196875
0.217173
0.241014
0.267851
0.293102
0.31257
0.326765
0.337016
0.34429
0.349301
0.352569
0.354481
0.355301
0.355257
0.094503
0.0974026
0.105773
0.118109
0.133844
0.153259
0.176417
0.20311
0.232943
0.265328
0.29516
0.318088
0.335022
0.34759
0.356906
0.363743
0.368642
0.371878
0.373508
0.373488
0.0144222
0.0286592
0.0481005
0.0706599
0.0958409
0.124041
0.155198
0.189099
0.225416
0.26369
0.2984
0.325125
0.345228
0.360654
0.372705
0.382265
0.389952
0.396025
0.400487
0.401775
-0.0699738
-0.0406274
-0.00921867
0.023842
0.0587519
0.0956224
0.134555
0.1755
0.218293
0.26273
0.302921
0.334168
0.358129
0.37705
0.392376
0.405104
0.41586
0.425336
0.434318
0.436229
-0.130651
-0.0983647
-0.0590522
-0.0177917
0.025132
0.0696562
0.115671
0.163064
0.21174
0.261647
0.306482
0.341283
0.367994
0.389081
0.406068
0.419974
0.431503
0.441162
0.448885
0.450744
-0.174986
-0.14062
-0.0973119
-0.0510652
-0.00266662
0.0474781
0.098998
0.15161
0.20513
0.259533
0.308102
0.345598
0.374149
0.396409
0.414063
0.428259
0.439843
0.449422
0.45709
0.459033
-0.207334
-0.172491
-0.126605
-0.0771046
-0.0250417
0.0291067
0.0847887
0.141493
0.198888
0.256922
0.308487
0.348074
0.377972
0.401042
0.419121
0.433485
0.445038
0.454461
0.461801
0.463737
-0.232338
-0.197256
-0.149874
-0.0980372
-0.0431901
0.0140103
0.0728276
0.132608
0.192912
0.2537
0.307649
0.349001
0.380087
0.403881
0.422343
0.436851
0.448416
0.45774
0.464886
0.466829
-0.252746
-0.217332
-0.168725
-0.115202
-0.0582822
0.00123691
0.0624436
0.124507
0.18692
0.249752
0.30567
0.348692
0.381015
0.405628
0.424572
0.439312
0.450947
0.460216
0.467206
0.469164
-0.270007
-0.23406
-0.184327
-0.129463
-0.0708772
-0.00958402
0.0533839
0.117037
0.180815
0.245006
0.30256
0.347312
0.3811
0.406779
0.426407
0.441529
0.453331
0.462622
0.469528
0.471514
-0.284733
-0.248304
-0.197647
-0.141504
-0.0815466
-0.0188452
0.0454007
0.110033
0.174463
0.239312
0.298205
0.344878
0.38054
0.407692
0.428319
0.444048
0.456159
0.465561
0.47242
0.474418
-0.297704
-0.260663
-0.209017
-0.151788
-0.0906624
-0.0268279
0.0383155
0.103399
0.167768
0.232516
0.2924
0.341288
0.379414
0.408623
0.430713
0.447363
0.459977
0.46961
0.476505
0.478534
-0.309067
-0.271436
-0.218996
-0.160659
-0.0984798
-0.0336985
0.0320361
0.0970976
0.160693
0.224463
0.284855
0.336303
0.377682
0.409766
0.433961
0.451973
0.465373
0.475401
0.482393
0.484457
-0.319374
-0.280987
-0.227713
-0.168363
-0.105193
-0.0395992
0.0265085
0.0911466
0.153261
0.215004
0.27521
0.32954
0.375181
0.411232
0.438415
0.458388
0.472942
0.483583
0.490781
0.49289
-0.328734
-0.289728
-0.235413
-0.175099
-0.110949
-0.0446133
0.0217206
0.0856031
0.145539
0.204062
0.26305
0.320493
0.371619
0.413057
0.444399
0.467159
0.483367
0.494803
0.502416
0.504589
-0.337345
-0.297594
-0.242326
-0.181013
-0.115888
-0.0488092
0.017674
0.0805643
0.13768
0.191616
0.24794
0.308493
0.366528
0.415183
0.452247
0.478857
0.497373
0.510056
0.517966
0.520369
-0.345386
-0.304922
-0.248608
-0.186249
-0.120125
-0.05227
0.0143727
0.0761334
0.129873
0.177753
0.229471
0.292733
0.359288
0.417491
0.462239
0.494016
0.515618
0.529899
0.53845
0.541003
-0.353084
-0.311662
-0.254364
-0.190926
-0.123756
-0.0550699
0.0118066
0.0724256
0.122358
0.162638
0.207274
0.272249
0.349079
0.419741
0.474566
0.513116
0.538806
0.555269
0.56474
0.56721
-0.360445
-0.31804
-0.259701
-0.195159
-0.126887
-0.057277
0.00994387
0.069518
0.115403
0.146582
0.18106
0.245924
0.335065
0.421358
0.489234
0.536598
0.567487
0.586678
0.597187
0.599287
-0.367517
-0.32415
-0.264722
-0.199038
-0.129617
-0.058993
0.00874983
0.0674661
0.109262
0.129987
0.150675
0.212523
0.315758
0.421785
0.50617
0.564777
0.602253
0.62443
0.635551
0.637037
-0.374536
-0.330049
-0.269506
-0.202651
-0.13203
-0.060301
0.00815781
0.0663129
0.104169
0.113339
0.116032
0.171035
0.289554
0.420017
0.525175
0.598164
0.644175
0.669689
0.679494
0.678762
-0.381362
-0.3358
-0.274078
-0.206047
-0.134217
-0.061281
0.00808621
0.0660294
0.100322
0.0971935
0.0773565
0.120308
0.253987
0.415637
0.546936
0.635572
0.691473
0.72313
0.729727
0.721082
-0.388257
-0.341469
-0.278463
-0.209282
-0.136256
-0.0620212
0.00846445
0.0665811
0.0978323
0.081856
0.0335767
0.0561375
0.20493
0.407203
0.571515
0.676902
0.740318
0.783358
0.796454
0.777298
-0.395148
-0.347005
-0.282676
-0.212479
-0.138281
-0.062629
0.00918657
0.0679444
0.0967903
0.0673135
-0.0173957
-0.0305441
0.131647
0.393835
0.597664
0.715316
0.769112
0.799213
0.806982
0.772435
-0.401788
-0.352147
-0.286564
-0.215636
-0.140238
-0.0630774
0.0101671
0.0701184
0.0974663
0.0547129
-0.0743079
-0.146863
0.0226875
0.366429
0.611624
0.729917
0.763267
0.74992
0.668793
0.61273
-0.407597
-0.356323
-0.289688
-0.218249
-0.141628
-0.0630694
0.0114947
0.0731804
0.100121
0.0449601
-0.136913
-0.309676
-0.163377
0.295754
0.620787
0.723944
0.72274
0.639583
0.518971
0.444115
-0.467712
-0.357355
-0.293182
-0.22104
-0.143488
-0.0636328
0.0132613
0.0774148
0.105887
0.0400993
-0.20456
-0.555185
-0.492174
0.117648
0.564411
0.637706
0.548369
0.434549
0.305642
0.235005
-0.378352
-0.359036
-0.298933
-0.225498
-0.14652
-0.0642053
0.0152115
0.0828242
0.114093
0.0409939
-0.296077
-1.069
-1.29246
-0.358422
0.146522
0.106348
0.0134007
-0.0576868
-0.158388
-0.0469761
-0.410453
-0.367554
-0.304323
-0.230461
-0.150061
-0.0660416
0.0163876
0.087608
0.124334
0.0555899
-0.33658
-1.41818
-1.93345
-0.949219
-0.360876
-0.358674
-0.409727
-0.467053
-0.578099
-0.41896
-0.428349
-0.379788
-0.312713
-0.237226
-0.154982
-0.0688619
0.0165747
0.0918453
0.135244
0.074325
-0.363543
-1.67091
-2.32887
-1.41724
-0.916533
-0.820914
-0.870983
-0.929615
-1.08427
-0.878702
-0.445595
-0.392376
-0.322069
-0.244183
-0.159885
-0.07149
0.0167997
0.0964435
0.147256
0.099604
-0.343696
-1.71519
-2.42226
-1.64896
-1.27551
-1.21812
-1.32634
-1.44226
-1.65943
-1.52178
-0.461406
-0.40503
-0.332048
-0.251755
-0.165246
-0.0745019
0.0167839
0.101027
0.160068
0.131586
-0.263705
-1.50965
-2.15741
-1.64395
-1.45464
-1.51269
-1.70687
-1.9284
-2.274
-2.53211
-0.476426
-0.41825
-0.343066
-0.260479
-0.171671
-0.0784534
0.0159727
0.104774
0.172733
0.166292
-0.149562
-1.12836
-1.66467
-1.44454
-1.50396
-1.6971
-1.94133
-2.1716
-2.32197
-2.74207
-0.491986
-0.432441
-0.355394
-0.270624
-0.179522
-0.083716
0.0138427
0.107462
0.184433
0.201969
-0.0146974
-0.679039
-1.1168
-1.18125
-1.43868
-1.81309
-2.10265
-2.13107
-2.16122
-2.24501
-0.508561
-0.447923
-0.369199
-0.282373
-0.188984
-0.0906055
0.0101168
0.108487
0.194254
0.236675
0.120769
-0.257911
-0.600135
-0.878864
-1.33989
-1.91211
-2.41282
-2.21894
-2.16018
-2.27638
-0.526868
-0.465099
-0.38473
-0.29589
-0.200242
-0.0993217
0.00455642
0.107459
0.201466
0.265958
0.235941
0.058707
-0.211045
-0.58896
-1.18906
-2.01668
-3.03989
-3.30674
-2.98201
-2.85308
-0.547538
-0.48442
-0.402316
-0.311431
-0.21355
-0.110078
-0.0031963
0.103714
0.205055
0.288809
0.319837
0.259826
0.0555159
-0.318923
-0.946858
-1.93682
-3.20698
-3.74256
-3.38669
-3.11311
-0.570897
-0.506268
-0.422263
-0.32924
-0.229091
-0.123207
-0.0134305
0.0975081
0.205664
0.303948
0.371725
0.373998
0.238737
-0.0441664
-0.512498
-1.20094
-1.89125
-2.17631
-2.06138
-1.91305
-0.597023
-0.530826
-0.444743
-0.349474
-0.246976
-0.138508
-0.0257995
0.0885956
0.202439
0.312075
0.401808
0.440763
0.380752
0.233198
0.0159177
-0.239816
-0.421127
-0.493219
-0.457766
-0.431866
-0.626141
-0.558233
-0.46976
-0.372052
-0.267118
-0.156201
-0.0408538
0.0772277
0.196393
0.315384
0.420295
0.487389
0.492422
0.459586
0.408469
0.361836
0.360892
0.39803
0.428259
0.435681
-0.657961
-0.588227
-0.49717
-0.396987
-0.289502
-0.175865
-0.0576024
0.0639928
0.187534
0.314899
0.433016
0.522972
0.574395
0.604992
0.633476
0.670984
0.721205
0.772523
0.804515
0.811799
-0.691863
-0.620143
-0.526446
-0.423516
-0.313283
-0.196935
-0.0759083
0.0488687
0.176769
0.311592
0.44088
0.547872
0.628482
0.693061
0.753022
0.812691
0.87115
0.921116
0.950891
0.957553
-0.726527
-0.65326
-0.556912
-0.451094
-0.338038
-0.218915
-0.0950562
0.0327826
0.165167
0.306395
0.444361
0.561998
0.657399
0.736767
0.805665
0.867219
0.921277
0.965115
0.992691
0.99932
-0.761213
-0.686115
-0.587073
-0.478374
-0.362457
-0.24068
-0.114091
0.0168191
0.153586
0.30007
0.444145
0.567021
0.668286
0.751931
0.821406
0.879505
0.927784
0.96649
0.992548
0.999215
-0.793345
-0.716559
-0.615281
-0.503721
-0.385202
-0.260985
-0.131754
0.00218812
0.14253
0.293398
0.441203
0.566226
0.668423
0.751625
0.819379
0.874587
0.919427
0.955225
0.978557
0.985707
-0.819496
-0.742384
-0.638949
-0.524991
-0.404327
-0.278044
-0.146629
-0.0103368
0.132491
0.285659
0.43465
0.559595
0.660587
0.742075
0.807827
0.860903
0.903709
0.937886
0.960268
0.967412
-0.835963
-0.759756
-0.655096
-0.539538
-0.417361
-0.290035
-0.15758
-0.0202884
0.12335
0.276852
0.424486
0.547722
0.646129
0.725368
0.789095
0.840403
0.881739
0.914679
0.936471
0.94374
-0.83885
-0.763755
-0.659975
-0.544139
-0.42204
-0.295072
-0.163396
-0.0271642
0.115101
0.266449
0.410562
0.530376
0.625287
0.701762
0.76338
0.813097
0.853281
0.885185
0.906751
0.914264
-0.821835
-0.75053
-0.648953
-0.534782
-0.415158
-0.291804
-0.163247
-0.0306473
0.10749
0.253792
0.392283
0.506583
0.597102
0.670161
0.729375
0.777407
0.816471
0.847425
0.868962
0.876714
-0.777348
-0.711969
-0.61613
-0.507599
-0.394187
-0.276817
-0.155553
-0.0301203
0.100609
0.2387
0.368727
0.475156
0.559708
0.628222
0.684237
0.730085
0.76755
0.797917
0.819824
0.827637
-0.698327
-0.642397
-0.555668
-0.458152
-0.355803
-0.249605
-0.139432
-0.0249136
0.0947907
0.221163
0.339459
0.435356
0.511374
0.572998
0.623822
0.665961
0.700513
0.728406
0.749817
0.757921
-0.579451
-0.537632
-0.465026
-0.383971
-0.298689
-0.208779
-0.114107
-0.0144657
0.0905903
0.201734
0.305064
0.387518
0.451771
0.502813
0.544156
0.578467
0.606859
0.629157
0.644732
0.650087
-0.399198
-0.379044
-0.336229
-0.283115
-0.222913
-0.155387
-0.0808001
0.000939091
0.0897401
0.185441
0.274957
0.345912
0.400243
0.442286
0.474767
0.499433
0.518372
0.533916
0.546101
0.549834
-0.222072
-0.216545
-0.199167
-0.173529
-0.139101
-0.0954715
-0.0422293
0.0204859
0.0923246
0.172498
0.248622
0.308714
0.353786
0.387228
0.411841
0.429917
0.442759
0.450836
0.455186
0.456253
-0.101422
-0.0999842
-0.0942071
-0.0828393
-0.0650746
-0.0390901
-0.00357031
0.0421729
0.0980226
0.163057
0.226183
0.275996
0.312704
0.339233
0.357784
0.369984
0.377479
0.381901
0.384086
0.384425
-0.0282935
-0.0288697
-0.0279046
-0.0229668
-0.012743
0.00388499
0.028188
0.0613793
0.104055
0.155728
0.206961
0.247449
0.276839
0.297396
0.311227
0.320209
0.325671
0.328496
0.329482
0.329567
0.0135567
0.0132543
0.0136827
0.0163388
0.0224904
0.033533
0.0508039
0.0754219
0.108135
0.14883
0.189846
0.222353
0.245804
0.262099
0.272958
0.279766
0.283682
0.28567
0.286442
0.28655
0.0404424
0.0404189
0.0409438
0.0429636
0.0473192
0.0550487
0.067405
0.0856381
0.11064
0.142507
0.175098
0.201021
0.219633
0.232396
0.240747
0.245948
0.248976
0.25054
0.251167
0.251264
0.0581585
0.0582206
0.058716
0.0602671
0.0635108
0.0692591
0.0784835
0.0922314
0.111392
0.136238
0.161949
0.182473
0.19717
0.207214
0.21378
0.217857
0.220214
0.22143
0.221921
0.221998
0.0696467
0.0697515
0.0702323
0.0714916
0.0739834
0.0783233
0.0852939
0.0957687
0.110524
0.12988
0.150097
0.166289
0.17788
0.185783
0.19093
0.194119
0.195969
0.196929
0.197322
0.197382
0.0767611
0.0768642
0.0772803
0.0782895
0.0802328
0.0835744
0.0889128
0.0969484
0.108342
0.123416
0.139265
0.151998
0.161117
0.167327
0.171369
0.173872
0.175321
0.176073
0.176379
0.176424
0.0805878
0.0806776
0.0810206
0.0818215
0.0833355
0.0859183
0.0900352
0.0962365
0.105062
0.116802
0.12921
0.139203
0.146361
0.151235
0.154405
0.156367
0.157503
0.15809
0.158331
0.158365
0.0819068
0.0819806
0.0822554
0.082885
0.0840662
0.0860705
0.0892571
0.0940599
0.100908
0.110053
0.119755
0.127584
0.133198
0.137022
0.139506
0.141041
0.141927
0.142384
0.14257
0.142595
0.08129
0.0813496
0.0815677
0.0820614
0.0829811
0.0845388
0.0870123
0.0907383
0.096061
0.103187
0.110766
0.116894
0.121289
0.12428
0.126223
0.127424
0.128117
0.128473
0.128613
0.128632
0.0791763
0.0792233
0.0793939
0.0797789
0.0804953
0.0817059
0.0836273
0.0865241
0.0906644
0.0962163
0.102135
0.106924
0.11036
0.1127
0.114221
0.115158
0.115697
0.115974
0.116083
0.116097
0.0759007
0.0759379
0.076072
0.0763726
0.0769302
0.0778716
0.0793656
0.0816167
0.0848366
0.0891614
0.0937767
0.0975173
0.100204
0.102032
0.103219
0.10395
0.10437
0.104584
0.104668
0.104678
0.0717242
0.0717531
0.0718571
0.0720905
0.0725242
0.0732566
0.0744181
0.0761688
0.0786744
0.0820428
0.0856419
0.0885596
0.0906545
0.0920801
0.0930046
0.0935729
0.0938986
0.0940648
0.0941296
0.0941375
0.066847
0.0668694
0.0669503
0.067132
0.0674693
0.0680381
0.0689396
0.0702994
0.0722474
0.0748673
0.0776683
0.0799399
0.0815708
0.0826805
0.0834006
0.0838448
0.0840996
0.0842285
0.0842784
0.0842841
0.0614255
0.0614428
0.0615056
0.0616463
0.0619072
0.0623481
0.0630485
0.0641049
0.065617
0.0676507
0.0698286
0.0715945
0.0728615
0.0737244
0.0742843
0.0746281
0.0748236
0.0749217
0.074959
0.0749635
0.0555829
0.055596
0.055644
0.0557525
0.0559552
0.0562968
0.0568375
0.0576534
0.0588241
0.0604008
0.0620884
0.0634578
0.0644419
0.0651118
0.0655437
0.0658072
0.0659575
0.066033
0.0660616
0.0660647
0.0494128
0.0494229
0.0494598
0.0495428
0.0496974
0.0499594
0.0503767
0.0510061
0.0519086
0.0531247
0.0544257
0.0554817
0.0562395
0.0567526
0.0570854
0.0572906
0.0574067
0.0574643
0.0574861
0.0574884
0.0429918
0.0429992
0.0430266
0.0430893
0.0432067
0.0434067
0.0437258
0.0442084
0.0448999
0.0458306
0.0468265
0.0476332
0.0482104
0.0486028
0.0488564
0.0490112
0.0490996
0.0491443
0.0491613
0.0491631
0.0363763
0.0363819
0.0364023
0.03645
0.0365391
0.0366897
0.0369297
0.0372928
0.0378137
0.0385159
0.0392678
0.039879
0.0403178
0.0406147
0.0408059
0.0409213
0.0409859
0.041018
0.0410292
0.0410303
0.0296151
0.0296193
0.0296348
0.0296699
0.0297347
0.0298464
0.0300249
0.0302936
0.0306788
0.0311979
0.0317536
0.0322033
0.0325256
0.0327416
0.0328792
0.0329646
0.033013
0.0330364
0.0330445
0.0330451
0.022745
0.0227474
0.0227574
0.0227818
0.0228288
0.0229092
0.0230357
0.0232261
0.0234999
0.0238683
0.0242615
0.0245783
0.0248045
0.0249575
0.025056
0.0251149
0.0251472
0.0251625
0.0251656
0.0251649
0.0157966
0.0157987
0.0158059
0.0158224
0.0158542
0.0159064
0.0159874
0.0161111
0.0162884
0.0165277
0.0167848
0.0169936
0.0171431
0.0172453
0.0173079
0.0173416
0.0173568
0.0173604
0.01736
0.0173607
0.00879634
0.00879788
0.00880334
0.00881383
0.00883088
0.00885783
0.00890185
0.00896768
0.0090619
0.00918841
0.00932379
0.00943179
0.00950829
0.0095584
0.00959221
0.00961347
0.00962422
0.0096267
0.00962511
0.00962566
0.00176146
0.00175988
0.00175795
0.00175758
0.0017593
0.00176363
0.00177129
0.00178215
0.00179811
0.00182046
0.00184847
0.00187699
0.00189549
0.00190983
0.00191929
0.0019236
0.00192456
0.00192455
0.00192422
0.00192493
-1.10813
-0.74256
-0.369645
-0.0709942
0.167846
0.361422
0.522821
0.66084
0.734835
0.707618
-0.452666
-0.230053
-0.0109259
0.176
0.33332
0.465279
0.57275
0.650657
0.688662
0.689115
-0.0509785
0.0855849
0.221535
0.342531
0.446316
0.53252
0.599829
0.646426
0.673642
0.680382
0.200491
0.288741
0.377911
0.4567
0.524645
0.581186
0.625424
0.656619
0.677032
0.684938
0.370031
0.426765
0.485084
0.539092
0.586892
0.627512
0.659399
0.681813
0.696158
0.70437
0.491097
0.530104
0.573091
0.614092
0.650145
0.679941
0.703077
0.719755
0.731436
0.741394
0.582949
0.613577
0.649062
0.681049
0.709953
0.735428
0.756997
0.774186
0.784432
0.796753
0.658573
0.688031
0.721881
0.754096
0.78437
0.81109
0.83293
0.849099
0.857999
0.872376
0.740584
0.777222
0.81635
0.852251
0.882913
0.908223
0.928786
0.943947
0.952872
0.968803
0.852065
0.89355
0.934449
0.968972
0.998408
1.02301
1.04262
1.05703
1.06706
1.08454
0.99703
1.03692
1.07344
1.10487
1.13058
1.15253
1.1712
1.18626
1.19849
1.21635
1.17129
1.20435
1.2305
1.25302
1.27337
1.29221
1.30986
1.32628
1.34183
1.35991
1.35989
1.37768
1.39357
1.41023
1.42631
1.44087
1.45386
1.46787
1.48511
1.50467
1.542
1.55292
1.56509
1.57598
1.58537
1.59493
1.60575
1.61731
1.62721
1.64239
1.75241
1.7545
1.73952
1.72457
1.71825
1.7239
1.74263
1.77302
1.80502
1.83571
2.05894
1.92198
1.84555
1.80301
1.78552
1.78974
1.81687
1.87302
1.97672
2.19209
0.432209
0.429127
0.423933
0.415087
0.403026
0.391543
0.382096
0.374873
0.369706
0.366597
0.366054
0.36833
0.372741
0.379109
0.387544
0.398178
0.410293
0.421345
0.427808
0.432045
0.348922
0.35496
0.363236
0.369566
0.373509
0.374339
0.372644
0.369607
0.366557
0.36434
0.363958
0.365761
0.36875
0.372116
0.374787
0.37541
0.373076
0.367834
0.360624
0.352523
0.345046
0.347079
0.351586
0.355633
0.358263
0.359826
0.360645
0.360554
0.359865
0.359265
0.359285
0.360004
0.361038
0.361733
0.361556
0.360455
0.35844
0.355194
0.350698
0.34712
0.34779
0.348209
0.349903
0.352164
0.354225
0.355859
0.356797
0.357145
0.357078
0.356889
0.357009
0.35756
0.358079
0.358164
0.357691
0.356544
0.354766
0.352644
0.350565
0.34949
0.346024
0.346132
0.346547
0.347233
0.347973
0.348799
0.349649
0.350329
0.350755
0.351016
0.351296
0.351587
0.351686
0.351483
0.350913
0.350183
0.349485
0.348829
0.348274
0.348049
0.343093
0.343152
0.343441
0.343924
0.344492
0.345098
0.345688
0.346219
0.346681
0.347087
0.347468
0.347785
0.347881
0.347741
0.347439
0.347007
0.346524
0.346054
0.345687
0.345534
0.339409
0.339436
0.339533
0.339729
0.340014
0.340388
0.340839
0.341342
0.341862
0.342387
0.342884
0.343217
0.343341
0.343298
0.34314
0.34293
0.342724
0.342546
0.342421
0.34237
0.335163
0.335183
0.33526
0.335401
0.335606
0.335887
0.33625
0.336697
0.337222
0.337816
0.338422
0.338895
0.339159
0.339254
0.339249
0.339192
0.339114
0.339036
0.338976
0.338947
0.330681
0.33069
0.330751
0.330863
0.331031
0.331275
0.331612
0.332062
0.332635
0.333333
0.334091
0.334714
0.335119
0.335349
0.335464
0.335509
0.335516
0.335505
0.335489
0.335478
0.325993
0.326001
0.326045
0.32614
0.326295
0.326532
0.326878
0.327363
0.328015
0.32885
0.329798
0.330622
0.331194
0.331568
0.331796
0.331929
0.332
0.332034
0.332046
0.332045
0.321061
0.321063
0.321112
0.321209
0.321371
0.321628
0.322014
0.322574
0.32335
0.324373
0.325568
0.32664
0.327407
0.327932
0.328274
0.328487
0.328614
0.328684
0.328717
0.328725
0.315872
0.315873
0.315923
0.316031
0.316217
0.316517
0.316975
0.31765
0.318601
0.319873
0.321386
0.322763
0.323772
0.32447
0.324934
0.325232
0.325414
0.325518
0.325571
0.325584
0.310367
0.310367
0.310426
0.310554
0.310779
0.311144
0.311708
0.312544
0.313731
0.315332
0.31725
0.319007
0.320305
0.321214
0.321824
0.322218
0.322461
0.322603
0.322675
0.322694
0.304473
0.304472
0.304544
0.304705
0.304985
0.305442
0.30615
0.307203
0.308701
0.310727
0.313161
0.315399
0.317057
0.31822
0.319003
0.319511
0.319826
0.320011
0.320106
0.320133
0.29809
0.298088
0.29818
0.298383
0.298739
0.299319
0.300219
0.301557
0.303462
0.306037
0.309128
0.311971
0.314075
0.315554
0.316552
0.317199
0.317601
0.317837
0.317959
0.317993
0.291081
0.291079
0.291197
0.291458
0.291916
0.29266
0.293813
0.295525
0.297957
0.301237
0.305164
0.308767
0.311431
0.313302
0.314564
0.315383
0.315892
0.316191
0.316346
0.316388
0.283265
0.283263
0.283417
0.283755
0.284348
0.285311
0.286798
0.288999
0.292115
0.2963
0.301288
0.305846
0.309208
0.311567
0.313156
0.314188
0.314829
0.315206
0.315401
0.315455
0.274398
0.274396
0.274599
0.275043
0.275818
0.277072
0.279003
0.281848
0.285854
0.291201
0.297531
0.303286
0.307518
0.310482
0.312478
0.313774
0.314579
0.315052
0.315297
0.315363
0.264148
0.264146
0.264418
0.265008
0.266033
0.267682
0.270208
0.273906
0.279073
0.285911
0.293934
0.30118
0.306492
0.310207
0.312709
0.314332
0.315341
0.315934
0.316239
0.316322
0.252053
0.252055
0.252427
0.253226
0.254599
0.256794
0.260131
0.264972
0.271664
0.280411
0.290556
0.299646
0.306284
0.310926
0.314055
0.316087
0.317353
0.318097
0.318481
0.318584
0.237453
0.237462
0.237988
0.239099
0.240977
0.243948
0.248415
0.254811
0.263514
0.2747
0.287478
0.298818
0.307079
0.312862
0.31677
0.319317
0.320909
0.321849
0.322335
0.322465
0.219358
0.219385
0.220168
0.22177
0.224409
0.228524
0.234613
0.243161
0.254529
0.268808
0.284804
0.298848
0.309063
0.316246
0.321133
0.324341
0.32636
0.327562
0.328192
0.328361
0.196225
0.196311
0.197566
0.199981
0.203834
0.209722
0.218222
0.229789
0.244676
0.262815
0.282659
0.299879
0.312409
0.321297
0.327424
0.331506
0.334115
0.3357
0.336554
0.33679
0.165511
0.165784
0.167986
0.171863
0.177835
0.186663
0.198843
0.214636
0.23408
0.256903
0.281204
0.302033
0.31723
0.328165
0.335875
0.341156
0.344636
0.346825
0.34806
0.348424
0.122471
0.123265
0.127747
0.134752
0.144892
0.158781
0.17651
0.198029
0.22314
0.251401
0.280638
0.305395
0.323543
0.336848
0.346534
0.35347
0.358306
0.361545
0.363522
0.364109
0.0585088
0.0611259
0.0717764
0.08613
0.104396
0.126429
0.151922
0.180687
0.21242
0.246654
0.28107
0.309876
0.331108
0.346998
0.358994
0.368075
0.374923
0.380078
0.383636
0.38434
-0.0201358
-0.0136959
0.00655009
0.0328712
0.061628
0.0929159
0.126756
0.163084
0.201688
0.242274
0.282492
0.316202
0.341486
0.360998
0.376386
0.388736
0.398797
0.407137
0.412596
0.414858
-0.0985013
-0.0841315
-0.053169
-0.0168671
0.0214528
0.061553
0.103359
0.146837
0.191931
0.238529
0.284304
0.322671
0.351626
0.374224
0.392328
0.407098
0.419256
0.429315
0.436776
0.440804
-0.150968
-0.135849
-0.100338
-0.0577494
-0.0127027
0.0341188
0.0824419
0.132048
0.18277
0.234514
0.284875
0.326859
0.358432
0.382919
0.402301
0.417833
0.43035
0.440469
0.447885
0.451721
-0.189568
-0.174254
-0.135405
-0.0891141
-0.0399092
0.0115131
0.0646062
0.118926
0.174141
0.230101
0.284241
0.32913
0.362631
0.388337
0.408434
0.424346
0.437021
0.447149
0.454617
0.458515
-0.218102
-0.20295
-0.162584
-0.113804
-0.0615882
-0.00683498
0.0498222
0.107758
0.166453
0.225679
0.282761
0.329943
0.364984
0.391659
0.412306
0.428477
0.441237
0.451329
0.458826
0.462739
-0.240952
-0.225771
-0.184337
-0.133794
-0.079366
-0.0220429
0.0373473
0.0979927
0.159264
0.22091
0.280288
0.329444
0.365917
0.39355
0.414774
0.431247
0.444131
0.454241
0.461797
0.465722
-0.25988
-0.244656
-0.202159
-0.150203
-0.0940747
-0.0348108
0.0266413
0.0892985
0.152401
0.215722
0.27684
0.327785
0.365777
0.394538
0.416495
0.433397
0.446504
0.456696
0.464309
0.468256
-0.276019
-0.260597
-0.217172
-0.163958
-0.106413
-0.0455884
0.0174239
0.0814904
0.145719
0.209978
0.272304
0.324979
0.364746
0.394964
0.417953
0.435505
0.448978
0.459356
0.467058
0.471073
-0.289966
-0.274391
-0.229975
-0.175683
-0.116894
-0.0547987
0.00940439
0.074384
0.139102
0.203562
0.266517
0.320909
0.362862
0.395053
0.419517
0.43804
0.452088
0.462766
0.470614
0.474689
-0.302276
-0.286407
-0.241091
-0.185784
-0.125871
-0.0626918
0.00242053
0.0678983
0.132499
0.196358
0.259258
0.315351
0.360044
0.394936
0.421503
0.44145
0.45637
0.46753
0.475633
0.479825
-0.313235
-0.297063
-0.250871
-0.194548
-0.133621
-0.0694558
-0.00363682
0.0619932
0.125912
0.188306
0.25028
0.307958
0.356086
0.394636
0.424174
0.446178
0.462381
0.474256
0.482718
0.487034
-0.323226
-0.306629
-0.259615
-0.202224
-0.140313
-0.0752453
-0.00884229
0.0566844
0.119399
0.179405
0.23932
0.298259
0.350621
0.394083
0.42774
0.452668
0.470707
0.483622
0.492602
0.497119
-0.332335
-0.315345
-0.26737
-0.209028
-0.146112
-0.0801615
-0.0132454
0.0520106
0.113076
0.169716
0.226157
0.285707
0.343132
0.393077
0.43238
0.46137
0.481985
0.496373
0.506052
0.510802
-0.34083
-0.323448
-0.274459
-0.215098
-0.151158
-0.0843084
-0.0168862
0.0480084
0.107089
0.159384
0.210603
0.269656
0.332939
0.391275
0.438209
0.472726
0.496848
0.513267
0.523939
0.528941
-0.348743
-0.330936
-0.280967
-0.220573
-0.155572
-0.0877759
-0.0197936
0.0447292
0.101598
0.148653
0.192584
0.249391
0.31917
0.388241
0.445275
0.487208
0.515975
0.535019
0.546988
0.552372
-0.356343
-0.337993
-0.28702
-0.22556
-0.159465
-0.090661
-0.0220242
0.0422232
0.0967802
0.1378
0.172131
0.224163
0.300791
0.383389
0.45356
0.505022
0.53982
0.562225
0.575774
0.581635
-0.363555
-0.344757
-0.292734
-0.230166
-0.162934
-0.0930505
-0.0236552
0.0404913
0.0928066
0.127179
0.149405
0.193237
0.276465
0.375845
0.462563
0.526392
0.569116
0.595704
0.611183
0.617336
-0.370634
-0.351305
-0.29819
-0.234484
-0.166081
-0.0950525
-0.0247487
0.0395007
0.0898116
0.117171
0.124704
0.155788
0.244984
0.364246
0.471995
0.55146
0.604118
0.636085
0.652921
0.658418
-0.377552
-0.357642
-0.303452
-0.238572
-0.16897
-0.0967466
-0.0253917
0.0392271
0.0878728
0.10817
0.0984386
0.110894
0.20426
0.347288
0.481867
0.580688
0.644849
0.683724
0.701191
0.702155
-0.384464
-0.363956
-0.308537
-0.242458
-0.17168
-0.0982184
-0.0256773
0.039594
0.0870341
0.100521
0.071214
0.0586752
0.151089
0.323548
0.491281
0.6122
0.689169
0.737072
0.760613
0.749626
-0.39138
-0.370289
-0.313458
-0.246197
-0.174311
-0.0995571
-0.0256689
0.0405513
0.0873265
0.0942605
0.0422292
-0.00590025
0.0778415
0.28696
0.501787
0.649791
0.732451
0.783134
0.817382
0.822034
-0.398235
-0.376585
-0.318082
-0.249814
-0.176946
-0.100856