/*--------------------------------*- C++ -*----------------------------------*\
| =========                 |                                                 |
| \\      /  F ield         | OpenFOAM: The Open Source CFD Toolbox           |
|  \\    /   O peration     | Version:  2306                                  |
|   \\  /    A nd           | Website:  www.openfoam.com                      |
|    \\/     M anipulation  |                                                 |
\*---------------------------------------------------------------------------*/
FoamFile
{
    version     2.0;
    format      ascii;
    arch        "LSB;label=32;scalar=64";
    class       volVectorField;
    location    "5";
    object      U;
}
// * * * * * * * * * * * * * * * * * * * * * * * * * * * * * * * * * * * * * //

dimensions      [0 1 -1 0 0 0 0];

internalField   nonuniform List<vector> 
8800
(
(0.984982 -0.0882631 0)
(1.00171 -0.0566096 0)
(0.999892 -0.0306671 0)
(1.00022 -0.016112 0)
(0.999494 -0.00888696 0)
(0.999873 -0.00522913 0)
(1.00016 -0.00318863 0)
(1.00027 -0.0018485 0)
(1.00023 -0.000834322 0)
(1.00005 -7.36147e-05 0)
(1.00017 0.000509394 0)
(1.00026 0.0013933 0)
(1.00023 0.00255641 0)
(1.00004 0.0040832 0)
(0.999665 0.0067489 0)
(0.999753 0.0119075 0)
(1.00044 0.0221972 0)
(0.998701 0.0408998 0)
(1.00729 0.0769686 0)
(0.773762 0.0451377 0)
(0.364302 -0.0142857 0)
(1.04757 -0.0717094 0)
(1.08878 -0.064107 0)
(1.04697 -0.0476352 0)
(1.02228 -0.0335666 0)
(1.01017 -0.0223044 0)
(1.00421 -0.0142121 0)
(1.0015 -0.00891481 0)
(1.00068 -0.00521931 0)
(1.00073 -0.00214811 0)
(1.0009 0.000969803 0)
(1.00056 0.00395386 0)
(1.00085 0.0071832 0)
(1.00247 0.0115937 0)
(1.0067 0.0181601 0)
(1.0151 0.0277852 0)
(1.03273 0.0406331 0)
(1.06638 0.0552502 0)
(1.09564 0.0698241 0)
(0.843775 0.0539506 0)
(0.23345 -0.00101573 0)
(1.07899 -0.0382965 0)
(1.09919 -0.03957 0)
(1.06489 -0.0344638 0)
(1.04075 -0.0293429 0)
(1.02485 -0.023408 0)
(1.01513 -0.0173153 0)
(1.00962 -0.0112714 0)
(1.00662 -0.0057753 0)
(1.00532 -0.000860209 0)
(1.00576 0.00381954 0)
(1.00782 0.00893475 0)
(1.01191 0.0146465 0)
(1.01919 0.0206922 0)
(1.03168 0.0266284 0)
(1.05135 0.0322307 0)
(1.08075 0.0371117 0)
(1.10644 0.0405667 0)
(0.957415 0.0316647 0)
(0.233244 0.0010221 0)
(0.213045 0.000281641 0)
(1.03321 -0.0142372 0)
(1.08692 -0.0235025 0)
(1.06321 -0.0272606 0)
(1.04288 -0.0265245 0)
(1.02954 -0.0234248 0)
(1.02042 -0.0189035 0)
(1.01438 -0.0134894 0)
(1.01063 -0.00748955 0)
(1.00894 -0.00103426 0)
(1.00947 0.00547584 0)
(1.01203 0.011583 0)
(1.01678 0.0171372 0)
(1.02426 0.0219998 0)
(1.0352 0.0255404 0)
(1.05176 0.0276962 0)
(1.07584 0.0262044 0)
(1.08344 0.0200241 0)
(0.886177 0.0077162 0)
(0.212711 -0.000280003 0)
(0.213159 4.5316e-05 0)
(1.00171 -0.00519976 0)
(1.06677 -0.0134154 0)
(1.05717 -0.0191278 0)
(1.04496 -0.0213094 0)
(1.03421 -0.0205732 0)
(1.0259 -0.0177447 0)
(1.01984 -0.0132791 0)
(1.01572 -0.00775158 0)
(1.01371 -0.000922725 0)
(1.01421 0.00600344 0)
(1.01713 0.0120388 0)
(1.02213 0.0169987 0)
(1.02909 0.0206314 0)
(1.03863 0.0224372 0)
(1.05025 0.021398 0)
(1.06306 0.0172262 0)
(1.05577 0.00974615 0)
(0.858502 0.00189529 0)
(0.212596 -3.39827e-05 0)
(0.212249 8.42887e-06 0)
(0.984369 -0.00247274 0)
(1.05015 -0.00727485 0)
(1.04832 -0.0115621 0)
(1.0423 -0.0140603 0)
(1.03582 -0.0146204 0)
(1.02999 -0.0134796 0)
(1.02509 -0.0107189 0)
(1.02187 -0.00647568 0)
(1.02 -0.00051682 0)
(1.02041 0.00554336 0)
(1.02281 0.0106814 0)
(1.02684 0.0141646 0)
(1.03206 0.0158433 0)
(1.03795 0.0158931 0)
(1.04408 0.0139848 0)
(1.04939 0.0102326 0)
(1.03611 0.00511372 0)
(0.846222 0.000986599 0)
(0.211499 1.42174e-07 0)
(0.212252 1.78161e-05 0)
(0.976218 -0.000842791 0)
(1.04044 -0.00316 0)
(1.04172 -0.00571812 0)
(1.03898 -0.00773289 0)
(1.03516 -0.00879163 0)
(1.03124 -0.0085231 0)
(1.02757 -0.00688982 0)
(1.02505 -0.00386513 0)
(1.0234 0.000229388 0)
(1.02362 0.0045779 0)
(1.0257 0.00785669 0)
(1.02832 0.0101151 0)
(1.03188 0.0105423 0)
(1.03548 0.00970382 0)
(1.0386 0.0078125 0)
(1.04048 0.00521106 0)
(1.02561 0.00240251 0)
(0.840616 0.000452246 0)
(0.211108 7.34134e-07 0)
(0.212188 2.34509e-06 0)
(0.97283 -0.000489905 0)
(1.03575 -0.00152876 0)
(1.03792 -0.00280186 0)
(1.03666 -0.00395503 0)
(1.03464 -0.0046873 0)
(1.03227 -0.00462678 0)
(1.0298 -0.0036517 0)
(1.02785 -0.00166482 0)
(1.02649 0.000982409 0)
(1.02641 0.00381001 0)
(1.02823 0.00570813 0)
(1.02943 0.00672621 0)
(1.03148 0.00669558 0)
(1.03341 0.00583748 0)
(1.03488 0.00447896 0)
(1.03543 0.0028943 0)
(1.02037 0.00137236 0)
(0.837728 0.000326523 0)
(0.210732 9.42071e-06 0)
(0.212129 6.90952e-06 0)
(0.971169 -0.000211734 0)
(1.03359 -0.000675806 0)
(1.036 -0.00124015 0)
(1.03533 -0.0017751 0)
(1.03419 -0.00212169 0)
(1.0327 -0.00205338 0)
(1.031 -0.00141808 0)
(1.02943 -0.000122377 0)
(1.02822 0.00164355 0)
(1.0279 0.00346061 0)
(1.02903 0.00454926 0)
(1.0296 0.00470721 0)
(1.0307 0.00448256 0)
(1.03169 0.00376343 0)
(1.0324 0.00280819 0)
(1.03244 0.00180436 0)
(1.01741 0.000891832 0)
(0.835901 0.000244326 0)
(0.210398 1.03372e-05 0)
(0.212253 1.4592e-05 0)
(0.970497 3.49996e-05 0)
(1.03271 -0.000113357 0)
(1.03524 -0.0003021 0)
(1.03483 -0.000460912 0)
(1.03411 -0.000511042 0)
(1.03311 -0.000334416 0)
(1.03187 0.000177746 0)
(1.03057 0.00108938 0)
(1.02942 0.00230221 0)
(1.02889 0.00342292 0)
(1.02924 0.00395218 0)
(1.02948 0.0037868 0)
(1.02996 0.00341049 0)
(1.0304 0.00277484 0)
(1.0307 0.00204543 0)
(1.03051 0.00133001 0)
(1.0155 0.000695649 0)
(0.834569 0.000221115 0)
(0.210078 1.30613e-05 0)
(0.212521 1.66247e-05 0)
(0.970534 0.000195857 0)
(1.03257 0.000259169 0)
(1.03515 0.000321869 0)
(1.03486 0.000423651 0)
(1.03434 0.000604708 0)
(1.03357 0.000923692 0)
(1.03257 0.00143934 0)
(1.03139 0.00217481 0)
(1.03021 0.00304115 0)
(1.0294 0.00369989 0)
(1.02916 0.00388548 0)
(1.0291 0.00353538 0)
(1.02918 0.00302589 0)
(1.02929 0.00240318 0)
(1.02936 0.00176242 0)
(1.02904 0.00116516 0)
(1.01403 0.000643031 0)
(0.833408 0.00022891 0)
(0.209728 1.63477e-05 0)
(0.212893 2.19335e-05 0)
(0.971062 0.000343503 0)
(1.03296 0.00056956 0)
(1.03555 0.000817643 0)
(1.0353 0.00112117 0)
(1.03485 0.00150104 0)
(1.03418 0.00198011 0)
(1.03324 0.00257488 0)
(1.03206 0.00326384 0)
(1.03072 0.00393106 0)
(1.0296 0.00427485 0)
(1.02893 0.00413306 0)
(1.02852 0.00368107 0)
(1.02832 0.00306743 0)
(1.02821 0.00240306 0)
(1.02814 0.00176219 0)
(1.02773 0.00118271 0)
(1.0127 0.000679294 0)
(0.832238 0.000261196 0)
(0.209316 2.08031e-05 0)
(0.213395 2.82184e-05 0)
(0.972021 0.000483596 0)
(1.03378 0.000856327 0)
(1.03635 0.0012751 0)
(1.03611 0.00176784 0)
(1.03566 0.0023438 0)
(1.03497 0.00300522 0)
(1.03398 0.00373287 0)
(1.03267 0.00446328 0)
(1.03108 0.00503953 0)
(1.02957 0.0051736 0)
(1.0285 0.00482018 0)
(1.02778 0.00418015 0)
(1.02732 0.00342725 0)
(1.02704 0.00266625 0)
(1.02686 0.00195682 0)
(1.02638 0.0013274 0)
(1.01132 0.000781899 0)
(0.830926 0.000313337 0)
(0.208812 2.62171e-05 0)
(0.214046 3.61134e-05 0)
(0.973401 0.000643147 0)
(1.03502 0.0011685 0)
(1.03756 0.00176452 0)
(1.03728 0.00245735 0)
(1.03677 0.0032492 0)
(1.03599 0.00412432 0)
(1.03486 0.00503605 0)
(1.03331 0.00587746 0)
(1.03134 0.00643839 0)
(1.02937 0.00641686 0)
(1.02787 0.00585452 0)
(1.02683 0.00500768 0)
(1.02613 0.00407089 0)
(1.02568 0.00315434 0)
(1.0254 0.00231644 0)
(1.02486 0.00158075 0)
(1.00974 0.000943657 0)
(0.829365 0.000386167 0)
(0.208187 3.31261e-05 0)
(0.214887 4.64569e-05 0)
(0.975255 0.000840465 0)
(1.03672 0.00154217 0)
(1.03921 0.00234057 0)
(1.03887 0.00326355 0)
(1.03826 0.0043083 0)
(1.03731 0.00544443 0)
(1.03593 0.00659713 0)
(1.03402 0.00761214 0)
(1.03155 0.00821456 0)
(1.02902 0.00806305 0)
(1.02702 0.00727193 0)
(1.02561 0.00617314 0)
(1.02466 0.00499502 0)
(1.02404 0.0038637 0)
(1.02365 0.00283957 0)
(1.02305 0.0019432 0)
(1.00785 0.00116761 0)
(0.827448 0.000483391 0)
(0.207401 4.18529e-05 0)
(0.215974 6.00292e-05 0)
(0.977688 0.00109024 0)
(1.03897 0.00200719 0)
(1.04139 0.00305147 0)
(1.04095 0.00425591 0)
(1.04018 0.0056119 0)
(1.039 0.007074 0)
(1.03727 0.00853526 0)
(1.03487 0.00978794 0)
(1.03174 0.0104764 0)
(1.02849 0.0101959 0)
(1.02591 0.00913609 0)
(1.02407 0.00772381 0)
(1.02282 0.00623393 0)
(1.022 0.00481514 0)
(1.02148 0.00353761 0)
(1.02081 0.00242423 0)
(1.00551 0.00146115 0)
(0.825058 0.00060729 0)
(0.206413 5.26363e-05 0)
(0.217382 7.80131e-05 0)
(0.980846 0.00141276 0)
(1.0419 0.00260146 0)
(1.04422 0.00395514 0)
(1.04365 0.00551192 0)
(1.04267 0.00726037 0)
(1.04116 0.00913373 0)
(1.03896 0.0109877 0)
(1.0359 0.0125486 0)
(1.03192 0.0133598 0)
(1.02777 0.0129329 0)
(1.02446 0.0115416 0)
(1.0221 0.0097313 0)
(1.02049 0.00784193 0)
(1.01944 0.00605352 0)
(1.01878 0.00444633 0)
(1.01801 0.00304756 0)
(1.00259 0.00183881 0)
(0.822054 0.000765137 0)
(0.20517 6.62591e-05 0)
(0.219211 0.00010191 0)
(0.984933 0.00183294 0)
(1.04569 0.00337084 0)
(1.04788 0.00512166 0)
(1.04713 0.00713097 0)
(1.04586 0.00937719 0)
(1.04392 0.0117725 0)
(1.04109 0.0141228 0)
(1.03717 0.0160708 0)
(1.03208 0.0170349 0)
(1.0268 0.016422 0)
(1.0226 0.0146113 0)
(1.0196 0.0122957 0)
(1.01755 0.00989611 0)
(1.01621 0.00763339 0)
(1.01537 0.00560649 0)
(1.01449 0.00384354 0)
(0.998906 0.0023193 0)
(0.818265 0.000964221 0)
(0.203605 8.32053e-05 0)
(0.221603 0.00013429 0)
(0.990226 0.00238927 0)
(1.05058 0.00438193 0)
(1.05261 0.00664784 0)
(1.05161 0.00923836 0)
(1.04995 0.012125 0)
(1.04742 0.0151842 0)
(1.04376 0.0181569 0)
(1.03873 0.0205798 0)
(1.03223 0.0217168 0)
(1.02552 0.0208523 0)
(1.0202 0.0185019 0)
(1.01641 0.0155442 0)
(1.01382 0.012499 0)
(1.01213 0.00963632 0)
(1.01107 0.007075 0)
(1.01005 0.00484851 0)
(0.994262 0.00292477 0)
(0.813486 0.00121489 0)
(0.201636 0.000104241 0)
(0.224755 0.000178922 0)
(0.997094 0.00313672 0)
(1.05691 0.00573062 0)
(1.0587 0.00867288 0)
(1.05736 0.0120194 0)
(1.05517 0.0157269 0)
(1.05186 0.0196268 0)
(1.0471 0.0233725 0)
(1.04061 0.0263625 0)
(1.03231 0.0276726 0)
(1.02383 0.0264557 0)
(1.01712 0.0234127 0)
(1.01235 0.0196419 0)
(1.0091 0.015782 0)
(1.00698 0.0121626 0)
(1.00564 0.00892681 0)
(1.00444 0.00611562 0)
(0.988398 0.00368522 0)
(0.80746 0.00152675 0)
(0.199168 0.000130186 0)
(0.228963 0.000242615 0)
(1.00603 0.0041654 0)
(1.06511 0.00757308 0)
(1.06657 0.0114081 0)
(1.06475 0.0157336 0)
(1.06182 0.0204962 0)
(1.05743 0.0254572 0)
(1.0512 0.0301453 0)
(1.04282 0.0337836 0)
(1.03226 0.0352305 0)
(1.02157 0.0335135 0)
(1.01317 0.0295789 0)
(1.0072 0.0247882 0)
(1.00313 0.0199118 0)
(1.00046 0.015348 0)
(0.998785 0.0112692 0)
(0.997373 0.00772172 0)
(0.981002 0.00464981 0)
(0.799865 0.00192209 0)
(0.196073 0.000163064 0)
(0.234691 0.000341154 0)
(1.01772 0.00565464 0)
(1.07574 0.0101869 0)
(1.07676 0.0151833 0)
(1.07424 0.0207644 0)
(1.07024 0.0268775 0)
(1.06434 0.0331653 0)
(1.05612 0.0389715 0)
(1.04529 0.0433007 0)
(1.03191 0.0447804 0)
(1.01855 0.0423532 0)
(1.0081 0.0372867 0)
(1.00067 0.0312333 0)
(0.995587 0.0251049 0)
(0.992242 0.0193762 0)
(0.990141 0.0142542 0)
(0.988463 0.00978655 0)
(0.971679 0.00589524 0)
(0.790275 0.00243045 0)
(0.192181 0.000205913 0)
(0.242743 0.000509405 0)
(1.03321 0.00795793 0)
(1.0898 0.0140131 0)
(1.09014 0.0204548 0)
(1.0865 0.0276391 0)
(1.08086 0.0354972 0)
(1.07278 0.0434236 0)
(1.06186 0.0504911 0)
(1.04789 0.0554655 0)
(1.03104 0.0567686 0)
(1.0145 0.0533423 0)
(1.00163 0.0468651 0)
(0.99245 0.0392898 0)
(0.986108 0.0316569 0)
(0.981903 0.0245226 0)
(0.979256 0.0181346 0)
(0.977246 0.0125345 0)
(0.95993 0.00759006 0)
(0.778112 0.00312869 0)
(0.187249 0.000268342 0)
(0.254563 0.000813794 0)
(1.05431 0.0117331 0)
(1.10903 0.0196901 0)
(1.10813 0.0279011 0)
(1.10254 0.037236 0)
(1.09429 0.0473721 0)
(1.08302 0.0572176 0)
(1.06842 0.0655421 0)
(1.05044 0.070923 0)
(1.02942 0.0716753 0)
(1.00919 0.0668758 0)
(0.993528 0.0586901 0)
(0.982262 0.0493469 0)
(0.974355 0.0399733 0)
(0.969006 0.0312009 0)
(0.965578 0.0233254 0)
(0.963074 0.0163867 0)
(0.945072 0.010114 0)
(0.762592 0.00421644 0)
(0.180896 0.000371711 0)
(0.272706 0.00139585 0)
(1.08411 0.0183881 0)
(1.1359 0.0286343 0)
(1.13246 0.0393293 0)
(1.12347 0.0516862 0)
(1.11117 0.0644982 0)
(1.09533 0.0761338 0)
(1.07582 0.0852536 0)
(1.05285 0.0904229 0)
(1.02694 0.0899798 0)
(1.00254 0.0833193 0)
(0.983711 0.0731367 0)
(0.969998 0.0618485 0)
(0.960118 0.0505826 0)
(0.953167 0.0400025 0)
(0.948464 0.0304478 0)
(0.945017 0.0219742 0)
(0.926119 0.014073 0)
(0.742826 0.0060345 0)
(0.172649 0.000541116 0)
(0.300466 0.00281225 0)
(1.12714 0.0319097 0)
(1.17249 0.0449471 0)
(1.16396 0.0592058 0)
(1.1494 0.0748864 0)
(1.13112 0.0897104 0)
(1.10908 0.102058 0)
(1.08348 0.110791 0)
(1.05471 0.114624 0)
(1.02338 0.112052 0)
(0.994456 0.10292 0)
(0.972176 0.0904637 0)
(0.955677 0.0771547 0)
(0.943394 0.0640145 0)
(0.934257 0.0516312 0)
(0.92753 0.040349 0)
(0.922224 0.0301619 0)
(0.902095 0.0204108 0)
(0.717713 0.00874606 0)
(0.162644 0.000738335 0)
(0.341978 0.0117179 4.01476e-21)
(1.18378 0.0606974 6.8604e-21)
(1.21767 0.0771441 -3.71313e-21)
(1.20001 0.0941874 0)
(1.17716 0.110824 -1.88444e-34)
(1.15103 0.125232 2.96561e-21)
(1.12173 0.13635 -6.59592e-21)
(1.08945 0.143201 0)
(1.05451 0.144621 1.63511e-34)
(1.01742 0.139224 -1.077e-20)
(0.98361 0.127347 0)
(0.957428 0.112663 -1.39552e-20)
(0.937576 0.0975877 -4.19147e-20)
(0.922187 0.082997 -2.00613e-20)
(0.909973 0.0694069 -6.18545e-21)
(0.900088 0.0572298 -3.71902e-21)
(0.891446 0.0464055 0)
(0.868911 0.0362659 2.66239e-21)
(0.68397 0.0224367 3.11663e-21)
(0.15234 0.00470024 5.56546e-20)
(0.360665 0.0316511 -1.93709e-20)
(1.232 0.111014 9.81616e-22)
(1.2588 0.128794 1.17639e-22)
(1.23258 0.143613 0)
(1.20148 0.158081 -6.77083e-21)
(1.16776 0.170315 -9.37396e-21)
(1.13141 0.179188 -5.99748e-21)
(1.09252 0.183627 -2.55143e-20)
(1.05131 0.182541 0)
(1.00805 0.174583 4.54979e-20)
(0.96851 0.160599 4.74099e-20)
(0.937373 0.144628 1.45922e-20)
(0.913093 0.128955 5.55975e-20)
(0.893493 0.114266 8.05299e-20)
(0.877176 0.101024 0)
(0.863122 0.0896483 1.17777e-19)
(0.850174 0.0804411 1.71968e-19)
(0.824206 0.0720671 1.91468e-19)
(0.65457 0.0539798 -2.21637e-19)
(0.150688 0.0130673 -4.05139e-21)
(0.347078 0.0515552 0)
(1.26325 0.177902 -7.22396e-21)
(1.28964 0.193595 0)
(1.25724 0.203875 3.11283e-21)
(1.21983 0.213744 0)
(1.17983 0.221728 -1.35811e-20)
(1.13738 0.226734 1.11523e-20)
(1.09264 0.227676 -4.67512e-20)
(1.04579 0.223367 -2.73114e-21)
(0.997009 0.212506 2.26181e-20)
(0.952596 0.196407 1.06101e-19)
(0.917578 0.179384 -2.66443e-22)
(0.890117 0.163617 -4.08322e-20)
(0.867862 0.149644 -7.6918e-20)
(0.849376 0.137708 9.28662e-20)
(0.83368 0.127979 -1.65724e-19)
(0.819761 0.120529 -2.24506e-20)
(0.795803 0.113682 0)
(0.640373 0.0905782 1.42326e-21)
(0.153908 0.0224221 0)
(0.333984 0.0684849 -2.17416e-19)
(1.27778 0.247875 8.52705e-20)
(1.30679 0.262784 3.83854e-20)
(1.27119 0.268435 -4.15543e-21)
(1.2299 0.273229 5.15808e-21)
(1.18572 0.276426 2.65233e-20)
(1.13891 0.276995 2.20321e-20)
(1.08972 0.273841 0)
(1.03843 0.265784 -1.01939e-19)
(0.985299 0.25166 0)
(0.93712 0.233266 -5.40428e-20)
(0.899278 0.215145 -7.15528e-20)
(0.869831 0.199186 -4.45119e-20)
(0.846279 0.185554 -5.60847e-20)
(0.82706 0.174226 0)
(0.811105 0.165229 0)
(0.797273 0.158512 -1.47454e-19)
(0.774221 0.151806 2.92413e-20)
(0.626878 0.122238 -1.7248e-20)
(0.152938 0.0304676 -1.98613e-20)
(0.324643 0.0839675 1.65682e-19)
(1.28103 0.316784 0)
(1.31336 0.331534 -1.11925e-19)
(1.27621 0.332895 -1.94103e-20)
(1.23279 0.333168 -4.23755e-21)
(1.18597 0.331831 0)
(1.13606 0.327994 1.73506e-20)
(1.08347 0.320617 4.85149e-20)
(1.02867 0.308638 4.90346e-20)
(0.972068 0.291014 1.06456e-19)
(0.921045 0.270081 0)
(0.881293 0.250588 -1.52442e-19)
(0.850669 0.234041 -9.47553e-20)
(0.826461 0.220272 -5.63362e-20)
(0.806972 0.209057 3.61751e-19)
(0.791015 0.200153 4.38649e-20)
(0.777413 0.193516 2.09708e-19)
(0.755184 0.186393 -1.01048e-18)
(0.613546 0.150998 6.02175e-19)
(0.151396 0.0379197 -7.16332e-19)
(0.318334 0.0985961 1.76842e-19)
(1.2781 0.381496 -3.1156e-20)
(1.31255 0.397628 2.06948e-20)
(1.2747 0.395506 4.84969e-20)
(1.22997 0.391777 2.0156e-20)
(1.18135 0.386349 3.14674e-21)
(1.12925 0.378388 -1.96261e-20)
(1.07418 0.366898 4.70885e-20)
(1.01677 0.350964 -1.04952e-19)
(0.957624 0.329717 0)
(0.904585 0.306062 -6.70087e-20)
(0.863571 0.284947 -2.27827e-21)
(0.832248 0.267471 -1.03737e-19)
(0.807743 0.253213 0)
(0.788225 0.241698 -7.78205e-20)
(0.772416 0.23258 -1.87284e-19)
(0.759064 0.225674 5.14469e-19)
(0.737466 0.217977 -5.13339e-19)
(0.600725 0.17714 7.29658e-19)
(0.149468 0.0447437 -7.48253e-19)
(0.313505 0.112373 -1.15606e-21)
(1.27171 0.442104 3.85788e-20)
(1.30687 0.460086 1.03695e-19)
(1.26861 0.455272 -3.23345e-20)
(1.22307 0.448222 1.16327e-20)
(1.1732 0.439174 0)
(1.11948 0.427387 -1.14375e-20)
(1.06253 0.411998 -4.7293e-20)
(1.00314 0.392159 -5.2076e-20)
(0.942112 0.367226 0)
(0.887681 0.340716 -6.51968e-20)
(0.845864 0.317766 -8.60613e-20)
(0.81418 0.299135 1.11233e-19)
(0.789583 0.284128 -7.04008e-20)
(0.770163 0.272063 -3.35259e-19)
(0.754582 0.262491 2.04609e-19)
(0.741522 0.255156 6.41523e-20)
(0.720532 0.246753 0)
(0.588153 0.200954 -6.97835e-19)
(0.147325 0.0510193 -2.51222e-20)
(0.309626 0.125556 2.88072e-20)
(1.26319 0.499185 -4.42592e-20)
(1.29798 0.518921 -5.52484e-20)
(1.25929 0.51183 -8.94708e-20)
(1.21309 0.501983 6.43618e-20)
(1.16227 0.489786 -1.04397e-20)
(1.10729 0.474539 2.66659e-20)
(1.0489 0.455467 -7.4673e-20)
(0.987994 0.431804 3.67067e-20)
(0.925646 0.403155 -2.49042e-19)
(0.870342 0.373717 -7.59464e-20)
(0.82809 0.348814 0)
(0.796262 0.328889 1.19136e-19)
(0.771714 0.312928 1.45211e-19)
(0.752473 0.30015 1.78013e-19)
(0.737157 0.290008 -2.1998e-19)
(0.724426 0.282123 -6.5841e-20)
(0.704047 0.272847 7.86949e-20)
(0.575744 0.222595 0)
(0.145084 0.0567957 -5.43063e-20)
(0.306433 0.138206 -3.30754e-19)
(1.25335 0.552973 2.06174e-19)
(1.28692 0.574331 5.73976e-20)
(1.24781 0.565272 -6.82501e-20)
(1.20099 0.55302 4.17585e-20)
(1.14931 0.538035 -5.78107e-21)
(1.09327 0.519637 -3.2761e-20)
(1.03367 0.497069 -2.74985e-20)
(0.971618 0.46966 -8.95059e-20)
(0.908397 0.437285 -5.46628e-22)
(0.852667 0.404889 -2.24037e-19)
(0.810272 0.378027 2.07026e-19)
(0.778419 0.356732 -1.29878e-19)
(0.753979 0.339714 1.6033e-19)
(0.734945 0.326103 0)
(0.719899 0.315244 -1.17596e-19)
(0.707512 0.306726 -3.20444e-21)
(0.687788 0.296524 -3.38174e-19)
(0.563487 0.242346 -5.02586e-20)
(0.142678 0.0620648 0)
(0.303911 0.150274 0)
(1.24267 0.603859 2.12354e-19)
(1.27455 0.626453 1.37159e-19)
(1.23484 0.615797 7.73089e-20)
(1.18743 0.60142 3.32812e-20)
(1.13492 0.583953 0)
(1.07786 0.562629 -6.53435e-21)
(1.01717 0.536712 -1.49868e-21)
(0.954217 0.505595 1.88001e-19)
(0.890515 0.469443 -3.14253e-20)
(0.834792 0.434114 -1.60479e-19)
(0.792482 0.405372 1.03233e-19)
(0.760678 0.382734 -3.05387e-21)
(0.736332 0.364614 1.66532e-19)
(0.717456 0.350055 1.0873e-19)
(0.702681 0.338368 -2.54594e-19)
(0.690644 0.32912 3.07176e-19)
(0.671586 0.317949 9.17808e-20)
(0.55122 0.260184 3.81954e-19)
(0.139994 0.0667754 -1.00206e-18)
(0.302044 0.162109 -8.25845e-20)
(1.2316 0.652041 1.2338e-19)
(1.26138 0.67557 -8.85731e-20)
(1.22095 0.663591 -8.93181e-20)
(1.17292 0.647346 0)
(1.11954 0.627629 1.98465e-20)
(1.06145 0.603579 3.43146e-20)
(0.999675 0.574401 5.59163e-20)
(0.935952 0.539556 0)
(0.872109 0.49954 -4.49389e-19)
(0.816853 0.461321 4.17362e-19)
(0.774909 0.430883 0)
(0.74313 0.407079 1.47969e-19)
(0.718722 0.387848 -3.47002e-21)
(0.699911 0.372231 -3.39403e-19)
(0.685332 0.359574 1.33713e-19)
(0.67362 0.349462 0)
(0.655261 0.337272 4.9423e-19)
(0.538846 0.276346 0)
(0.137026 0.0709462 -4.74641e-19)
(0.300794 0.173708 9.02803e-20)
(1.22037 0.697689 1.41823e-19)
(1.2477 0.722062 -9.00467e-20)
(1.20658 0.708838 0)
(1.1578 0.691 4.76239e-20)
(1.10352 0.669229 0)
(1.04434 0.642612 -2.22591e-20)
(0.981426 0.610194 -2.02458e-20)
(0.916942 0.571527 2.92863e-20)
(0.853278 0.527483 -2.17579e-19)
(0.799036 0.486413 4.05819e-20)
(0.757762 0.454668 0)
(0.725938 0.429991 -3.06127e-19)
(0.701196 0.409735 3.95073e-21)
(0.682182 0.392922 0)
(0.667632 0.379119 5.74809e-21)
(0.656197 0.367918 4.46688e-19)
(0.638578 0.354577 -4.33355e-19)
(0.526193 0.290761 1.28025e-19)
(0.133559 0.0744359 0)
(0.299907 0.184956 0)
(1.20956 0.740921 1.5599e-19)
(1.23386 0.766161 1.06332e-19)
(1.19202 0.751781 -4.4662e-21)
(1.14239 0.732539 3.47198e-20)
(1.08707 0.708912 3.42403e-20)
(1.02672 0.679853 1.32131e-20)
(0.962605 0.644236 -2.86309e-20)
(0.897324 0.601562 1.3383e-19)
(0.834063 0.553194 -3.24354e-19)
(0.781481 0.509298 3.73943e-21)
(0.741367 0.476731 -1.2184e-19)
(0.709371 0.451716 4.91488e-19)
(0.683836 0.43067 -5.18864e-21)
(0.664145 0.412603 -2.63679e-19)
(0.64925 0.397314 -4.87255e-19)
(0.637984 0.384708 0)
(0.621126 0.370007 0)
(0.512865 0.3035 1.43066e-19)
(0.129348 0.07706 -8.14176e-20)
(0.299682 0.196203 1.09315e-19)
(1.19889 0.781978 -3.28918e-19)
(1.22021 0.807968 -1.0951e-19)
(1.17751 0.792613 0)
(1.12693 0.772124 -1.05623e-21)
(1.07044 0.746802 4.8151e-20)
(1.00877 0.715434 2.06614e-20)
(0.943317 0.676659 1.00592e-19)
(0.877154 0.629767 1.65443e-19)
(0.814487 0.57662 -2.46888e-19)
(0.764376 0.529776 -3.05748e-19)
(0.726156 0.497079 3.12683e-19)
(0.693875 0.472642 0)
(0.666777 0.451236 -1.15863e-19)
(0.645547 0.431784 -2.9064e-19)
(0.629753 0.414667 -3.54312e-19)
(0.618435 0.4002 -4.34958e-19)
(0.602353 0.383596 1.31244e-19)
(0.498143 0.314438 -7.67269e-20)
(0.123964 0.0784522 1.51145e-21)
(0.299612 0.207484 0)
(1.1885 0.821254 0)
(1.20687 0.847709 1.4323e-21)
(1.16323 0.831499 0)
(1.11163 0.809915 -1.20423e-19)
(1.05383 0.783048 -4.52766e-20)
(0.990641 0.749505 0)
(0.923646 0.707606 1.00434e-20)
(0.856463 0.656321 2.63031e-19)
(0.794524 0.597733 -5.42767e-19)
(0.747825 0.547573 0)
(0.712628 0.51562 -1.82496e-19)
(0.680036 0.493189 -8.26615e-21)
(0.650273 0.472301 -7.80108e-21)
(0.626218 0.451378 3.07445e-19)
(0.608785 0.431662 -1.30999e-21)
(0.596927 0.414765 -9.56474e-19)
(0.58124 0.395478 2.91632e-19)
(0.481081 0.322837 8.71945e-20)
(0.116666 0.078474 0)
(0.299826 0.218613 -3.92828e-19)
(1.17841 0.858682 -1.9526e-19)
(1.19394 0.885488 -2.6375e-19)
(1.14931 0.868561 3.22345e-19)
(1.09661 0.846024 -2.17908e-19)
(1.03743 0.817781 0)
(0.972553 0.782203 1.10004e-20)
(0.903693 0.737246 -2.49766e-20)
(0.835192 0.681368 2.92314e-21)
(0.774095 0.616603 3.73913e-20)
(0.731888 0.562316 3.27363e-19)
(0.701428 0.532056 -5.9098e-20)
(0.66881 0.513784 -2.77047e-19)
(0.634869 0.494944 -1.35527e-19)
(0.606118 0.472922 1.75397e-19)
(0.585558 0.449359 -9.13149e-22)
(0.571699 0.42894 2.69681e-19)
(0.556249 0.405839 -6.42968e-19)
(0.460782 0.328529 7.78001e-19)
(0.107013 0.0763878 1.09179e-19)
(0.300048 0.229455 1.42425e-19)
(1.16881 0.894459 -1.02466e-19)
(1.18152 0.921457 8.68109e-21)
(1.13586 0.90392 1.76985e-19)
(1.08201 0.88056 5.26983e-20)
(1.02135 0.8511 7.92001e-20)
(0.954671 0.813681 -1.54112e-21)
(0.883656 0.765761 -1.05161e-19)
(0.813329 0.705093 -2.70285e-19)
(0.752935 0.633287 -2.78635e-19)
(0.716564 0.573642 0)
(0.693237 0.545878 -2.36004e-19)
(0.661175 0.534755 3.8635e-19)
(0.621653 0.520711 0)
(0.585504 0.497066 -3.7445e-19)
(0.559686 0.468987 2.45269e-19)
(0.542806 0.442332 -2.97155e-19)
(0.528762 0.414275 -3.67585e-19)
(0.436263 0.330442 -6.51504e-19)
(0.0938139 0.071028 -4.99715e-19)
(0.300817 0.240273 -1.53104e-19)
(1.15967 0.928651 1.09165e-19)
(1.16966 0.955727 2.39316e-19)
(1.12296 0.937653 2.42456e-19)
(1.06792 0.913598 -1.0055e-19)
(1.00572 0.883098 5.05373e-20)
(0.937098 0.844035 3.30112e-21)
(0.863685 0.793343 -1.08618e-19)
(0.790958 0.727752 -1.54391e-19)
(0.730759 0.647868 2.48666e-19)
(0.701558 0.58114 5.41914e-19)
(0.688872 0.556149 0)
(0.658996 0.556318 0)
(0.611797 0.551146 -1.58139e-19)
(0.5642 0.526484 0)
(0.52797 0.495545 5.46941e-19)
(0.507508 0.459108 6.72407e-19)
(0.49308 0.422576 0)
(0.402031 0.328423 0)
(0.0755573 0.0614941 5.7147e-19)
(0.301445 0.25062 1.67015e-19)
(1.15099 0.961338 1.31807e-19)
(1.15838 0.988382 1.68543e-19)
(1.11066 0.969844 -2.08663e-19)
(1.05441 0.945201 -1.09315e-19)
(0.990659 0.913834 -6.80767e-20)
(0.919985 0.873361 -8.86194e-21)
(0.843877 0.820128 -4.44901e-21)
(0.768221 0.749644 -1.94414e-21)
(0.707334 0.6606 -1.70901e-20)
(0.686056 0.584292 2.31858e-19)
(0.688506 0.561536 0)
(0.66412 0.578553 3.43964e-19)
(0.607587 0.589132 3.17539e-19)
(0.541604 0.56658 9.28286e-19)
(0.488594 0.525673 2.99794e-19)
(0.460232 0.479568 -3.94612e-19)
(0.445109 0.42799 -2.36124e-19)
(0.355622 0.317732 0)
(0.0526687 0.0461769 6.53489e-19)
(0.302645 0.261265 -3.5947e-19)
(1.14276 0.992536 0)
(1.14766 1.01947 1.84118e-19)
(1.09899 1.00052 -1.6491e-19)
(1.04157 0.97541 1.19416e-19)
(0.976231 0.943348 1.02008e-19)
(0.903476 0.901736 1.85364e-20)
(0.824409 0.846279 -5.86944e-21)
(0.745178 0.771048 0)
(0.682521 0.671879 -2.10146e-19)
(0.669602 0.582531 -3.13525e-19)
(0.692591 0.561415 1.39801e-20)
(0.680239 0.60013 3.89663e-19)
(0.611428 0.629346 0)
(0.51448 0.623643 6.40567e-19)
(0.44213 0.574611 0)
(0.398162 0.504549 0)
(0.377879 0.419385 -2.8017e-19)
(0.297837 0.284561 0)
(0.0498018 0.0309816 1.81027e-19)
(0.30357 0.271354 -3.88736e-19)
(1.13489 1.02246 0)
(1.13746 1.04911 2.98162e-19)
(1.08791 1.02985 0)
(1.02938 1.00442 -6.26807e-20)
(0.96244 0.971884 0)
(0.887571 0.929485 -1.267e-21)
(0.8053 0.872261 1.74592e-20)
(0.721704 0.792599 1.75683e-20)
(0.655833 0.682424 -1.96922e-19)
(0.651464 0.575757 5.86622e-21)
(0.70211 0.552423 8.37801e-20)
(0.710689 0.619853 3.39556e-19)
(0.627394 0.683368 6.96181e-20)
(0.497705 0.684664 5.2493e-19)
(0.38236 0.631706 0)
(0.312299 0.547411 9.20069e-19)
(0.275752 0.409338 -5.61662e-19)
(0.153945 0.222255 6.43435e-19)
(-0.0366724 0.448443 -7.94643e-19)
(0.304712 0.28144 3.15859e-19)
(1.12715 1.05124 4.77052e-19)
(1.12763 1.07756 0)
(1.07734 1.05821 1.88861e-21)
(1.01764 1.0328 1.71378e-19)
(0.949004 1.00013 -1.83372e-19)
(0.87192 0.957466 8.55745e-21)
(0.785935 0.899116 0)
(0.696758 0.815446 1.26591e-19)
(0.625043 0.693128 -1.13791e-20)
(0.628159 0.5623 0)
(0.717404 0.527946 0)
(0.766764 0.630766 2.07414e-19)
(0.658049 0.755567 -2.42805e-19)
(0.473308 0.80027 -5.48703e-19)
(0.303901 0.747079 0)
(0.180849 0.604949 4.72099e-19)
(0.0766247 0.684612 -5.62923e-19)
(0.0819414 1.91836 -3.16882e-19)
(0.107553 2.82027 -4.02812e-19)
(0.305845 0.290498 -2.28746e-19)
(1.11933 1.07883 -5.91883e-19)
(1.11816 1.10462 1.63754e-19)
(1.06736 1.08544 1.36082e-19)
(1.00646 1.06028 0)
(0.936089 1.02778 -1.26285e-19)
(0.856884 0.985436 1.12413e-20)
(0.766761 0.926641 -9.71168e-21)
(0.670871 0.839606 1.77652e-20)
(0.589941 0.704793 1.38247e-19)
(0.597322 0.541138 -1.28221e-19)
(0.736607 0.47877 -2.43887e-19)
(0.845602 0.640589 7.31252e-20)
(0.727796 0.853664 -5.16211e-19)
(0.502484 0.92677 -8.42032e-19)
(0.249552 0.854242 0)
(0.119397 1.02938 0)
(0.190291 2.50961 2.49504e-19)
(0.189069 3.12614 0)
(0.181302 3.29397 5.35505e-19)
(0.311031 0.298108 0)
(1.11097 1.10501 0)
(1.10894 1.12993 0)
(1.05772 1.11132 3.9058e-20)
(0.995591 1.08664 1.38793e-19)
(0.923562 1.05469 -8.7483e-20)
(0.842514 1.01342 1.11199e-20)
(0.747896 0.954769 -1.02316e-20)
(0.644104 0.865625 1.70394e-19)
(0.550397 0.718564 -9.5395e-21)
(0.556441 0.51131 -5.88329e-19)
(0.758163 0.389191 4.45775e-20)
(1.00479 0.558876 -3.88313e-20)
(0.903786 0.914186 7.83729e-20)
(0.572973 1.08446 -1.10926e-20)
(0.242211 1.15818 -5.30546e-23)
(0.25641 2.49065 -1.28904e-18)
(0.292565 3.18811 -4.76932e-19)
(0.255341 3.33412 2.13666e-19)
(0.225519 3.36495 -2.1249e-19)
(0.198328 0.226643 1.23169e-19)
(1.10075 1.12911 0)
(1.10084 1.15393 -3.12416e-19)
(1.04888 1.13636 -3.42922e-19)
(0.985683 1.11245 2.96161e-19)
(0.912207 1.08137 9.18948e-20)
(0.830233 1.04052 -1.71659e-20)
(0.731982 0.983957 1.31509e-19)
(0.619705 0.898206 -1.48856e-19)
(0.507952 0.746164 0)
(0.500128 0.494276 -4.51529e-19)
(0.759462 0.258406 5.19589e-19)
(1.1366 0.503066 0)
(1.12168 1.09916 -6.4365e-21)
(0.679148 1.35187 2.58033e-19)
(0.3021 1.96307 -3.3112e-19)
(0.436132 3.18704 3.33986e-19)
(0.379041 3.349 1.54241e-19)
(0.305103 3.39699 1.74257e-19)
(0.2577 3.41972 1.94359e-19)
(0.373818 0.363182 -1.93308e-19)
(1.0804 1.14454 0)
(1.09026 1.18963 3.14105e-19)
(1.03429 1.17381 3.43524e-19)
(0.969013 1.15126 -2.95914e-19)
(0.892414 1.12148 -9.17476e-20)
(0.803885 1.08176 2.00629e-20)
(0.698183 1.02538 1.20426e-20)
(0.572816 0.936794 1.85435e-19)
(0.432762 0.765295 9.58564e-20)
(0.379028 0.402198 -2.53799e-20)
(0.688403 0.136337 -1.14064e-18)
(1.25421 0.80676 -2.2327e-19)
(1.22234 1.63755 1.24582e-19)
(0.791157 2.15911 -7.51513e-20)
(0.64108 3.18377 4.05571e-20)
(0.563106 3.45566 -2.19962e-20)
(0.461579 3.49146 -2.8332e-20)
(0.373212 3.53092 7.78837e-20)
(0.275343 3.50111 2.1201e-21)
(0.366331 0.365287 0)
(1.08059 1.17075 9.33964e-20)
(1.08264 1.21522 -6.47657e-20)
(1.02582 1.20029 -4.04856e-20)
(0.959157 1.17857 -1.90979e-19)
(0.880979 1.14986 8.95485e-20)
(0.789581 1.11129 -1.64965e-20)
(0.679169 1.0571 1.24443e-20)
(0.543018 0.970626 -2.20313e-19)
(0.372329 0.793758 1.98479e-20)
(0.234509 0.382935 1.46239e-18)
(0.413615 0.272935 -2.56273e-19)
(1.09553 1.28393 3.31915e-19)
(1.22672 2.24121 1.47243e-19)
(0.817879 2.79575 1.61394e-19)
(0.749177 3.5308 5.38545e-20)
(0.590698 3.60748 -4.47961e-19)
(0.497819 3.60989 -3.24936e-19)
(0.3892 3.64879 2.93134e-19)
(0.292215 3.61112 1.30638e-19)
(0.348795 0.362986 2.43434e-19)
(1.07935 1.20121 6.25779e-19)
(1.07538 1.24386 -1.78298e-19)
(1.01727 1.22923 -1.47361e-19)
(0.949146 1.20818 0)
(0.869409 1.18043 1.3755e-19)
(0.77545 1.14343 -2.00513e-20)
(0.660734 1.09223 1.27795e-20)
(0.514115 1.01089 -2.49555e-20)
(0.311333 0.842195 -1.87217e-19)
(0.0613869 0.478562 7.71699e-19)
(0.0740967 0.617131 2.14939e-18)
(0.791716 1.86695 3.26046e-18)
(1.06419 2.80934 -1.88136e-18)
(0.816909 3.45289 -1.05824e-18)
(0.753983 3.74627 0)
(0.611324 3.72191 0)
(0.524426 3.74745 3.13803e-19)
(0.407565 3.78732 0)
(0.289061 3.73929 4.27034e-19)
(0.335564 0.364282 -3.63986e-19)
(1.07584 1.23421 -5.28788e-19)
(1.0673 1.27487 0)
(1.00783 1.26 4.17167e-21)
(0.938375 1.23942 -1.93938e-19)
(0.857185 1.2126 2.07498e-19)
(0.761116 1.17755 -1.56526e-20)
(0.642625 1.13008 9.17517e-21)
(0.486678 1.05709 -2.22208e-19)