/*--------------------------------*- C++ -*----------------------------------*\
| =========                 |                                                 |
| \\      /  F ield         | OpenFOAM: The Open Source CFD Toolbox           |
|  \\    /   O peration     | Version:  2306                                  |
|   \\  /    A nd           | Website:  www.openfoam.com                      |
|    \\/     M anipulation  |                                                 |
\*---------------------------------------------------------------------------*/
FoamFile
{
    version     2.0;
    format      ascii;
    arch        "LSB;label=32;scalar=64";
    class       volScalarField;
    location    "41";
    object      p;
}
// * * * * * * * * * * * * * * * * * * * * * * * * * * * * * * * * * * * * * //

dimensions      [0 2 -2 0 0 0 0];

internalField   nonuniform List<scalar> 
8800
(
0.854619
0.806566
0.768186
0.739538
0.718903
0.704133
0.693508
0.685978
0.681103
0.678991
0.680216
0.684387
0.69103
0.700348
0.71309
0.730668
0.755107
0.788715
0.831158
0.888283
0.687157
0.694361
0.702795
0.706205
0.704281
0.698746
0.692016
0.685829
0.681036
0.678134
0.677804
0.680276
0.684756
0.690731
0.697625
0.704234
0.708358
0.70784
0.701773
0.692792
0.66388
0.670055
0.674247
0.6776
0.680088
0.680869
0.679737
0.677559
0.675479
0.674515
0.675427
0.677781
0.680583
0.682778
0.683294
0.681751
0.678894
0.67525
0.670713
0.666927
0.658769
0.661467
0.664181
0.666482
0.668115
0.669422
0.670303
0.67047
0.670157
0.670057
0.67075
0.671858
0.67261
0.672519
0.671702
0.670491
0.66873
0.66622
0.66379
0.662259
0.653608
0.655029
0.656821
0.658865
0.660602
0.661886
0.662881
0.663711
0.664333
0.664859
0.665433
0.665828
0.665811
0.665423
0.664699
0.663473
0.661758
0.659865
0.658536
0.657713
0.648642
0.649555
0.650783
0.652353
0.653988
0.655489
0.656727
0.657756
0.658688
0.659526
0.660126
0.660354
0.660232
0.659749
0.65884
0.657593
0.656217
0.654932
0.654102
0.653558
0.643827
0.644491
0.645442
0.646729
0.648126
0.649573
0.650984
0.652253
0.653384
0.654406
0.655125
0.655396
0.655236
0.654659
0.653785
0.652779
0.651729
0.650779
0.650184
0.649785
0.639141
0.639652
0.640426
0.64154
0.642798
0.644149
0.645565
0.646988
0.648339
0.649567
0.65045
0.650802
0.650669
0.650185
0.6495
0.648711
0.647887
0.647169
0.646724
0.646414
0.634522
0.634929
0.635576
0.636567
0.637752
0.639049
0.640454
0.641954
0.643491
0.644962
0.646053
0.646554
0.646576
0.646283
0.645799
0.645202
0.644564
0.644026
0.643689
0.643439
0.629894
0.630225
0.630784
0.631697
0.632832
0.634111
0.635541
0.637122
0.638824
0.640556
0.64192
0.64267
0.64293
0.642858
0.642574
0.642171
0.641704
0.641313
0.641059
0.640851
0.625177
0.62545
0.625948
0.626815
0.62793
0.629229
0.630721
0.63242
0.634317
0.636339
0.638056
0.639141
0.639692
0.639868
0.639798
0.639584
0.639282
0.639017
0.638829
0.638652
0.620291
0.62052
0.620979
0.62183
0.622967
0.624329
0.625927
0.627801
0.629962
0.632351
0.634501
0.635981
0.636864
0.637317
0.637476
0.637451
0.63731
0.637156
0.637021
0.636867
0.615159
0.615351
0.61579
0.616656
0.617856
0.619326
0.621088
0.623207
0.625714
0.628571
0.631247
0.633195
0.634456
0.635217
0.635629
0.6358
0.63582
0.635769
0.635679
0.635542
0.609694
0.609856
0.610292
0.611201
0.612506
0.614132
0.616118
0.618558
0.621509
0.624963
0.628278
0.630777
0.632483
0.633601
0.6343
0.634697
0.634876
0.63492
0.63487
0.634746
0.603797
0.603932
0.604379
0.605359
0.606809
0.608645
0.610921
0.613758
0.61725
0.621421
0.625526
0.628715
0.630974
0.632516
0.633547
0.634195
0.634552
0.634696
0.634683
0.634568
0.597348
0.597456
0.597926
0.599005
0.600648
0.602763
0.605423
0.608779
0.612963
0.618029
0.623096
0.627105
0.630013
0.63205
0.633455
0.634388
0.63495
0.635199
0.635224
0.635115
0.590194
0.590288
0.590787
0.591995
0.593889
0.596357
0.599504
0.603523
0.608584
0.614762
0.620999
0.625995
0.62966
0.632293
0.634156
0.635417
0.636203
0.636566
0.636627
0.636522
0.582119
0.582202
0.582761
0.584115
0.586315
0.589233
0.592998
0.597837
0.60398
0.611532
0.619188
0.625371
0.629968
0.633317
0.635739
0.637403
0.638455
0.638944
0.639043
0.638937
0.572835
0.572892
0.573523
0.575088
0.577689
0.581185
0.585726
0.591604
0.599088
0.608309
0.617711
0.625342
0.631041
0.635245
0.638349
0.640497
0.641865
0.642499
0.642637
0.642528
0.561993
0.562031
0.562761
0.564612
0.567726
0.571967
0.57752
0.584748
0.593965
0.605287
0.616755
0.626056
0.633054
0.638265
0.642141
0.644881
0.646622
0.647419
0.647594
0.647476
0.549042
0.549067
0.549928
0.552155
0.555939
0.561151
0.568008
0.576939
0.588283
0.602142
0.616134
0.627468
0.636014
0.642429
0.647249
0.650698
0.652881
0.653859
0.654066
0.653933
0.533173
0.533193
0.53426
0.537029
0.541749
0.548301
0.556938
0.568149
0.582254
0.599251
0.61619
0.629813
0.64011
0.647897
0.653809
0.658066
0.660743
0.66191
0.662141
0.661985
0.513199
0.513224
0.51463
0.518241
0.524345
0.532814
0.543913
0.558137
0.575713
0.596494
0.616878
0.633142
0.645419
0.654758
0.661873
0.667046
0.670244
0.67159
0.671831
0.671645
0.487311
0.487368
0.489368
0.494377
0.50267
0.514006
0.528609
0.546871
0.568822
0.59411
0.618414
0.637588
0.652029
0.663058
0.671486
0.677642
0.681355
0.682847
0.683079
0.68286
0.452479
0.452659
0.45589
0.463508
0.475554
0.491318
0.510947
0.534538
0.561872
0.592385
0.621022
0.643311
0.660042
0.672858
0.682686
0.689824
0.693983
0.695558
0.695753
0.695498
0.402967
0.403998
0.41051
0.423493
0.442068
0.464674
0.491237
0.521561
0.555247
0.591591
0.624858
0.650391
0.669467
0.6841
0.695384
0.703447
0.707942
0.709505
0.709632
0.709341
0.330005
0.337393
0.352474
0.375409
0.403684
0.435443
0.470486
0.508597
0.549377
0.592127
0.630456
0.659569
0.681307
0.698046
0.710994
0.720056
0.724937
0.726552
0.726669
0.72642
0.251684
0.268532
0.292959
0.326546
0.365012
0.406089
0.449729
0.495879
0.544235
0.594199
0.638677
0.67245
0.697736
0.717283
0.732471
0.742928
0.748219
0.749818
0.749978
0.749881
0.18594
0.205941
0.238245
0.280796
0.328222
0.3781
0.430082
0.484115
0.539896
0.596865
0.64722
0.685346
0.713916
0.736035
0.753136
0.76443
0.769927
0.771815
0.772025
0.772017
0.132103
0.154002
0.191722
0.240689
0.29513
0.352378
0.411731
0.472999
0.535761
0.599384
0.655275
0.697432
0.728942
0.753251
0.771825
0.78418
0.790576
0.792373
0.792621
0.792655
0.0872946
0.110392
0.151822
0.205847
0.265954
0.329259
0.394903
0.46257
0.531686
0.601479
0.662521
0.708365
0.742512
0.768766
0.7887
0.801968
0.808892
0.810894
0.811266
0.811322
0.0489923
0.0727873
0.117045
0.175053
0.239898
0.308351
0.379447
0.45277
0.527625
0.603079
0.668864
0.718078
0.754563
0.7824
0.803279
0.817233
0.824623
0.827038
0.827504
0.827573
0.0152041
0.0394599
0.085959
0.147252
0.216103
0.289029
0.364956
0.443364
0.523449
0.604131
0.674327
0.726621
0.765138
0.79417
0.815725
0.830123
0.837884
0.840674
0.841269
0.841347
-0.0155113
0.0091419
0.0574725
0.121615
0.193905
0.27076
0.351011
0.434049
0.518981
0.604582
0.67895
0.734105
0.774395
0.804429
0.8265
0.84128
0.849335
0.852363
0.853018
0.853078
-0.0440487
-0.0190262
0.0308619
0.0974292
0.172794
0.253149
0.337288
0.424578
0.514055
0.604353
0.682748
0.740632
0.782547
0.813459
0.835925
0.850977
0.859212
0.862377
0.863038
0.863064
-0.0711289
-0.0457178
0.00569712
0.0742898
0.152418
0.2359
0.323566
0.414777
0.508535
0.603367
0.685723
0.746296
0.78979
0.82154
0.844433
0.859651
0.867985
0.871226
0.87192
0.871914
-0.097063
-0.0712396
-0.0186708
0.0519633
0.132528
0.218816
0.309688
0.404522
0.502324
0.601557
0.687861
0.751168
0.796305
0.828944
0.852286
0.867705
0.87607
0.879266
0.879971
0.879957
-0.122215
-0.0958377
-0.0422851
0.0301987
0.112952
0.201765
0.295556
0.393736
0.495347
0.598849
0.689136
0.755302
0.802217
0.835857
0.859698
0.875297
0.883678
0.886821
0.887431
0.88737
-0.146671
-0.119901
-0.0652364
0.0088821
0.0935884
0.184675
0.281117
0.382376
0.487557
0.595192
0.689517
0.758729
0.80762
0.842398
0.866802
0.882575
0.890897
0.893929
0.894444
0.894315
-0.170551
-0.143265
-0.0875986
-0.0120433
0.0744042
0.167526
0.266356
0.370424
0.47893
0.590536
0.688941
0.761437
0.812567
0.848669
0.873694
0.889592
0.897754
0.900586
0.900977
0.900797
-0.193946
-0.166069
-0.109459
-0.0326011
0.055392
0.150329
0.251295
0.357906
0.469469
0.584842
0.687336
0.763365
0.817081
0.854761
0.880472
0.896412
0.904292
0.906823
0.907083
0.906867
-0.216874
-0.188336
-0.13083
-0.0527818
0.0365894
0.133118
0.235987
0.344866
0.459198
0.578083
0.684623
0.764419
0.821128
0.860758
0.887282
0.903111
0.910488
0.912614
0.91273
0.912489
-0.239176
-0.210016
-0.151645
-0.0725529
0.0180307
0.115961
0.220491
0.331377
0.448174
0.570278
0.680732
0.764481
0.824613
0.866718
0.894347
0.909905
0.91641
0.917924
0.917874
0.917628
-0.260828
-0.231073
-0.171894
-0.0918631
-0.000225059
0.0989181
0.204899
0.317516
0.436475
0.561456
0.675613
0.763409
0.827369
0.872606
0.901956
0.917273
0.922354
0.922787
0.922479
0.922274
-0.281902
-0.251474
-0.191554
-0.11068
-0.0181143
0.082074
0.189298
0.303387
0.424194
0.551686
0.669226
0.761056
0.829151
0.878197
0.910286
0.926039
0.929306
0.927657
0.92658
0.926596
-0.302225
-0.271209
-0.210567
-0.128942
-0.0355786
0.0655122
0.173783
0.289098
0.411449
0.541068
0.661568
0.757273
0.829662
0.883016
0.91906
0.937
0.939422
0.934878
0.931306
0.930498
-0.321894
-0.290275
-0.228952
-0.146683
-0.0526547
0.0491864
0.158296
0.274589
0.398165
0.529531
0.6525
0.751795
0.828578
0.886407
0.927316
0.949977
0.954761
0.949501
0.939285
0.928861
-0.340837
-0.308666
-0.246842
-0.164104
-0.0696401
0.0327538
0.14241
0.259362
0.383791
0.516419
0.641352
0.743793
0.825265
0.887402
0.932805
0.961676
0.97005
0.960042
0.940291
0.931762
-0.358878
-0.32639
-0.264061
-0.181002
-0.0862337
0.0165456
0.12635
0.24375
0.368641
0.502009
0.628255
0.73283
0.819112
0.884882
0.930765
0.959401
0.971537
0.949003
0.882054
0.8521
-0.37555
-0.344673
-0.280233
-0.196835
-0.10166
0.00107931
0.110415
0.228005
0.352969
0.48646
0.613229
0.71862
0.809075
0.87841
0.916975
0.938316
0.934211
0.882638
0.813808
0.771921
-0.42591
-0.361763
-0.295021
-0.21248
-0.117207
-0.0149142
0.0946311
0.211907
0.336466
0.469369
0.595761
0.70079
0.791576
0.867509
0.880412
0.883847
0.842906
0.777121
0.701714
0.659937
-0.393266
-0.376434
-0.317066
-0.234227
-0.140405
-0.0383248
0.0703739
0.18694
0.310405
0.441616
0.565707
0.668505
0.75019
0.829633
0.823683
0.717473
0.617776
0.547579
0.476237
0.510067
-0.425063
-0.394876
-0.334256
-0.25223
-0.158349
-0.0564988
0.0523715
0.168301
0.290706
0.420077
0.541258
0.640148
0.713391
0.755804
0.711591
0.569551
0.447758
0.359896
0.263749
0.316155
-0.449284
-0.416686
-0.354335
-0.272174
-0.178279
-0.0765296
0.0322372
0.147348
0.268361
0.395312
0.512707
0.605847
0.669685
0.678255
0.576824
0.41059
0.264416
0.149799
0.0229599
0.0596232
-0.47306
-0.439062
-0.375414
-0.292468
-0.198483
-0.0968786
0.0113998
0.125557
0.244986
0.369168
0.481937
0.568493
0.616941
0.594708
0.440983
0.250795
0.0687217
-0.0936113
-0.277915
-0.285396
-0.496366
-0.461896
-0.397356
-0.313735
-0.219584
-0.118179
-0.0105122
0.102576
0.220179
0.341251
0.448787
0.528235
0.55827
0.500894
0.311864
0.105205
-0.103497
-0.280763
-0.528082
-0.796484
-0.520034
-0.485507
-0.420455
-0.336384
-0.242042
-0.140776
-0.0336472
0.0783547
0.194046
0.311813
0.413904
0.484972
0.495814
0.388252
0.199004
-0.00997348
-0.212254
-0.375001
-0.450035
-0.562522
-0.545025
-0.510374
-0.445047
-0.360751
-0.266358
-0.165322
-0.0588225
0.0519318
0.165408
0.279394
0.375642
0.436313
0.422965
0.28107
0.0981408
-0.0941429
-0.25984
-0.349849
-0.372364
-0.388976
-0.571614
-0.536813
-0.471301
-0.386931
-0.292671
-0.192032
-0.0863964
0.0228156
0.133669
0.243244
0.333214
0.380548
0.348874
0.181019
0.00660263
-0.160643
-0.287221
-0.325021
-0.337354
-0.33851
-0.600014
-0.564991
-0.499279
-0.414927
-0.320932
-0.220906
-0.116386
-0.00904448
0.0987617
0.203332
0.286282
0.319176
0.268869
0.0883712
-0.0767683
-0.224675
-0.300974
-0.317676
-0.318776
-0.318583
-0.630285
-0.594963
-0.528999
-0.44473
-0.351151
-0.251931
-0.148794
-0.0436654
0.0606915
0.159725
0.234722
0.255874
0.170744
0.00341953
-0.153676
-0.273151
-0.308913
-0.308063
-0.308007
-0.307484
-0.662139
-0.62658
-0.56036
-0.476251
-0.383234
-0.285046
-0.183583
-0.0810216
0.0194828
0.11253
0.179239
0.184528
0.0791321
-0.0762944
-0.214912
-0.288883
-0.298833
-0.301043
-0.301201
-0.300967
-0.695024
-0.65933
-0.593116
-0.50926
-0.416989
-0.320083
-0.220591
-0.120981
-0.0246995
0.0620581
0.120411
0.111029
-0.00408866
-0.146075
-0.259775
-0.293863
-0.299302
-0.298274
-0.297369
-0.296795
-0.728473
-0.692663
-0.62681
-0.543351
-0.452057
-0.356708
-0.259524
-0.163254
-0.0715957
0.00898231
0.0572704
0.0398497
-0.0807658
-0.206576
-0.293526
-0.305241
-0.29835
-0.2975
-0.29662
-0.295719
-0.761629
-0.725932
-0.660535
-0.577916
-0.487879
-0.394426
-0.299907
-0.207343
-0.120769
-0.0460808
-0.00780873
-0.0266047
-0.147344
-0.255656
-0.312699
-0.313583
-0.304638
-0.297051
-0.294135
-0.293311
-0.79291
-0.75801
-0.693366
-0.611999
-0.523659
-0.4325
-0.341047
-0.252522
-0.171436
-0.102737
-0.0686768
-0.10101
-0.198388
-0.29814
-0.327542
-0.327294
-0.306538
-0.290538
-0.28616
-0.284808
-0.820754
-0.786879
-0.724252
-0.644426
-0.558323
-0.469937
-0.382015
-0.297863
-0.222399
-0.160386
-0.12665
-0.17781
-0.241058
-0.285557
-0.339166
-0.330207
-0.323889
-0.316845
-0.311677
-0.308749
-0.843092
-0.81094
-0.750862
-0.673816
-0.590528
-0.505504
-0.421603
-0.342207
-0.272393
-0.217999
-0.186019
-0.252138
-0.297295
-0.238318
-0.279718
-0.357841
-0.426775
-0.444569
-0.434034
-0.426482
-0.857761
-0.828262
-0.771624
-0.698159
-0.618669
-0.537738
-0.458413
-0.384105
-0.320126
-0.274002
-0.244457
-0.335444
-0.424304
-0.383028
-0.391999
-0.49343
-0.554247
-0.568993
-0.562698
-0.560556
-0.862111
-0.836555
-0.784505
-0.715661
-0.640953
-0.564996
-0.490758
-0.421885
-0.363882
-0.326114
-0.298329
-0.431204
-0.664293
-0.985728
-0.963688
-0.732922
-0.634556
-0.612658
-0.60951
-0.60927
-0.854292
-0.833457
-0.787375
-0.724664
-0.655778
-0.585524
-0.516814
-0.453499
-0.401351
-0.370732
-0.35449
-0.50097
-0.680569
-0.896552
-0.87482
-0.716694
-0.671415
-0.650182
-0.646139
-0.644666
-0.831879
-0.81592
-0.778467
-0.723886
-0.66197
-0.597992
-0.534822
-0.476555
-0.429278
-0.403183
-0.40521
-0.456758
-0.359265
-0.107702
-0.0248822
-0.317406
-0.557776
-0.616575
-0.626152
-0.623487
-0.796966
-0.786429
-0.758192
-0.713356
-0.659294
-0.601773
-0.543641
-0.488843
-0.444167
-0.418882
-0.423328
-0.447221
-0.456397
-0.445981
-0.717671
-1.05915
-1.05321
-0.873303
-0.759484
-0.761322
-0.755294
-0.749274
-0.730794
-0.695479
-0.649348
-0.597345
-0.543017
-0.489615
-0.443323
-0.416485
-0.434472
-0.572925
-0.981516
-1.63147
-2.05392
-2.28251
-2.1938
-1.91967
-1.64391
-1.50067
-0.715201
-0.711777
-0.701764
-0.675235
-0.635084
-0.586792
-0.533895
-0.478803
-0.426162
-0.388273
-0.388446
-0.504028
-0.769225
-1.10289
-1.38295
-1.49222
-1.37321
-1.16662
-0.978782
-0.867455
-0.68342
-0.681339
-0.676296
-0.657288
-0.621424
-0.573683
-0.518733
-0.457594
-0.393134
-0.32318
-0.260979
-0.185569
-0.0922047
0.137243
0.41747
0.737669
1.03372
1.23298
1.34227
1.3863
-0.656798
-0.655944
-0.654654
-0.643599
-0.611526
-0.562292
-0.502085
-0.431858
-0.351814
-0.256803
-0.141888
0.0282344
0.338035
0.766278
1.26315
1.70839
2.05083
2.27908
2.39954
2.43529
-0.639572
-0.639061
-0.638889
-0.633375
-0.605624
-0.553964
-0.487057
-0.408072
-0.315193
-0.206488
-0.0743915
0.0597274
0.351512
0.803581
1.33845
1.83069
2.20773
2.43463
2.53789
2.56713
-0.627152
-0.626686
-0.626436
-0.625192
-0.602749
-0.549119
-0.475451
-0.390012
-0.291543
-0.179365
-0.0565817
0.0761926
0.254571
0.676553
1.15501
1.5818
1.90082
2.0845
2.16573
2.1879
-0.619995
-0.618403
-0.616982
-0.618333
-0.602356
-0.546594
-0.466276
-0.375276
-0.276508
-0.165621
-0.0512018
0.0715216
0.205246
0.495548
0.877708
1.19243
1.43063
1.56676
1.62632
1.64152
-0.625645
-0.624482
-0.62608
-0.629118
-0.609845
-0.543303
-0.454327
-0.358731
-0.260774
-0.15515
-0.0520261
0.0464805
0.137925
0.325285
0.588031
0.813412
0.983706
1.0798
1.12088
1.13041
-0.632239
-0.636152
-0.644163
-0.644067
-0.611674
-0.529493
-0.431613
-0.335307
-0.242501
-0.147724
-0.0631362
0.010672
0.0738005
0.200972
0.380629
0.529648
0.640017
0.701755
0.72719
0.732591
-0.587584
-0.594817
-0.605564
-0.602568
-0.562687
-0.479718
-0.387803
-0.300951
-0.220995
-0.142413
-0.0738901
-0.019289
0.0279369
0.107234
0.227976
0.325993
0.39482
0.431748
0.447005
0.448608
-0.447758
-0.455074
-0.463237
-0.460173
-0.430627
-0.376127
-0.314544
-0.25193
-0.191051
-0.130276
-0.0776262
-0.0407146
-0.00880645
0.0439159
0.119399
0.182302
0.224445
0.246963
0.255015
0.25524
-0.261175
-0.26533
-0.271311
-0.274702
-0.267851
-0.249636
-0.223655
-0.191705
-0.15515
-0.114537
-0.0799947
-0.056126
-0.0359965
0.00141792
0.0489557
0.0873649
0.112796
0.125669
0.130293
0.129836
-0.10407
-0.106106
-0.111539
-0.121661
-0.13336
-0.141772
-0.142621
-0.135184
-0.119346
-0.0965913
-0.0751453
-0.0592842
-0.0468871
-0.0220458
0.00783979
0.0316602
0.0458709
0.05226
0.0540818
0.0531996
-0.0118112
-0.0130195
-0.0181777
-0.0308771
-0.0503662
-0.0698825
-0.0840421
-0.0903579
-0.0880344
-0.0778816
-0.0659208
-0.0568877
-0.0498639
-0.0324174
-0.0127349
0.000449147
0.00757583
0.0103621
0.0108086
0.00984518
0.0270172
0.0261089
0.0217315
0.0103212
-0.00805369
-0.0283067
-0.0460757
-0.0584331
-0.0637031
-0.0617134
-0.0559618
-0.0506408
-0.0463404
-0.0348536
-0.0225208
-0.0147111
-0.0110776
-0.0100606
-0.0102039
-0.0111893
0.0358795
0.0352168
0.0319868
0.0233689
0.00891932
-0.00812868
-0.0244934
-0.0377204
-0.0459763
-0.048143
-0.0455493
-0.0408791
-0.0361029
-0.0282446
-0.0220576
-0.0189812
-0.0175091
-0.0172163
-0.0175813
-0.0185631
0.0311437
0.0306818
0.0284885
0.0225861
0.0123483
-0.000468285
-0.013787
-0.0256101
-0.0343
-0.038097
-0.036408
-0.0306155
-0.0241407
-0.0198308
-0.0186866
-0.0178743
-0.0172501
-0.0170999
-0.017443
-0.0184416
0.021662
0.0213365
0.0199085
0.0161036
0.00927473
0.000224533
-0.00982549
-0.0194886
-0.0274159
-0.0317736
-0.0304968
-0.0237596
-0.0157096
-0.0139827
-0.0156905
-0.0159867
-0.0154768
-0.0148313
-0.0149688
-0.0160053
0.0117374
0.0114901
0.0105696
0.00821998
0.00385979
-0.00227967
-0.00960161
-0.0172542
-0.0243059
-0.0291938
-0.0292438
-0.0237239
-0.0166262
-0.0173842
-0.0196742
-0.0188988
-0.016896
-0.0152599
-0.015127
-0.0162273
0.00333074
0.00312579
0.00251421
0.00107565
-0.00165652
-0.00577804
-0.0111342
-0.017277
-0.0237595
-0.0296666
-0.0329542
-0.0322724
-0.0303782
-0.0327182
-0.0326441
-0.0293905
-0.0252172
-0.0226626
-0.0222418
-0.0232957
-0.00283678
-0.00302281
-0.00347601
-0.00440917
-0.00616613
-0.00900489
-0.0130395
-0.0182207
-0.024478
-0.0319609
-0.0399459
-0.0470738
-0.0531305
-0.0558271
-0.0512196
-0.044463
-0.0390019
-0.0363733
-0.0360087
-0.0368868
-0.00669082
-0.00686457
-0.00723833
-0.00793137
-0.00913868
-0.0112396
-0.014399
-0.0188922
-0.0250824
-0.0342149
-0.0470364
-0.0626925
-0.0765676
-0.0777751
-0.0686492
-0.0597549
-0.0543018
-0.0518388
-0.0515725
-0.052193
-0.00852031
-0.00867358
-0.00899251
-0.00956786
-0.0105438
-0.0121889
-0.0148044
-0.0187469
-0.0246932
-0.0345831
-0.0500281
-0.0714018
-0.0900732
-0.0887373
-0.0769856
-0.0680031
-0.0634676
-0.0620686
-0.0619126
-0.0622702
-0.0088061
-0.00894672
-0.00923424
-0.00975547
-0.0105449
-0.011877
-0.0140976
-0.0174693
-0.0228449
-0.031836
-0.0467309
-0.0677647
-0.0848208
-0.0809887
-0.070825
-0.0645261
-0.0620756
-0.0615777
-0.0615474
-0.0618088
-0.00797118
-0.00809705
-0.00832225
-0.00875513
-0.00947446
-0.010464
-0.0122274
-0.0149224
-0.019061
-0.0259026
-0.0365128
-0.0509739
-0.0608669
-0.057043
-0.0521023
-0.0507006
-0.0506525
-0.0508048
-0.0509679
-0.0512327
-0.00636886
-0.00646997
-0.00662307
-0.00698107
-0.00754074
-0.00840773
-0.0096049
-0.0115262
-0.0142757
-0.0180525
-0.0226184
-0.0271939
-0.0290119
-0.0264979
-0.0276886
-0.0309389
-0.0325989
-0.0331494
-0.0335794
-0.033898
-0.00432072
-0.00438963
-0.00447746
-0.00469945
-0.00508971
-0.00581663
-0.00658362
-0.0076672
-0.00908495
-0.0103284
-0.00958085
-0.00463014
0.000889064
-6.11937e-05
-0.0061973
-0.0111775
-0.0130614
-0.0136876
-0.0144767
-0.0149351
-0.00231186
-0.00238669
-0.00242622
-0.00251503
-0.00280554
-0.00313387
-0.00373621
-0.00431943
-0.00464113
-0.00400536
-0.000934331
0.00943762
0.0215836
0.0165001
0.00587341
0.000945226
0.00080936
0.00103546
-0.000256674
-0.000894981
-0.000247998
-0.00031297
-0.000379542
-0.000418099
-0.000500621
-0.000733026
-0.000999461
-0.000955785
-0.000758418
-0.000419713
0.000544335
0.00357569
0.0105151
0.00989523
0.00531584
0.00337513
0.000864486
-0.000494567
-0.000326399
-3.22747e-05
-0.0870939
0.103251
0.307323
0.478132
0.614955
0.723395
0.813826
0.889547
0.920233
0.904008
0.24371
0.368909
0.49982
0.612994
0.708516
0.787833
0.851651
0.896294
0.919473
0.932251
0.466783
0.551593
0.640537
0.719772
0.787842
0.844703
0.889704
0.922813
0.947075
0.964906
0.628536
0.688632
0.751203
0.808991
0.859063
0.901472
0.936295
0.964405
0.987182
1.00542
0.755127
0.798267
0.845812
0.889523
0.928499
0.962515
0.991654
1.01619
1.03615
1.05408
0.859762
0.893149
0.931987
0.967711
1.00045
1.02989
1.05568
1.07753
1.09467
1.11226
0.952835
0.981907
1.01617
1.04856
1.07864
1.10597
1.12992
1.14986
1.16454
1.18199
1.04173
1.07127
1.10538
1.13764
1.16735
1.19405
1.21704
1.23554
1.24824
1.2657
1.13725
1.1709
1.20739
1.24117
1.27127
1.29747
1.31941
1.33653
1.348
1.36581
1.25224
1.29085
1.32912
1.36336
1.39264
1.41733
1.43764
1.45336
1.4647
1.48305
1.39701
1.43652
1.4721
1.50252
1.5281
1.55016
1.56918
1.58471
1.59737
1.6155
1.57179
1.60384
1.62964
1.65199
1.67205
1.6908
1.70843
1.72498
1.74073
1.75893
1.75941
1.77697
1.7925
1.8091
1.82526
1.83981
1.85283
1.86681
1.8839
1.90358
1.941
1.95198
1.96413
1.97492
1.98418
1.99374
2.00462
2.01621
2.02616
2.04134
2.15204
2.15406
2.1389
2.12367
2.11728
2.12295
2.14156
2.17198
2.20411
2.23486
2.45794
2.32089
2.24461
2.20252
2.18508
2.18911
2.21647
2.27261
2.37607
2.59135
0.75091
0.747533
0.741603
0.731792
0.718844
0.706413
0.696091
0.688127
0.682447
0.679131
0.678717
0.681415
0.686501
0.693727
0.703148
0.714825
0.727948
0.739933
0.747386
0.752104
0.66893
0.674815
0.681718
0.686952
0.689791
0.689452
0.686535
0.682593
0.679
0.676672
0.676465
0.678617
0.682267
0.686595
0.690522
0.692508
0.691385
0.687285
0.681386
0.67434
0.661293
0.66364
0.666985
0.669885
0.672093
0.673882
0.674824
0.674545
0.673483
0.672541
0.67265
0.674019
0.67579
0.677034
0.677052
0.675861
0.674038
0.671684
0.66852
0.665553
0.656172
0.657259
0.65912
0.661493
0.663442
0.664819
0.665894
0.666724
0.667153
0.667346
0.667769
0.668488
0.668978
0.668902
0.668345
0.667446
0.666022
0.663949
0.661827
0.660409
0.651106
0.651761
0.652865
0.654577
0.656369
0.657968
0.659209
0.660202
0.661076
0.661835
0.662487
0.662927
0.663005
0.662747
0.662144
0.661079
0.659614
0.658019
0.656682
0.655895
0.646219
0.646675
0.647454
0.64874
0.65022
0.651733
0.653171
0.654418
0.655496
0.656483
0.6573
0.657751
0.657799
0.657456
0.656704
0.655651
0.654472
0.653305
0.652376
0.651851
0.641474
0.641815
0.64242
0.643477
0.64475
0.646105
0.647522
0.648926
0.65023
0.651414
0.6524
0.652962
0.653028
0.652656
0.651968
0.651117
0.650211
0.649308
0.648615
0.64823
0.636831
0.637096
0.637584
0.638482
0.639632
0.640903
0.642265
0.643708
0.645177
0.646588
0.647787
0.648494
0.648648
0.648396
0.647894
0.647247
0.64653
0.645838
0.64532
0.645025
0.632219
0.632429
0.632834
0.633622
0.634693
0.635913
0.637257
0.638735
0.640322
0.64195
0.643404
0.64433
0.644681
0.644638
0.64434
0.643888
0.643354
0.642839
0.642454
0.642222
0.627556
0.627725
0.628071
0.628787
0.629811
0.631007
0.632373
0.633919
0.63564
0.637493
0.639248
0.640481
0.641113
0.64132
0.64124
0.640984
0.640633
0.640271
0.639995
0.639811
0.622764
0.6229
0.623204
0.623876
0.624884
0.626102
0.627527
0.629183
0.631086
0.633208
0.63533
0.636956
0.637928
0.638421
0.638584
0.638532
0.638356
0.638138
0.637952
0.637804
0.617765
0.617873
0.61815
0.618803
0.61983
0.621114
0.622644
0.62447
0.626628
0.629106
0.631687
0.63378
0.635142
0.635954
0.636381
0.636545
0.636544
0.636462
0.636353
0.636235
0.612477
0.612562
0.612821
0.613481
0.614564
0.615956
0.617644
0.619705
0.6222
0.625139
0.628292
0.630942
0.632758
0.633938
0.63466
0.635064
0.635247
0.635294
0.635254
0.635159
0.606809
0.606872
0.607122
0.60781
0.608983
0.610529
0.612433
0.614797
0.617708
0.621217
0.625072
0.628403
0.630775
0.632397
0.633465
0.634142
0.634527
0.634708
0.634733
0.634659
0.600652
0.600693
0.600942
0.601677
0.602978
0.604728
0.606916
0.609668
0.613108
0.617321
0.622036
0.626202
0.629248
0.631397
0.632864
0.633843
0.634469
0.634795
0.634884
0.634828
0.59388
0.593895
0.594143
0.594948
0.596416
0.598431
0.600989
0.604251
0.60837
0.613465
0.619235
0.624413
0.628258
0.631024
0.632955
0.634288
0.635187
0.635673
0.635829
0.635789
0.586287
0.586295
0.586554
0.587445
0.589132
0.591476
0.594505
0.598405
0.603383
0.609597
0.616671
0.623049
0.627839
0.631342
0.633848
0.63562
0.636824
0.637484
0.63771
0.637685
0.577627
0.577599
0.577906
0.578926
0.580875
0.583639
0.587262
0.591957
0.597979
0.605532
0.61419
0.622065
0.628028
0.632425
0.635619
0.637932
0.639511
0.640379
0.640684
0.640672
0.567605
0.567553
0.567902
0.569096
0.571385
0.574695
0.57908
0.584809
0.592197
0.601468
0.612069
0.621699
0.629009
0.63445
0.638465
0.641411
0.643431
0.64454
0.64493
0.644928
0.555762
0.555683
0.556104
0.55753
0.560262
0.564278
0.56965
0.576699
0.585793
0.597177
0.610138
0.621882
0.630818
0.637515
0.642506
0.646201
0.648753
0.650145
0.650623
0.650627
0.541431
0.541327
0.541866
0.543611
0.54693
0.551891
0.558578
0.567365
0.578657
0.592674
0.60849
0.622727
0.63355
0.641698
0.647841
0.652431
0.655612
0.657323
0.657891
0.657891
0.523621
0.523495
0.524231
0.526462
0.530642
0.536955
0.545479
0.556627
0.570796
0.588118
0.607332
0.624431
0.637378
0.647176
0.654631
0.660212
0.664087
0.666131
0.666779
0.666767
0.500861
0.500724
0.501796
0.504804
0.510316
0.518647
0.529797
0.544163
0.562045
0.583405
0.606621
0.626999
0.642346
0.653963
0.662863
0.669571
0.67419
0.676562
0.67727
0.677235
0.47081
0.470704
0.472394
0.476776
0.484566
0.496092
0.511141
0.529975
0.552657
0.578922
0.606723
0.630693
0.648619
0.662193
0.672623
0.680531
0.685879
0.688526
0.689261
0.689194
0.429357
0.429426
0.43249
0.439749
0.451769
0.468538
0.489381
0.514237
0.542899
0.574898
0.607795
0.635623
0.656252
0.671859
0.683911
0.693048
0.699041
0.701851
0.702557
0.702451
0.368817
0.370029
0.377545
0.391261
0.411025
0.436117
0.465107
0.49763
0.533384
0.571797
0.610131
0.641928
0.665294
0.682935
0.696581
0.706857
0.713376
0.716183
0.716751
0.716606
0.296266
0.29841
0.312876
0.336591
0.367149
0.402051
0.439943
0.480701
0.524127
0.569719
0.614488
0.651362
0.678473
0.699025
0.714831
0.7266
0.733877
0.736851
0.737502
0.73748
0.221583
0.228094
0.249574
0.283407
0.32427
0.368752
0.415554
0.464608
0.515808
0.568713
0.620131
0.662312
0.693325
0.716954
0.735314
0.748849
0.756747
0.75946
0.75995
0.760024
0.160827
0.16938
0.195476
0.23637
0.285182
0.337786
0.392615
0.449439
0.508061
0.568009
0.625791
0.672945
0.707557
0.733915
0.754303
0.769096
0.777322
0.780408
0.781368
0.781517
0.111223
0.120378
0.149997
0.196047
0.250926
0.310051
0.371622
0.435284
0.500667
0.567177
0.630932
0.682716
0.720581
0.749347
0.771511
0.787439
0.796559
0.800311
0.801471
0.801645
0.069531
0.0789444
0.110967
0.160974
0.220795
0.285319
0.35259
0.422194
0.493616
0.566121
0.635398
0.691438
0.732259
0.763141
0.786798
0.803707
0.813615
0.817839
0.819177
0.81935
0.0333071
0.042829
0.0766538
0.129823
0.193731
0.262858
0.335093
0.409944
0.486795
0.564772
0.639142
0.699099
0.742579
0.775217
0.799923
0.817477
0.828085
0.832735
0.834192
0.83439
0.000926797
0.0104919
0.0456882
0.101568
0.168908
0.241983
0.318613
0.39818
0.479983
0.563024
0.642165
0.705779
0.751639
0.785735
0.811228
0.829316
0.840337
0.845345
0.846921
0.84714
-0.0288196
-0.0191992
0.0171177
0.0753378
0.14563
0.222196
0.302731
0.386571
0.472948
0.560759
0.644448
0.711539
0.759589
0.794958
0.821121
0.83961
0.850894
0.85619
0.857823
0.858032
-0.0567232
-0.0470462
-0.00968926
0.0504798
0.123421
0.203109
0.28714
0.374878
0.465511
0.557855
0.645956
0.716436
0.766584
0.803125
0.829887
0.848665
0.860118
0.865541
0.86719
0.867415
-0.0832823
-0.0735269
-0.0352414
0.0266298
0.101982
0.184442
0.271633
0.362938
0.457538
0.554216
0.646643
0.720504
0.772758
0.810483
0.837862
0.856953
0.868544
0.873996
0.87564
0.875762
-0.108915
-0.0989972
-0.0598825
0.00357524
0.0810741
0.166016
0.256066
0.350636
0.448944
0.549762
0.646458
0.723764
0.778222
0.817227
0.845285
0.864696
0.876402
0.881814
0.8834
0.883513
-0.133826
-0.123679
-0.08385
-0.0188665
0.0605464
0.147712
0.240348
0.337911
0.439663
0.544434
0.645351
0.726219
0.783054
0.823489
0.852321
0.872074
0.883865
0.889213
0.890697
0.89078
-0.158084
-0.147734
-0.10714
-0.0407857
0.0403209
0.129481
0.224447
0.324731
0.429668
0.538179
0.643267
0.727851
0.787297
0.829364
0.859077
0.879186
0.89099
0.89619
0.897541
0.897561
-0.181823
-0.171187
-0.129843
-0.0622385
0.0203717
0.111308
0.208358
0.3111
0.418959
0.53098
0.640144
0.728599
0.790954
0.834925
0.865658
0.886106
0.897833
0.902797
0.90395
0.903898
-0.205004
-0.194082
-0.152018
-0.0832595
0.000706603
0.0932176
0.192121
0.297061
0.407561
0.522825
0.635927
0.728374
0.793974
0.840217
0.872174
0.892936
0.904407
0.908977
0.909899
0.909786
-0.227678
-0.216437
-0.17361
-0.103819
-0.0186468
0.075246
0.175783
0.282675
0.395528
0.513735
0.630572
0.727079
0.796259
0.845242
0.878771
0.899846
0.910796
0.914739
0.915364
0.915194
-0.249661
-0.238177
-0.194597
-0.123872
-0.0376375
0.0574676
0.159415
0.268015
0.382934
0.503768
0.624061
0.724617
0.797668
0.849926
0.885598
0.907168
0.917255
0.920128
0.920304
0.920084
-0.27109
-0.259256
-0.214968
-0.143396
-0.0562301
0.0399252
0.14311
0.253164
0.369868
0.493008
0.616406
0.720884
0.798014
0.854072
0.892697
0.915405
0.924453
0.925504
0.924745
0.924443
-0.291809
-0.279652
-0.234697
-0.162345
-0.0743453
0.0227055
0.126951
0.238242
0.35644
0.481525
0.607653
0.715793
0.797087
0.857351
0.899823
0.924982
0.933713
0.932311
0.929308
0.928137
-0.311872
-0.299408
-0.253731
-0.180668
-0.091947
0.00587815
0.111025
0.223332
0.342762
0.469461
0.597885
0.709265
0.794686
0.85932