/*--------------------------------*- C++ -*----------------------------------*\
| =========                 |                                                 |
| \\      /  F ield         | OpenFOAM: The Open Source CFD Toolbox           |
|  \\    /   O peration     | Version:  2306                                  |
|   \\  /    A nd           | Website:  www.openfoam.com                      |
|    \\/     M anipulation  |                                                 |
\*---------------------------------------------------------------------------*/
FoamFile
{
    version     2.0;
    format      ascii;
    arch        "LSB;label=32;scalar=64";
    class       surfaceScalarField;
    location    "41";
    object      phi;
}
// * * * * * * * * * * * * * * * * * * * * * * * * * * * * * * * * * * * * * //

dimensions      [0 3 -1 0 0 0 0];

oriented        oriented;

internalField   nonuniform List<scalar> 
17370
(
-0.0910991
0.0935442
0.286566
-0.0749527
0.056952
0.364776
-0.0409345
0.0299501
0.427153
-0.021194
0.0155922
0.504853
-0.01134
0.00863856
0.602104
-0.00650529
0.00505465
0.720508
-0.00384178
0.00297772
0.863771
-0.00221748
0.00164682
1.03602
-0.00112017
0.000701915
1.24292
-0.000292369
-9.90166e-05
1.49158
0.000483209
-0.000892123
1.4916
0.00129342
-0.00179636
1.24319
0.00234648
-0.00308896
1.03638
0.00394313
-0.00515043
0.864114
0.0065969
-0.00872347
0.721184
0.0114163
-0.0156572
0.603456
0.0212488
-0.0299942
0.508185
0.0409694
-0.056978
0.432177
0.0749728
-0.0935559
0.365359
0.0911113
0.1979
-0.127344
0.08814
0.0392042
-0.364734
0.353784
-0.0726341
0.0835839
-0.446564
0.454365
-0.0817187
0.0739176
-0.520968
0.529523
-0.0658081
0.0572534
-0.612846
0.621015
-0.0495003
0.0413316
-0.726998
0.733786
-0.0344022
0.0276139
-0.867515
0.87244
-0.0222764
0.0173506
-1.03855
1.04189
-0.0136427
0.0103005
-1.24471
1.24712
-0.00775164
0.00534541
-1.49284
1.49485
-0.00338279
0.00137129
-1.49269
1.49451
0.000447131
-0.00226566
-1.2441
1.24602
0.00424052
-0.00615425
-1.0376
1.04009
0.00849735
-0.0109857
-0.866161
0.869819
0.0142646
-0.0179234
-0.724481
0.729782
0.0228045
-0.0281053
-0.608891
0.615779
0.0348524
-0.0417411
-0.514992
0.522702
0.0498632
-0.0575733
-0.439772
0.447836
0.0660782
-0.0741421
-0.37516
0.377001
0.0818913
-0.083732
-0.256922
0.223429
0.0727369
-0.0392441
-0.0686443
0.0589123
0.00973196
-0.0520894
0.0587915
-0.374535
0.367833
-0.0579081
0.0540833
-0.453824
0.457649
-0.0487251
0.0443852
-0.527736
0.532076
-0.0401605
0.0363778
-0.621095
0.624878
-0.0321569
0.0280929
-0.734871
0.738935
-0.023633
0.0196523
-0.874042
0.878022
-0.0155266
0.0120179
-1.04339
1.0469
-0.00845827
0.00540116
-1.24866
1.25171
-0.00217379
-0.000822996
-1.49694
1.49994
0.00379959
-0.00697095
-1.49743
1.5006
0.00994835
-0.0134012
-1.2501
1.25356
0.0168049
-0.0208163
-1.04573
1.04975
0.0247019
-0.0290707
-0.877327
0.881696
0.0330595
-0.0372006
-0.739322
0.743463
0.0409102
-0.0450573
-0.626355
0.630502
0.0493318
-0.0546274
-0.534946
0.540242
0.0583873
-0.0591889
-0.457929
0.458731
0.0523887
-0.0320252
-0.336412
0.316048
0.00978246
-0.0685139
0.0587315
-0.0531507
0.0490983
0.00405239
-0.0331874
0.0436887
-0.358353
0.347852
-0.0474118
0.0468285
-0.459498
0.460082
-0.0438537
0.0405845
-0.53601
0.539279
-0.0368739
0.0335394
-0.628428
0.631763
-0.0299784
0.0268357
-0.742243
0.745386
-0.0234988
0.0203434
-0.88156
0.884715
-0.016758
0.013389
-1.05038
1.05375
-0.00966513
0.00623621
-1.25501
1.25844
-0.00241921
-0.00122425
-1.50332
1.50696
0.00483949
-0.00857511
-1.50413
1.50787
0.011893
-0.0154664
-1.25718
1.26075
0.0186837
-0.0221
-1.05352
1.05693
0.0251132
-0.0283135
-0.885305
0.888505
0.0313447
-0.0347907
-0.746957
0.750403
0.0380217
-0.041621
-0.634525
0.638125
0.0447939
-0.0476626
-0.544478
0.547347
0.0481377
-0.0442642
-0.456909
0.453036
0.033585
-0.0162436
-0.296694
0.279353
0.00411247
-0.0529167
0.0488042
-0.0459734
0.0434447
0.00252873
-0.0229512
0.0333307
-0.3372
0.326821
-0.0391232
0.0401153
-0.459784
0.458792
-0.0389034
0.0366063
-0.541943
0.54424
-0.0339671
0.0314079
-0.634748
0.637307
-0.0284096
0.0255645
-0.748446
0.751291
-0.0223491
0.0193696
-0.887713
0.890692
-0.0160665
0.0129686
-1.05691
1.06001
-0.00943667
0.00604374
-1.26185
1.26524
-0.00213011
-0.00167844
-1.51072
1.51453
0.0054511
-0.00925547
-1.51169
1.51549
0.0125007
-0.0158336
-1.26423
1.26756
0.0187312
-0.02181
-1.06011
1.06318
0.0245957
-0.0276214
-0.891651
0.894676
0.0303121
-0.033153
-0.753594
0.756435
0.0355724
-0.0380646
-0.64114
0.643632
0.0402367
-0.0412865
-0.549176
0.550226
0.0401287
-0.0340968
-0.447857
0.441825
0.0234583
-0.0102659
-0.264195
0.251002
0.00260229
-0.0456138
0.0430115
-0.0413431
0.0395527
0.00179032
-0.0168889
0.0261816
-0.316939
0.307647
-0.0328084
0.034956
-0.457197
0.455049
-0.0345428
0.0328675
-0.546232
0.547907
-0.0306721
0.0285745
-0.639593
0.64169
-0.0261641
0.0238021
-0.753897
0.756259
-0.0209964
0.0182589
-0.893541
0.896279
-0.015087
0.0120712
-1.06302
1.06604
-0.00863164
0.00534124
-1.26854
1.27183
-0.00152519
-0.00220712
-1.5183
1.52203
0.00589258
-0.00957009
-1.51924
1.52292
0.0126721
-0.0158584
-1.27083
1.27402
0.0186197
-0.0215048
-1.06621
1.0691
0.0239896
-0.0265425
-0.897479
0.900031
0.0286991
-0.0309057
-0.758891
0.761097
0.0328274
-0.0348378
-0.645841
0.647851
0.0363353
-0.0365303
-0.550802
0.550997
0.0341306
-0.027157
-0.435236
0.428263
0.0175184
-0.00740023
-0.239495
0.229377
0.00187984
-0.04083
0.0389502
-0.0380099
0.036662
0.00134794
-0.0129171
0.0209183
-0.299003
0.291002
-0.0277097
0.0306569
-0.452469
0.449522
-0.030884
0.0297787
-0.549323
0.550428
-0.0277972
0.0258921
-0.643717
0.645622
-0.0237109
0.0216018
-0.758479
0.760588
-0.0191299
0.0166887
-0.898815
0.901256
-0.0137926
0.0109591
-1.06891
1.07175
-0.00765475
0.00446518
-1.27504
1.27823
-0.000764303
-0.00283601
-1.52568
1.52928
0.00637797
-0.00990568
-1.52653
1.53005
0.0128601
-0.0158489
-1.27715
1.28014
0.0183647
-0.0209003
-1.07183
1.07437
0.0230218
-0.0251691
-0.902348
0.904496
0.0270109
-0.0289293
-0.763128
0.765047
0.0306139
-0.0323776
-0.649718
0.651482
0.0332281
-0.0326985
-0.55084
0.55031
0.0293942
-0.0221317
-0.421091
0.413829
0.0136887
-0.00570652
-0.22043
0.212448
0.00145652
-0.03731
0.0358535
-0.035484
0.0344433
0.00104069
-0.0101092
0.0168853
-0.283639
0.276862
-0.0234245
0.0268371
-0.446322
0.442909
-0.0276515
0.0269817
-0.551305
0.551975
-0.0252444
0.0234865
-0.64749
0.649248
-0.0214559
0.0194825
-0.762633
0.764606
-0.0171607
0.0148789
-0.903551
0.905833
-0.012192
0.00955458
-1.07441
1.07705
-0.0064486
0.00341348
-1.28131
1.28434
0.000138284
-0.00359249
-1.53278
1.53624
0.00697684
-0.0103106
-1.53349
1.53683
0.0130533
-0.0157685
-1.28302
1.28574
0.0180134
-0.0202536
-1.07676
1.079
0.0221364
-0.0240506
-0.906519
0.908433
0.0256891
-0.027392
-0.766839
0.768542
0.0288771
-0.0303146
-0.653103
0.65454
0.0306638
-0.0294328
-0.549444
0.548213
0.0255323
-0.0183781
-0.406599
0.399445
0.0110507
-0.00457453
-0.205291
0.198815
0.00117239
-0.0345572
0.0333848
-0.0335293
0.0327165
0.000812848
-0.00802529
0.0137286
-0.270654
0.26495
-0.0197904
0.0234105
-0.439385
0.435765
-0.0247145
0.0243016
-0.552549
0.552962
-0.0228446
0.0212051
-0.650993
0.652633
-0.0192785
0.0174008
-0.766531
0.768409
-0.0151865
0.0130085
-0.907996
0.910174
-0.0104444
0.00793818
-1.07954
1.08205
-0.00500147
0.00213115
-1.28724
1.29011
0.00123166
-0.00450828
-1.53959
1.54286
0.00769744
-0.0107964
-1.54005
1.54315
0.0133091
-0.0157693
-1.28835
1.29081
0.0177945
-0.0198079
-1.08115
1.08316
0.0214897
-0.0231938
-0.910243
0.911947
0.024652
-0.0261701
-0.770132
0.77165
0.0274723
-0.0285497
-0.655776
0.656854
0.028544
-0.026668
-0.546668
0.544792
0.0224038
-0.0155591
-0.392443
0.385598
0.00917429
-0.00378157
-0.192933
0.18754
0.000973098
-0.0323267
0.0313536
-0.0320025
0.0313659
0.000636579
-0.00641607
0.0112007
-0.259737
0.254952
-0.0166769
0.0203075
-0.432145
0.428514
-0.0219499
0.0217755
-0.553298
0.553472
-0.0205658
0.0189962
-0.654284
0.655854
-0.0171375
0.0153209
-0.770249
0.772066
-0.0131807
0.0110783
-0.912231
0.914333
-0.00860566
0.00619332
-1.08443
1.08684
-0.00337478
0.000635656
-1.29286
1.2956
0.00254663
-0.00562476
-1.54601
1.54908
0.00859548
-0.0114576
-1.54613
1.54899
0.0137622
-0.0160036
-1.29319
1.29543
0.0178339
-0.0196363
-1.0851
1.0869
0.0211275
-0.0226301
-0.913562
0.915065
0.0239189
-0.025268
-0.77307
0.774419
0.0264326
-0.0271197
-0.657717
0.658404
0.0267595
-0.0243607
-0.542677
0.540278
0.0198963
-0.0134378
-0.378959
0.3725
0.00781562
-0.00321497
-0.182585
0.177985
0.000831336
-0.0304649
0.0296336
-0.0308105
0.0303171
0.00049338
-0.0051163
0.009105
-0.250595
0.246607
-0.0139456
0.0174341
-0.424971
0.421482
-0.0192742
0.0193076
-0.553593
0.55356
-0.0183147
0.0167997
-0.65746
0.658975
-0.0149837
0.0132003
-0.773849
0.775632
-0.011099
0.00904143
-0.916318
0.918375
-0.00663138
0.0042906
-1.08913
1.09147
-0.00156674
-0.00106147
-1.29822
1.30084
0.00409165
-0.00699097
-1.55203
1.55493
0.00975961
-0.0123995
-1.55173
1.55437
0.0144999
-0.0165187
-1.2976
1.29962
0.0181488
-0.0197409
-1.08863
1.09022
0.0210518
-0.0223713
-0.916497
0.917817
0.0235042
-0.0246891
-0.775671
0.776856
0.0256733
-0.0260017
-0.658883
0.659212
0.0252778
-0.0224547
-0.537689
0.534866
0.0179041
-0.0118416
-0.366261
0.360199
0.00682509
-0.00280866
-0.173712
0.169696
0.00073113
-0.0288657
0.0281345
-0.0298924
0.0295205
0.00037196
-0.00402202
0.00730717
-0.242997
0.239712
-0.0114955
0.0147271
-0.418147
0.414915
-0.0166337
0.0168343
-0.553504
0.553304
-0.0159399
0.0145144
-0.660517
0.661943
-0.0127133
0.0109349
-0.777388
0.779167
-0.00884519
0.00681033
-0.920314
0.922348
-0.0044411
0.00215354
-1.09368
1.09597
0.000486846
-0.00302366
-1.30336
1.30589
0.00592341
-0.00866261
-1.55771
1.56045
0.0112433
-0.0136645
-1.5569
1.55932
0.0155582
-0.0173495
-1.30156
1.30335
0.0187785
-0.020161
-1.09175
1.09313
0.0212903
-0.0224248
-0.919073
0.920207
0.0234015
-0.0244119
-0.777958
0.778969
0.0251501
-0.0252068
-0.6594
0.659456
0.0241034
-0.0209302
-0.53189
0.528717
0.0163579
-0.0106566
-0.354347
0.348645
0.006111
-0.00252272
-0.165928
0.162339
0.000662746
-0.0274518
0.0267891
-0.0292094
0.0289461
0.000263361
-0.00305665
0.00570147
-0.236773
0.234128
-0.00923182
0.0121207
-0.411884
0.408995
-0.0139827
0.0142858
-0.553123
0.55282
-0.0134621
0.012107
-0.663415
0.66477
-0.0103085
0.00851307
-0.780919
0.782715
-0.00640342
0.00435733
-0.924266
0.926312
-0.00199062
-0.000272961
-1.09814
1.1004
0.00287718
-0.00534299
-1.30832
1.31078
0.0081246
-0.0107128
-1.56306
1.56565
0.0131075
-0.0153075
-1.56162
1.56382
0.0169901
-0.0185459
-1.30506
1.30662
0.019766
-0.0209327
-1.09444
1.0956
0.0218771
-0.0228258
-0.92128
0.922229
0.0236437
-0.0244621
-0.779899
0.780717
0.0249407
-0.024733
-0.659348
0.659141
0.023251
-0.0197663
-0.525419
0.521934
0.0151967
-0.00979903
-0.343137
0.337739
0.00560984
-0.00232889
-0.158941
0.15566
0.000618758
-0.0261642
0.0255455
-0.02874
0.0285805
0.00015952
-0.00215208
0.00418763
-0.231811
0.229775
-0.00704673
0.00951627
-0.406351
0.403881
-0.011223
0.0115514
-0.552592
0.552264
-0.0107705
0.00945511
-0.666201
0.667516
-0.00764115
0.00580579
-0.78448
0.786316
-0.00364704
0.00156163
-0.928238
0.930323
0.000832549
-0.00310936
-1.10256
1.10484
0.005688
-0.00810223
-1.31314
1.31555
0.0107843
-0.0132304
-1.56812
1.57056
0.0154407
-0.0174154
-1.56589
1.56786
0.0188817
-0.0201982
-1.3081
1.30942
0.0212001
-0.0221306
-1.0967
1.09763
0.0228681
-0.0235987
-0.923109
0.923839
0.0242258
-0.0248564
-0.781461
0.782091
0.0250298
-0.024521
-0.658712
0.658204
0.0226754
-0.0189159
-0.518361
0.514601
0.0143556
-0.00920016
-0.332515
0.327359
0.005274
-0.00220694
-0.152525
0.149458
0.000594173
-0.0249565
0.0243624
-0.0284773
0.028423
5.423e-05
-0.00125815
0.0026921
-0.228057
0.226623
-0.0048593
0.00683991
-0.401696
0.399716
-0.00828203
0.00854825
-0.552079
0.551813
-0.00775889
0.00644465
-0.668945
0.67026
-0.00458016
0.00268231
-0.788119
0.790017
-0.000452735
-0.00169008
-0.932277
0.93442
0.00413533
-0.00644096
-1.10699
1.1093
0.00902711
-0.0114123
-1.31786
1.32024
0.014009
-0.0163147
-1.57287
1.57518
0.018332
-0.0200644
-1.5697
1.57143
0.0212932
-0.0223415
-1.31064
1.31169
0.0230956
-0.0237537
-1.09848
1.09914
0.024245
-0.0247281
-0.924509
0.924993
0.0251659
-0.0256175
-0.782617
0.783069
0.0254932
-0.0246329
-0.657406
0.656546
0.0224128
-0.018387
-0.510783
0.506757
0.013817
-0.00883125
-0.322358
0.317372
0.00508213
-0.00214787
-0.146502
0.143568
0.000586813
-0.0237926
0.0232058
-0.0284257
0.0284789
-5.32332e-05
-0.000344331
0.00116346
-0.225504
0.224685
-0.00260289
0.00402422
-0.398055
0.396634
-0.00510159
0.00522996
-0.551756
0.551627
-0.00438812
0.00303615
-0.671732
0.673084
-0.00110575
-0.000878784
-0.79188
0.793865
0.0032164
-0.00545543
-0.93643
0.938669
0.0079991
-0.0103758
-1.11149
1.11386
0.0130065
-0.0153889
-1.32252
1.3249
0.017922
-0.0200984
-1.57735
1.57953
0.0219266
-0.0234107
-1.57301
1.5745
0.0243882
-0.0251472
-1.31264
1.31339
0.0256344
-0.0260019
-1.09972
1.10008
0.0262243
-0.0264279
-0.925416
0.925619
0.0266411
-0.0267965
-0.783259
0.783414
0.0264127
-0.0251056
-0.655359
0.654052
0.0224826
-0.0181724
-0.502704
0.498394
0.0135575
-0.00866821
-0.312521
0.307632
0.00501859
-0.00214531
-0.140717
0.137844
0.000595188
-0.0226382
0.022043
-0.0285997
0.028778
-0.000178274
0.000607959
-0.000452718
-0.224177
0.224022
-0.000200118
0.000983934
-0.39556
0.394777
-0.00159001
0.00149856
-0.551786
0.551878
-0.000552257
-0.000903055
-0.674643
0.676099
0.00295027
-0.00506966
-0.795825
0.797945
0.00756539
-0.00994365
-0.940778
0.943156
0.0126224
-0.0150972
-1.11612
1.1186
0.0177982
-0.0202006
-1.32717
1.32958
0.0226879
-0.0247448
-1.58157
1.58362
0.0263665
-0.0275731
-1.57581
1.57702
0.0282649
-0.0286772
-1.31403
1.31444
0.0288478
-0.0288843
-1.10036
1.10039
0.0288225
-0.0287295
-0.925754
0.925661
0.0286795
-0.0284866
-0.783209
0.783016
0.0277892
-0.025956
-0.652463
0.650629
0.0229138
-0.0183012
-0.494087
0.489475
0.0135932
-0.00871552
-0.302854
0.297977
0.00508389
-0.00219904
-0.135027
0.132142
0.000619079
-0.0214631
0.020844
-0.0290319
0.0293596
-0.000327694
0.00171102
-0.00220132
-0.224196
0.224686
0.00242085
-0.00239202
-0.394365
0.394336
0.00241065
-0.00285127
-0.552395
0.552836
0.00399585
-0.00560128
-0.677808
0.679414
0.00781967
-0.0101129
-0.80003
0.802324
0.0128058
-0.0153568
-0.945396
0.947947
0.01821
-0.0208204
-1.12095
1.12356
0.0236295
-0.026075
-1.33186
1.33431
0.028523
-0.0304369
-1.58552
1.58744
0.0318255
-0.0327013
-1.57802
1.57889
0.033076
-0.0331089
-1.31471
1.31474
0.0329269
-0.0325866
-1.10029
1.09995
0.0321913
-0.0317488
-0.925441
0.924998
0.0313986
-0.0307807
-0.782391
0.781773
0.0296704
-0.0272688
-0.648599
0.646197
0.0237681
-0.0188011
-0.484892
0.479925
0.0139302
-0.00897044
-0.293188
0.288228
0.00527467
-0.00230724
-0.12929
0.126323
0.000657942
-0.0202371
0.0195791
-0.0297566
0.0302559
-0.000499292
0.00298298
-0.00427677
-0.225592
0.226886
0.0054254
-0.00621901
-0.394685
0.395479
0.00696516
-0.00784153
-0.553821
0.554697
0.00925403
-0.011068
-0.681345
0.683159
0.0135274
-0.0160564
-0.804587
0.807116
0.0190167
-0.0218063
-0.950361
0.95315
0.0249041
-0.0277081
-1.12605
1.12886
0.030678
-0.0332008
-1.33663
1.33915
0.0356324
-0.0374097
-1.58918
1.59095
0.0385502
-0.0390716
-1.57953
1.58006
0.0390757
-0.0386901
-1.31458
1.3142
0.0381052
-0.0373299
-1.09939
1.09862
0.0365483
-0.0356926
-0.924348
0.923492
0.0349792
-0.0338432
-0.780646
0.77951
0.0322292
-0.029196
-0.643668
0.640635
0.0251614
-0.019751
-0.474999
0.469588
0.0146201
-0.00946063
-0.283329
0.278169
0.00560308
-0.00247271
-0.123362
0.120231
0.00071179
-0.0189304
0.0182186
-0.0308365
0.0315614
-0.000724951
0.00451442
-0.00670739
-0.22861
0.230803
0.00892028
-0.0106225
-0.396695
0.398397
0.0122106
-0.0136446
-0.556265
0.557699
0.0154463
-0.0175549
-0.685374
0.687483
0.0203522
-0.0232103
-0.809619
0.812477
0.026544
-0.0296661
-0.95582
0.958942
0.0330989
-0.03616
-1.13156
1.13462
0.0393325
-0.041946
-1.34155
1.34416
0.0443448
-0.045947
-1.59253
1.59413
0.0467753
-0.0468731
-1.5803
1.5804
0.0464294
-0.0455656
-1.31355
1.31269
0.0445277
-0.0432622
-1.09755
1.09629
0.0420482
-0.0407301
-0.922346
0.921028
0.0395501
-0.0378497
-0.77783
0.776129
0.0356123
-0.0318512
-0.637503
0.633742
0.0271989
-0.0212373
-0.464232
0.458271
0.0157221
-0.0102175
-0.273035
0.26753
0.00608154
-0.00269587
-0.117078
0.113693
0.000778427
-0.0175146
0.0167362
-0.0323659
0.0333818
-0.00101591
0.00640707
-0.00966702
-0.23344
0.2367
0.013121
-0.0158767
-0.400657
0.403412
0.0184211
-0.0205345
-0.560007
0.56212
0.0228852
-0.0254312
-0.690101
0.692647
0.0287166
-0.0320194
-0.815319
0.818622
0.0358286
-0.0393564
-0.96195
0.965478
0.0431848
-0.0465417
-1.13758
1.14093
0.0499425
-0.0526485
-1.34663
1.34934
0.0549923
-0.0563709
-1.59548
1.59686
0.0568231
-0.0564121
-1.58016
1.57975
0.0554591
-0.0540077
-1.31146
1.31001
0.0524545
-0.0506309
-1.09465
1.09282
0.0489264
-0.0470771
-0.919322
0.917473
0.0453609
-0.0430349
-0.773866
0.77154
0.0400881
-0.0354957
-0.629912
0.62532
0.0301069
-0.0234293
-0.452362
0.445684
0.0173564
-0.0113132
-0.261999
0.255956
0.00674672
-0.00298842
-0.110246
0.106487
0.000859534
-0.015964
0.0151044
-0.0344654
0.0358694
-0.00140395
0.00882278
-0.0133727
-0.240377
0.244927
0.018262
-0.0222053
-0.406892
0.410835
0.0258438
-0.0287859
-0.565371
0.568313
0.0318832
-0.0350542
-0.695834
0.699005
0.0390164
-0.0429028
-0.821911
0.825797
0.0473067
-0.0513302
-0.968897
0.97292
0.0556334
-0.059336
-1.14418
1.14788
0.0629867
-0.0657713
-1.35187
1.35466
0.0679986
-0.0690603
-1.59794
1.599
0.0690315
-0.0679935
-1.57893
1.57789
0.0664249
-0.0642771
-1.30809
1.30594
0.0621176
-0.0596787
-1.09051
1.08807
0.0574373
-0.0550325
-0.915144
0.912739
0.0527167
-0.0497086
-0.768638
0.76563
0.0459671
-0.040398
-0.620676
0.615107
0.0341051
-0.0264939
-0.43905
0.431439
0.0196359
-0.0128056
-0.249821
0.242991
0.00762356
-0.00335805
-0.102622
0.0983569
0.00095689
-0.0142494
0.0132925
-0.037316
0.0392729
-0.00195692
0.012105
-0.0182787
-0.249836
0.25601
0.0248682
-0.03018
-0.415807
0.421119
0.0350909
-0.0390385
-0.572723
0.576671
0.0430773
-0.047073
-0.702953
0.706949
0.0519318
-0.0565731
-0.829673
0.834315
0.061727
-0.0663523
-0.976863
0.981488
0.0712014
-0.075262
-1.15147
1.15553
0.0791136
-0.081879
-1.3572
1.35997
0.0838412
-0.0844194
-1.59967
1.60024
0.0837354
-0.0819046
-1.57636
1.57453
0.0795925
-0.076646
-1.30325
1.3003
0.0737942
-0.0706487
-1.08497
1.08183
0.0678312
-0.0648394
-0.909722
0.90673
0.0618605
-0.0580789
-0.762008
0.758227
0.0534107
-0.0466916
-0.609497
0.602778
0.0392971
-0.0304825
-0.423864
0.41505
0.0225614
-0.0146632
-0.236005
0.228107
0.00867863
-0.00378577
-0.0939502
0.0890574
0.00106447
-0.0123413
0.0112768
-0.0412244
0.0440339
-0.00280951
0.0168797
-0.0251868
-0.262485
0.270792
0.0338616
-0.0408154
-0.428002
0.434956
0.0472494
-0.0524209
-0.582501
0.587673
0.057714
-0.0628383
-0.711861
0.716985
0.0688037
-0.0743353
-0.838936
0.844467
0.0803308
-0.085575
-0.986033
0.991277
0.090905
-0.0951964
-1.15939
1.16368
0.0990518
-0.101583
-1.36238
1.36491
0.103018
-0.102866
-1.60029
1.60014
0.101289
-0.0984425
-1.57209
1.56924
0.0952221
-0.0913309
-1.29674
1.29285
0.0876842
-0.0837636
-1.07792
1.074
0.0803206
-0.0766801
-0.902885
0.899245
0.0730289
-0.0683223
-0.753691
0.748984
0.0625789
-0.0544919
-0.595993
0.587906
0.0457261
-0.0353518
-0.406254
0.395879
0.0260375
-0.0167824
-0.220018
0.210763
0.00983355
-0.00423306
-0.0840187
0.0784182
0.00117109
-0.010225
0.00905395
-0.0467439
0.0510013
-0.00425733
0.0243589
-0.0355968
-0.279422
0.29066
0.0470038
-0.0561635
-0.444519
0.453679
0.0644771
-0.0711133
-0.595299
0.601935
0.0779956
-0.084573
-0.723029
0.729607
0.0917624
-0.0981574
-0.849952
0.856347
0.104853
-0.110498
-0.99634
1.00198
0.11599
-0.120174
-1.1676
1.17179
0.123623
-0.125531
-1.36687
1.36878
0.126005
-0.124732
-1.59924
1.59796
0.121929
-0.117797
-1.56564
1.56151
0.113476
-0.108484
-1.28827
1.28328
0.103936
-0.099151
-1.06921
1.06443
0.0950389
-0.0906623
-0.894437
0.89006
0.0862884
-0.0804767
-0.743333
0.737521
0.0734397
-0.0636628
-0.579637
0.56986
0.0531781
-0.040853
-0.385494
0.373169
0.0298242
-0.0189707
-0.201374
0.19052
0.0109537
-0.00463227
-0.0727329
0.0664115
0.00125446
-0.00791329
0.00665883
-0.0549377
0.0622559
-0.00731816
0.0377186
-0.0533202
-0.302784
0.318386
0.0685731
-0.0806562
-0.466882
0.478965
0.0909599
-0.0990361
-0.611617
0.619694
0.107542
-0.115398
-0.736796
0.744652
0.123508
-0.130321
-0.862488
0.869301
0.137121
-0.142574
-1.00718
1.01263
0.147578
-0.151051
-1.17529
1.17877
0.153471
-0.154182
-1.36982
1.37053
0.153137
-0.15028
-1.59566
1.5928
0.145896
-0.140205
-1.55643
1.55074
0.134589
-0.128326
-1.2775
1.27123
0.122738
-0.116965
-1.05867
1.05289
0.112067
-0.10686
-0.884279
0.879071
0.101664
-0.0944699
-0.7305
0.723307
0.0857787
-0.0738335
-0.559618
0.547673
0.0612041
-0.0465863
-0.360752
0.346134
0.0336365
-0.0210762
-0.179749
0.167189
0.0119559
-0.0049454
-0.0601969
0.0531863
0.00129598
-0.00546521
0.00416923
-0.0691103
0.0731165
-0.00400621
0.0286016
-0.042108
-0.336558
0.350064
0.0556503
-0.0666008
-0.496336
0.507287
0.0764101
-0.0856913
-0.631194
0.640475
0.0961735
-0.105501
-0.752091
0.761418
0.115783
-0.124872
-0.875242
0.88433
0.134434
-0.142796
-1.01714
1.0255
0.15132
-0.158363
-1.18112
1.18817
0.164951
-0.169676
-1.37002
1.37475
0.173018
-0.173972
-1.58866
1.58961
0.172461
-0.168958
-1.54389
1.54038
0.164438
-0.158563
-1.26404
1.25816
0.152966
-0.146353
-1.04603
1.03942
0.140637
-0.134277
-0.872103
0.865743
0.127592
-0.117649
-0.714441
0.704498
0.105131
-0.0884495
-0.53491
0.518228
0.0714191
-0.0521789
-0.331178
0.311938
0.0360861
-0.0214749
-0.155057
0.140445
0.0115505
-0.00450739
-0.0468103
0.0397672
0.00108532
-0.00299626
0.00191094
-0.0803631
0.0783015
0.00206158
0.00686873
-0.0156675
-0.366366
0.375165
0.0259343
-0.0337292
-0.522916
0.530711
0.0415871
-0.0495327
-0.652112
0.660058
0.0591274
-0.0679113
-0.770403
0.779187
0.0771747
-0.0855823
-0.892897
0.901305
0.0944144
-0.101821
-1.03359
1.041
0.109556
-0.115587
-1.19502
1.20105
0.121154
-0.124818
-1.37913
1.3828
0.126717
-0.126356
-1.58964
1.58927
0.123481
-0.118555
-1.53591
1.53099
0.112585
-0.105212
-1.25159
1.24422
0.0982073
-0.0902722
-1.03174
1.0238
0.0828923
-0.0746585
-0.855885
0.847652
0.0670374
-0.0583039
-0.690525
0.681791
0.0488204
-0.0372686
-0.499494
0.487942
0.0267111
-0.0168076
-0.292368
0.282465
0.0100768
-0.00514989
-0.126478
0.121551
0.00239728
-0.000824084
-0.0331734
0.0316002
0.000196446
-0.000766543
0.000570097
-0.0816081
0.0786749
0.00293321
-0.00208987
-0.00288558
-0.386427
0.391402
0.00977928
-0.0155869
-0.542528
0.548335
0.0216128
-0.028473
-0.669951
0.676811
0.0367726
-0.0443986
-0.787079
0.794705
0.052692
-0.0600875
-0.909008
0.916404
0.0676371
-0.0743361
-1.04826
1.05496
0.0811255
-0.0865019
-1.20667
1.21205
0.0909999
-0.0936779
-1.38578
1.38845
0.0947994
-0.0935033
-1.58808
1.58679
0.089702
-0.0838634
-1.5252
1.51937
0.077206
-0.0693481
-1.23642
1.22856
0.061619
-0.053292
-1.01506
1.00673
0.0456844
-0.0373603
-0.838079
0.829755
0.030011
-0.0220635
-0.669028
0.661081
0.0145132
-0.00634561
-0.474333
0.466166
0.000851407
0.00239705
-0.271566
0.268317
-0.00338664
0.00306548
-0.115507
0.115828
-0.00215145
0.00102044
-0.0295083
0.0306394
-0.000264159
-0.000273793
0.000537953
-0.0802922
0.0775347
0.00275741
-0.00552419
0.00317974
-0.399726
0.402071
0.00114672
-0.00562731
-0.557244
0.561725
0.0108707
-0.0166798
-0.684679
0.690488
0.0238275
-0.030438
-0.801745
0.808355
0.037621
-0.0440583
-0.923326
0.929764
0.0510168
-0.0567959
-1.06128
1.06706
0.0628383
-0.0671781
-1.21705
1.22139
0.071077
-0.0732851
-1.39092
1.39313
0.0738291
-0.0719642
-1.58504
1.58318
0.0681633
-0.0625243
-1.51302
1.50738
0.056152
-0.0483273
-1.22055
1.21272
0.0409568
-0.0328861
-0.998004
0.989933
0.0251555
-0.0167634
-0.820226
0.811833
0.00884813
-0.00105683
-0.649211
0.64142
-0.00505176
0.0101144
-0.456335
0.451272
-0.012041
0.0114664
-0.262368
0.262942
-0.00970383
0.00696834
-0.114785
0.117521
-0.00449973
0.00206725
-0.0310135
0.0334459
-0.000589078
-0.000656237
0.00124531
-0.0787893
0.0763833
0.00240603
-0.00649812
0.00568015
-0.408603
0.409421
-0.002467
-0.000755847
-0.569252
0.572475
0.0051642
-0.0105244
-0.69712
0.70248
0.0166101
-0.0225035
-0.81432
0.820214
0.0288329
-0.0345281
-0.935817
0.941512
0.0406106
-0.0458583
-1.07275
1.078
0.0510858
-0.0551809
-1.22563
1.22973
0.0586271
-0.0605607
-1.39504
1.39697
0.0610159
-0.0593352
-1.58131
1.57963
0.0559907
-0.0508567
-1.50139
1.49625
0.0452199
-0.0383282
-1.20519
1.1983
0.0315244
-0.0235786
-0.981512
0.973566
0.0158655
-0.00707211
-0.802088
0.793295
-0.000890897
0.0083621
-0.630571
0.6231
-0.0134109
0.0166814
-0.443689
0.440419
-0.0171597
0.0150233
-0.259875
0.262011
-0.0120777
0.00857916
-0.118773
0.122272
-0.00546833
0.00250507
-0.0351231
0.0380864
-0.000746231
-0.00164937
0.0023956
-0.0774485
0.0754015
0.00204698
-0.00631143
0.00595451
-0.414723
0.41508
-0.00404638
0.00134231
-0.57856
0.581264
0.00294407
-0.00759847
-0.707831
0.712485
0.0129356
-0.0181496
-0.825363
0.830577
0.0238815
-0.0290618
-0.946916
0.952096
0.0347203
-0.0394104
-1.08301
1.0877
0.0442209
-0.0480209
-1.23359
1.23739
0.0512141
-0.0530692
-1.39874
1.40059
0.0536377
-0.0526782
-1.57809
1.57713
0.0498771
-0.0456219
-1.49105
1.4868
0.0406323
-0.0343461
-1.1915
1.18521
0.0281707
-0.0203711
-0.965427
0.957627
0.0127538
-0.00428001
-0.783763
0.775289
-0.00319764
0.0100358
-0.61339
0.606552
-0.0143724
0.0170695
-0.434491
0.431793
-0.0170307
0.0148096
-0.260406
0.262627
-0.0119267
0.00840663
-0.124259
0.127779
-0.00530673
0.00245281
-0.0400459
0.0428998
-0.000740632
-0.00285907
0.0035997
-0.0764602
0.0748703
0.00158992
-0.00542155
0.00538202
-0.419289
0.419329
-0.0038261
0.00174414
-0.586799
0.588881
0.00230654
-0.00658443
-0.717252
0.72153
0.0117228
-0.0162958
-0.835425
0.839998
0.0214144
-0.0260755
-0.957283
0.961944
0.0315045
-0.0358365
-1.09245
1.09678
0.0402101
-0.0439153
-1.24105
1.24476
0.0474156
-0.049332
-1.40257
1.40449
0.0502722
-0.0496235
-1.57598
1.57533
0.0475927
-0.0436154
-1.48255
1.47857
0.0392071
-0.0334533
-1.17886
1.17311
0.0274389
-0.0201458
-0.949773
0.94248
0.0128531
-0.00474452
-0.766181
0.758073
-0.00187093
0.0079825
-0.59799
0.591879
-0.0117779
0.0137623
-0.426823
0.424838
-0.0139466
0.0124099
-0.26158
0.263117
-0.010016
0.00703903
-0.129507
0.132484
-0.00443911
0.00206707
-0.0445588
0.0469308
-0.000636407
-0.00397261
0.00460902
-0.0759732
0.0747254
0.0012478
-0.00437209
0.00446475
-0.42291
0.422817
-0.00307559
0.00109187
-0.594024
0.596007
0.0028148
-0.00667902
-0.725838
0.729702
0.0111487
-0.0155993
-0.844533
0.848984
0.0203758
-0.0251905
-0.966437
0.971251
0.0299212
-0.0341003
-1.10123
1.10541
0.0386509
-0.0421942
-1.24839
1.25193
0.0453543
-0.0478305
-1.4064
1.40888
0.0491378
-0.0489296
-1.57485
1.57464
0.0471642
-0.0437761
-1.47484
1.47145
0.0396444
-0.0341471
-1.16701
1.16151
0.0284983
-0.0216456
-0.935001
0.928148
0.0149826
-0.00786897
-0.749875
0.742762
0.00173325
0.00360534
-0.584434
0.579096
-0.00693527
0.00888722
-0.42042
0.418469
-0.00933631
0.00836769
-0.262003
0.262971
-0.00680373
0.00478454
-0.133398
0.135417
-0.00305164
0.00144798
-0.0480128
0.0496165
-0.000469032
-0.00484861
0.00531764
-0.0759973
0.0749583
0.00103905
-0.00313161
0.00300165
-0.426128
0.426258
-0.00181782
-8.35874e-05
-0.600703
0.602604
0.0037779
-0.00753192
-0.733886
0.73764
0.0118264
-0.0158786
-0.853223
0.857275
0.0207703
-0.0248057
-0.975507
0.979542
0.029511
-0.03353
-1.10975
1.11377
0.0380063
-0.0417994
-1.25549
1.25929
0.0453282
-0.047679
-1.41118
1.41353
0.049394
-0.0495869
-1.5744
1.57459
0.0483786
-0.0451625
-1.4679
1.46469
0.041331
-0.0361409
-1.15605
1.15086
0.0309102
-0.0245882
-0.921108
0.914786
0.0187376
-0.0124051
-0.735467
0.729135
0.00708768
-0.00222932
-0.572814
0.567956
-0.00106772
0.00298313
-0.414095
0.41218
-0.00380001
0.0036547
-0.261315
0.261461
-0.00312213
0.00217924
-0.135412
0.136355
-0.00137264
0.000686789
-0.049887
0.0505728
-0.000236609
-0.00538021
0.00561682
-0.0762894
0.0755737
0.000715773
-0.00200666
0.00147205
-0.429423
0.429958
-0.000492708
-0.00170794
-0.606461
0.608662
0.00494665
-0.00852783
-0.741409
0.74499
0.012624
-0.0167856
-0.861181
0.865342
0.0210519
-0.0252365
-0.983786
0.987971
0.0299052
-0.0337328
-1.11822
1.12205
0.0383309
-0.0421232
-1.26292
1.26671
0.0457642
-0.0486727
-1.41632
1.41923
0.0508645
-0.051269
-1.57481
1.57522
0.0501764
-0.0475013
-1.46157
1.45889
0.0440883
-0.0392194
-1.1455
1.14063
0.0343176
-0.0287685
-0.908441
0.902891
0.0232033
-0.0177273
-0.72261
0.717134
0.0129897
-0.00843925
-0.562598
0.558048
0.00528852
-0.002841
-0.407784
0.405337
0.00151879
-0.000738524
-0.259204
0.258424
0.000378043
-0.000148851
-0.135326
0.135097
-3.82664e-05
0.000136504
-0.0501481
0.0500498
-9.85007e-05
-0.00549202
0.00559052
-0.0769929
0.0764385
0.000554391
-0.00104897
0.000625162
-0.432916
0.43334
0.000978941
-0.00302382
-0.612375
0.61442
0.00636188
-0.00978599
-0.748366
0.75179
0.0136941
-0.0174321
-0.86916
0.872898
0.0217995
-0.025663
-0.992159
0.996023
0.0302832
-0.0345543
-1.12634
1.13061
0.0388249
-0.042973
-1.27057
1.27472
0.0470579
-0.0500606
-1.42206
1.42506
0.0525793
-0.0536658
-1.57581
1.57689
0.0528893
-0.0507018
-1.45603
1.45384
0.0474249
-0.0430191
-1.13577
1.13136
0.0386274
-0.033462
-0.896998
0.891832
0.0285377
-0.0234889
-0.711195
0.706146
0.0191011
-0.0146548
-0.552878
0.548431
0.0112863
-0.00845708
-0.401099
0.398269
0.0063749
-0.0047184
-0.255445
0.253789
0.00336919
-0.00204997
-0.133172
0.131852
0.00103788
-0.000293965
-0.0488943
0.0481504
7.66719e-06
-0.00524816
0.00524049
-0.0779639
0.0775949
0.00036891
-5.52104e-05
-0.000634932
-0.43649
0.43718
0.00215743
-0.00445782
-0.61786
0.62016
0.00766875
-0.0108966
-0.75502
0.758248
0.0148445
-0.0184034
-0.876598
0.880156
0.0225941
-0.0265703
-1.00036
1.00434
0.0310995
-0.0353491
-1.13475
1.13899
0.0398604
-0.0440545
-1.27881
1.283
0.0483312
-0.052055
-1.42835
1.43208
0.0549561
-0.0562492
-1.57789
1.57918
0.0560551
-0.0540996
-1.45149
1.44954
0.0513386
-0.0474873
-1.12688
1.12303
0.0432596
-0.0384911
-0.886432
0.881663
0.0339453
-0.0290947
-0.700738
0.695888
0.0249906