/*--------------------------------*- C++ -*----------------------------------*\
| =========                 |                                                 |
| \\      /  F ield         | OpenFOAM: The Open Source CFD Toolbox           |
|  \\    /   O peration     | Version:  2306                                  |
|   \\  /    A nd           | Website:  www.openfoam.com                      |
|    \\/     M anipulation  |                                                 |
\*---------------------------------------------------------------------------*/
FoamFile
{
    version     2.0;
    format      ascii;
    arch        "LSB;label=32;scalar=64";
    class       volScalarField;
    location    "11";
    object      p;
}
// * * * * * * * * * * * * * * * * * * * * * * * * * * * * * * * * * * * * * //

dimensions      [0 2 -2 0 0 0 0];

internalField   nonuniform List<scalar> 
8800
(
0.434411
0.386415
0.348116
0.319585
0.299111
0.284529
0.274118
0.266796
0.262067
0.25998
0.260971
0.264789
0.271049
0.28
0.29244
0.309772
0.334025
0.367503
0.40985
0.466939
0.266773
0.274028
0.28259
0.286151
0.284415
0.279117
0.272667
0.26671
0.262081
0.259225
0.258775
0.260972
0.2651
0.270695
0.277201
0.283448
0.287303
0.28658
0.280333
0.271227
0.243136
0.249426
0.253854
0.25749
0.260276
0.261361
0.260518
0.258595
0.256655
0.255619
0.256341
0.258355
0.260721
0.262468
0.262564
0.260625
0.257413
0.253443
0.248691
0.244872
0.237688
0.240487
0.243603
0.246335
0.248327
0.249905
0.251056
0.251491
0.251371
0.251311
0.251718
0.25236
0.252622
0.252069
0.250845
0.249215
0.246965
0.243956
0.241188
0.239672
0.232373
0.23387
0.236319
0.239122
0.241488
0.243207
0.244429
0.245364
0.246053
0.246536
0.246819
0.246808
0.246416
0.245641
0.244412
0.242521
0.239991
0.23726
0.235452
0.234703
0.228443
0.22923
0.231204
0.233594
0.235928
0.238149
0.23998
0.241279
0.242168
0.242775
0.243122
0.243072
0.242489
0.241291
0.239471
0.237356
0.235101
0.232856
0.231557
0.231254
0.226898
0.227291
0.228413
0.229866
0.23135
0.232737
0.234114
0.235489
0.236678
0.237555
0.237917
0.2377
0.237037
0.236113
0.235077
0.233822
0.232464
0.231187
0.23049
0.23035
0.225445
0.225657
0.226289
0.2272
0.228243
0.229521
0.23086
0.232118
0.233266
0.234218
0.234728
0.234705
0.234255
0.233461
0.23251
0.231666
0.230865
0.230167
0.229805
0.229731
0.223224
0.223338
0.223701
0.224289
0.224998
0.225767
0.226799
0.227951
0.229121
0.230187
0.230855
0.23101
0.230809
0.230442
0.230045
0.229578
0.229154
0.228792
0.228616
0.228573
0.220326
0.220386
0.220649
0.221118
0.221666
0.222501
0.223331
0.224342
0.225481
0.226652
0.227555
0.228025
0.228147
0.228041
0.227832
0.227638
0.227359
0.22712
0.227024
0.227004
0.217111
0.217147
0.217344
0.217733
0.218246
0.218904
0.219733
0.220766
0.221997
0.223358
0.224536
0.225288
0.22569
0.225865
0.225872
0.225784
0.225645
0.225528
0.225492
0.225481
0.213561
0.213588
0.213742
0.214059
0.21452
0.215145
0.215979
0.217069
0.218433
0.220047
0.221572
0.222673
0.223379
0.223799
0.224017
0.224107
0.224114
0.224101
0.224105
0.224096
0.209614
0.209642
0.209783
0.210074
0.210524
0.211174
0.212082
0.213313
0.214913
0.216887
0.218841
0.220333
0.221344
0.222012
0.222424
0.222665
0.222794
0.222863
0.222894
0.222886
0.205201
0.205224
0.205381
0.205683
0.206166
0.206889
0.207929
0.209379
0.211312
0.213755
0.216237
0.218178
0.219566
0.220505
0.221121
0.221509
0.221744
0.221877
0.221932
0.221923
0.20025
0.200277
0.200452
0.2008
0.201361
0.202214
0.203462
0.205224
0.207608
0.210659
0.213801
0.216311
0.218116
0.219358
0.220188
0.220725
0.221061
0.221252
0.221328
0.221318
0.194645
0.194677
0.19489
0.195311
0.195995
0.19704
0.19858
0.200766
0.203742
0.207574
0.211549
0.21474
0.217041
0.21864
0.219717
0.220419
0.220861
0.221114
0.221213
0.221201
0.188226
0.188266
0.188535
0.189062
0.18992
0.191231
0.193166
0.195916
0.199662
0.20449
0.209499
0.213523
0.216434
0.21846
0.219827
0.220722
0.221285
0.221608
0.221733
0.221719
0.180782
0.180834
0.181178
0.181853
0.182949
0.184622
0.187081
0.190569
0.19531
0.2014
0.207701
0.212752
0.216404
0.218947
0.220664
0.221787
0.222495
0.222899
0.223056
0.223039
0.172019
0.172087
0.172534
0.173413
0.17484
0.177008
0.180156
0.184602
0.190624
0.19831
0.206218
0.212531
0.217088
0.22026
0.222402
0.223804
0.224684
0.225185
0.22538
0.225358
0.161529
0.161618
0.162207
0.163365
0.165241
0.168046
0.172127
0.177862
0.185534
0.195236
0.205133
0.212991
0.218651
0.22259
0.225251
0.226993
0.228084
0.228701
0.228941
0.228913
0.148755
0.148877
0.149662
0.151209
0.153702
0.157413
0.162762
0.170167
0.17997
0.192206
0.204546
0.214282
0.221279
0.226151
0.229451
0.231615
0.232971
0.233734
0.234027
0.233988
0.13291
0.133085
0.134151
0.136269
0.139647
0.144612
0.151672
0.161332
0.173892
0.189285
0.204588
0.216575
0.225181
0.231187
0.235273
0.23797
0.239667
0.240616
0.240978
0.240924
0.112815
0.113068
0.114575
0.117574
0.122264
0.129052
0.138554
0.151244
0.167331
0.186594
0.20542
0.22006
0.230579
0.237959
0.243019
0.246392
0.248536
0.249734
0.250173
0.250104
0.0865693
0.0869558
0.0892405
0.0937378
0.10053
0.110127
0.123123
0.139874
0.160414
0.184319
0.207232
0.224919
0.237667
0.246702
0.25298
0.257234
0.259988
0.261548
0.262122
0.262026
0.0509256
0.0516306
0.0555167
0.0628241
0.0732255
0.0872248
0.105226
0.127348
0.153377
0.182691
0.210192
0.231273
0.246553
0.25755
0.265367
0.270813
0.274447
0.276546
0.277316
0.277186
-0.000346707
0.00175354
0.00974634
0.0227699
0.0395132
0.0602782
0.0851909
0.114106
0.14661
0.181964
0.214415
0.239129
0.257175
0.270417
0.280131
0.287209
0.292196
0.295282
0.296459
0.296275
-0.0773726
-0.0667501
-0.0485102
-0.0252567
0.00100998
0.0307679
0.06409
0.100792
0.140465
0.182421
0.220288
0.249079
0.270374
0.28641
0.29867
0.308187
0.315521
0.320625
0.323032
0.323311
-0.159002
-0.136194
-0.107203
-0.0735998
-0.0375881
0.00122617
0.042965
0.0875775
0.134782
0.184044
0.228338
0.262254
0.287773
0.3075
0.323138
0.335815
0.346163
0.355037
0.359777
0.360229
-0.222905
-0.197493
-0.160184
-0.118358
-0.0738746
-0.0267559
0.022962
0.0751684
0.12958
0.185701
0.235822
0.274139
0.303019
0.325432
0.343248
0.357675
0.36937
0.378762
0.383271
0.383919
-0.274005
-0.246436
-0.204622
-0.156945
-0.106013
-0.0521607
0.00438998
0.063341
0.124298
0.186669
0.241898
0.283727
0.314936
0.338848
0.357557
0.372477
0.384478
0.393807
0.39856
0.399246
-0.315206
-0.287018
-0.24181
-0.189849
-0.134065
-0.0748943
-0.0126748
0.0521191
0.118884
0.186809
0.246491
0.291247
0.324222
0.349146
0.368385
0.383502
0.395486
0.404596
0.409438
0.410145
-0.349992
-0.321578
-0.274013
-0.218661
-0.1589
-0.0952957
-0.028299
0.0415451
0.113505
0.186565
0.25039
0.297762
0.332233
0.357939
0.377494
0.392636
0.404511
0.413389
0.418223
0.418948
-0.380473
-0.352025
-0.302637
-0.244589
-0.181543
-0.114161
-0.0429633
0.0314255
0.108144
0.18594
0.253609
0.303442
0.339329
0.365768
0.385642
0.400854
0.412648
0.421394
0.426151
0.426887
-0.408045
-0.379506
-0.328784
-0.268473
-0.20266
-0.132031
-0.0571416
0.0213036
0.102373
0.184693
0.256211
0.308587
0.345972
0.373228
0.393488
0.408828
0.420594
0.429254
0.433901
0.434635
-0.433598
-0.404949
-0.353082
-0.290868
-0.22271
-0.149298
-0.0711776
0.0109566
0.0961438
0.182896
0.25832
0.31339
0.352432
0.380636
0.401386
0.416928
0.428724
0.437268
0.441808
0.44259
-0.457788
-0.428961
-0.376104
-0.312246
-0.242061
-0.166202
-0.0851843
0.000320725
0.0893693
0.180434
0.259884
0.317892
0.358837
0.388188
0.409568
0.425405
0.437286
0.445773
0.450178
0.450995
-0.480868
-0.451826
-0.398071
-0.332906
-0.260931
-0.182916
-0.0993314
-0.010778
0.0818875
0.177202
0.260831
0.322072
0.36523
0.395979
0.418174
0.434429
0.446465
0.454941
0.459214
0.459998
-0.503193
-0.473819
-0.419303
-0.353017
-0.279489
-0.199606
-0.113744
-0.0224135
0.0736365
0.173098
0.261044
0.325834
0.37157
0.404037
0.427281
0.444117
0.45642
0.464933
0.469068
0.469779
-0.524797
-0.495123
-0.440067
-0.372651
-0.297785
-0.21628
-0.128419
-0.0346057
0.0645662
0.168019
0.260374
0.329025
0.377748
0.412311
0.436901
0.454522
0.467218
0.475828
0.479851
0.48041
-0.545754
-0.515754
-0.460224
-0.391831
-0.315828
-0.232935
-0.143347
-0.0473502
0.0546595
0.161896
0.258665
0.331446
0.383573
0.420688
0.446981
0.465636
0.478869
0.487654
0.4916
0.491966
-0.566133
-0.535764
-0.47979
-0.410565
-0.33362
-0.249547
-0.158486
-0.060598
0.0439376
0.154687
0.255776
0.332872
0.388788
0.42894
0.457387
0.477398
0.491375
0.5004
0.504267
0.50442
-0.585975
-0.555284
-0.498751
-0.428839
-0.351093
-0.266053
-0.173765
-0.0742807
0.0324516
0.146375
0.251595
0.333056
0.39306
0.436744
0.46792
0.489694
0.504627
0.513945
0.517653
0.517615
-0.605111
-0.574087
-0.517061
-0.4466
-0.368195
-0.282365
-0.189103
-0.088303
0.0202823
0.136998
0.246019
0.331752
0.396036
0.443761
0.478341
0.50246
0.518582
0.528138
0.531563
0.531287
-0.623513
-0.592178
-0.534732
-0.463789
-0.384862
-0.298416
-0.204397
-0.102571
0.00753198
0.126614
0.239016
0.328772
0.397357
0.449478
0.488216
0.515614
0.533368
0.542878
0.545635
0.545074
-0.641215
-0.6095
-0.551723
-0.480373
-0.401026
-0.314124
-0.21955
-0.116964
-0.00568513
0.115323
0.230609
0.323994
0.396619
0.453189
0.496818
0.528902
0.549533
0.55864
0.559429
0.558385
-0.658082
-0.626106
-0.567978
-0.496283
-0.41663
-0.329412
-0.234467
-0.131362
-0.0192269
0.103263
0.220863
0.31735
0.39355
0.45414
0.502941
0.541337
0.567629
0.577946
0.574218
0.570851
-0.674207
-0.641932
-0.583507
-0.511544
-0.431705
-0.344327
-0.249206
-0.145828
-0.0331609
0.0903756
0.209679
0.308623
0.387916
0.451598
0.504913
0.550578
0.586157
0.605038
0.600013
0.581085
-0.689541
-0.657007
-0.59843
-0.526317
-0.446516
-0.359172
-0.264157
-0.160836
-0.0480367
0.0759887
0.196346
0.296943
0.378889
0.444395
0.49956
0.550739
0.593889
0.615423
0.603715
0.581668
-0.703967
-0.671425
-0.612595
-0.540387
-0.460822
-0.373639
-0.279095
-0.176051
-0.063511
0.0604552
0.181117
0.282243
0.366125
0.432575
0.483182
0.532199
0.568626
0.574736
0.50979
0.46658
-0.717084
-0.685912
-0.625534
-0.553169
-0.474015
-0.387288
-0.293756
-0.191246
-0.0793411
0.0439756
0.164069
0.264618
0.349025
0.417196
0.45732
0.485534
0.505781
0.465882
0.389223
0.339753
-0.763523
-0.697737
-0.637128
-0.565853
-0.487201
-0.401231
-0.308169
-0.206631
-0.0958121
0.0262126
0.144823
0.243785
0.325983
0.398811
0.416906
0.415597
0.388264
0.320881
0.231373
0.182802
-0.724847
-0.709934
-0.653302
-0.584497
-0.506134
-0.421193
-0.329718
-0.229774
-0.120985
-0.00164896
0.11303
0.207683
0.282613
0.343759
0.351502
0.224085
0.102224
0.0169036
-0.0711778
-0.0190405
-0.751925
-0.72404
-0.667575
-0.598335
-0.520763
-0.436632
-0.345689
-0.247125
-0.140071
-0.0230878
0.0878442
0.177379
0.245448
0.278206
0.221265
0.0429818
-0.118855
-0.2341
-0.361702
-0.2759
-0.771316
-0.740351
-0.683387
-0.613792
-0.536719
-0.453242
-0.363129
-0.266185
-0.161222
-0.047229
0.0592522
0.142241
0.201
0.205473
0.0750238
-0.162901
-0.364094
-0.519706
-0.697949
-0.621075
-0.789372
-0.757043
-0.699312
-0.629304
-0.552525
-0.469728
-0.380815
-0.285586
-0.182857
-0.0723022
0.0290231
0.104971
0.151415
0.115394
-0.0973271
-0.378562
-0.639269
-0.872386
-1.13442
-1.09423
-0.805915
-0.773653
-0.715377
-0.64514
-0.568676
-0.486659
-0.399127
-0.305706
-0.205451
-0.0984738
-0.00284731
0.0652965
0.0942352
0.00848355
-0.266624
-0.586174
-0.905988
-1.1893
-1.56035
-1.87767
-0.821975
-0.790107
-0.731797
-0.661561
-0.585447
-0.504239
-0.41807
-0.326575
-0.22897
-0.125697
-0.0360227
0.0232607
0.0329177
-0.106379
-0.421266
-0.756943
-1.10172
-1.37693
-1.52903
-1.8045
-0.838124
-0.806622
-0.748678
-0.678678
-0.603064
-0.522826
-0.438201
-0.348911
-0.254271
-0.155136
-0.0720989
-0.0233341
-0.0357532
-0.243311
-0.562731
-0.884556
-1.19601
-1.38586
-1.41978
-1.45601
-0.854605
-0.823497
-0.765913
-0.696358
-0.621429
-0.542386
-0.459647
-0.373014
-0.281867
-0.187316
-0.111223
-0.0745968
-0.119553
-0.383063
-0.693564
-0.979499
-1.2428
-1.3747
-1.38626
-1.3841
-0.871507
-0.840692
-0.783402
-0.714373
-0.640277
-0.562701
-0.482182
-0.398695
-0.311645
-0.2219
-0.153132
-0.129966
-0.214674
-0.517959
-0.826276
-1.06162
-1.26591
-1.3571
-1.34347
-1.33534
-0.888591
-0.85796
-0.800937
-0.732466
-0.659386
-0.583489
-0.505646
-0.425898
-0.343563
-0.258809
-0.197342
-0.189644
-0.322801
-0.658179
-0.970584
-1.12968
-1.17426
-1.25792
-1.30616
-1.31582
-0.905468
-0.874953
-0.818143
-0.750221
-0.678306
-0.604419
-0.529729
-0.454247
-0.377836
-0.297757
-0.242219
-0.251672
-0.440377
-0.823633
-1.15672
-1.28793
-1.22727
-1.3274
-1.39041
-1.40703
-0.92134
-0.891133
-0.83442
-0.767085
-0.69648
-0.624858
-0.553781
-0.483601
-0.414049
-0.338555
-0.28659
-0.308861
-0.560282
-1.04036
-1.44969
-1.74609
-1.64401
-1.60693
-1.61449
-1.62044
-0.935619
-0.905588
-0.848946
-0.782452
-0.713142
-0.64406
-0.577219
-0.513634
-0.450871
-0.382787
-0.329267
-0.359015
-0.67187
-1.26404
-1.77822
-2.11784
-1.99197
-1.8923
-1.87531
-1.87573
-0.947351
-0.917512
-0.86131
-0.795256
-0.727369
-0.661095
-0.599234
-0.543595
-0.491655
-0.431436
-0.372402
-0.411905
-0.769133
-1.37493
-1.91101
-2.21238
-2.21274
-2.15373
-2.13149
-2.13639
-0.955228
-0.925447
-0.869735
-0.804309
-0.737993
-0.674775
-0.618574
-0.573031
-0.537312
-0.492727
-0.435245
-0.484645
-0.85009
-1.43489
-2.05426
-2.49217
-2.67108
-2.63431
-2.49804
-2.44703
-0.957888
-0.928452
-0.873082
-0.808362
-0.743659
-0.683704
-0.634022
-0.601481
-0.591163
-0.584993
-0.552715
-0.595656
-0.923383
-1.46674
-2.09122
-2.67252
-2.91815
-2.8886
-2.70412
-2.57349
-0.954132
-0.924883
-0.869784
-0.80603
-0.742915
-0.68626
-0.643819
-0.627835
-0.656735
-0.737475
-0.791526
-0.794988
-0.923923
-1.24936
-1.65361
-2.12287
-2.28787
-2.18217
-1.94564
-1.80658
-0.942535
-0.91342
-0.859125
-0.795966
-0.734314
-0.680575
-0.645325
-0.649069
-0.736372
-0.978056
-1.20762
-1.06627
-0.860909
-0.726372
-0.582554
-0.483372
-0.398325
-0.233705
-0.0599818
0.0249893
-0.921635
-0.892779
-0.83922
-0.777031
-0.716398
-0.664674
-0.635155
-0.658241
-0.817984
-1.28911
-1.77608
-1.34729
-0.744218
-0.0635896
0.569738
1.03735
1.38182
1.57238
1.67094
1.70339
-0.890696
-0.862036
-0.809457
-0.748194
-0.687979
-0.636679
-0.609111
-0.641456
-0.850419
-1.49981
-2.17438
-1.49216
-0.57577
0.37613
1.13574
1.67838
2.01534
2.15695
2.21
2.22163
-0.849113
-0.820918
-0.769332
-0.708873
-0.648315
-0.594754
-0.56231
-0.585111
-0.773677
-1.36954
-1.89601
-1.14755
-0.2464
0.620648
1.22407
1.61214
1.83457
1.94322
1.99247
2.00398
-0.796312
-0.768676
-0.718978
-0.6595
-0.598239
-0.540556
-0.49668
-0.491368
-0.59108
-0.908004
-1.03986
-0.459888
0.203826
0.773048
1.14553
1.38249
1.52421
1.60694
1.65106
1.65675
-0.731113
-0.705881
-0.658997
-0.601408
-0.540258
-0.478888
-0.422866
-0.383808
-0.384567
-0.429976
-0.328123
0.0682227
0.485969
0.801206
1.01698
1.16276
1.2605
1.32603
1.35848
1.36534
-0.655804
-0.632678
-0.590725
-0.536591
-0.477246
-0.414544
-0.350412
-0.287396
-0.226013
-0.142229
0.0294679
0.280683
0.53229
0.719622
0.855912
0.954943
1.02699
1.07669
1.10516
1.11411
-0.570035
-0.554116
-0.51519
-0.466036
-0.410989
-0.350585
-0.284539
-0.211743
-0.126657
-0.0102469
0.14902
0.321271
0.475321
0.59432
0.683769
0.75154
0.803247
0.840427
0.861254
0.867001
-0.461275
-0.453304
-0.425717
-0.386252
-0.340192
-0.287662
-0.227439
-0.157751
-0.0736087
0.0369502
0.171011
0.301351
0.411681
0.497152
0.561051
0.607791
0.641425
0.665764
0.680631
0.684043
-0.35343
-0.349842
-0.331375
-0.302659
-0.267552
-0.225652
-0.17538
-0.114711
-0.0395699
0.0573039
0.167825
0.26895
0.351412
0.414146
0.45979
0.491977
0.513877
0.527692
0.534442
0.53597
-0.251387
-0.24958
-0.23907
-0.22036
-0.195909
-0.165015
-0.125931
-0.076455
-0.0133351
0.0679177
0.157353
0.235982
0.29805
0.344141
0.376718
0.398699
0.412763
0.421039
0.424876
0.425286
-0.159266
-0.159035
-0.154026
-0.143857
-0.129008
-0.108342
-0.0800521
-0.0419379
0.00848342
0.0740875
0.14559
0.206875
0.253947
0.287925
0.311272
0.326397
0.335426
0.340236
0.34214
0.342135
-0.0839863
-0.0846269
-0.0840493
-0.0805177
-0.073158
-0.0604102
-0.0408392
-0.0125938
0.0264622
0.0781806
0.134435
0.181723
0.217342
0.242509
0.25918
0.269487
0.275345
0.278174
0.279126
0.278982
-0.0302835
-0.0311946
-0.0327264
-0.0332364
-0.0305347
-0.0233615
-0.0102675
0.0102679
0.0398679
0.079848
0.123399
0.159711
0.186522
0.205009
0.217054
0.224342
0.228212
0.229873
0.230346
0.230171
0.00428919
0.00346984
0.00155874
6.98375e-05
0.000554342
0.00426604
0.0126475
0.0272184
0.0493516
0.0799287
0.113339
0.140952
0.16114
0.174948
0.183679
0.18868
0.191174
0.192091
0.192265
0.192095
0.0253027
0.0247139
0.023153
0.0217077
0.0216453
0.0239089
0.0295213
0.0397718
0.0560131
0.0790829
0.104528
0.125562
0.140672
0.150713
0.156906
0.160386
0.16199
0.162432
0.162435
0.162289
0.0378328
0.037444
0.0363787
0.0352993
0.0350935
0.0365382
0.0405383
0.0480662
0.0601067
0.077379
0.0965266
0.112257
0.123468
0.130894
0.135418
0.137833
0.138836
0.139011
0.138941
0.138822
0.0453563
0.0451017
0.0444058
0.0436816
0.0435483
0.0445336
0.0473163
0.0527531
0.0616911
0.0746485
0.0890434
0.10087
0.109256
0.114716
0.117946
0.11962
0.120261
0.120309
0.120221
0.120126
0.0496483
0.0494765
0.0490001
0.0485007
0.0484274
0.0491789
0.0512451
0.0552375
0.0618176
0.0714662
0.0822469
0.0910606
0.0972505
0.101238
0.103571
0.104741
0.105145
0.105125
0.105036
0.104959
0.0515841
0.0514634
0.0511147
0.0507421
0.0506784
0.0512155
0.0527268
0.0556831
0.0605852
0.0677685
0.075796
0.0823506
0.0869318
0.0898591
0.0915378
0.0923512
0.0926018
0.0925501
0.0924671
0.0924056
0.0517199
0.0516345
0.0513801
0.051104
0.0510581
0.0514549
0.052568
0.0547452
0.0583708
0.0637134
0.0696917
0.0745557
0.0779344
0.0800669
0.0812717
0.0818349
0.0819841
0.0819182
0.0818445
0.0817953
0.050508
0.0504463
0.0502617
0.0500586
0.0500251
0.0503187
0.051143
0.052759
0.0554467
0.0594128
0.0638443
0.0674391
0.0699227
0.0714764
0.0723397
0.0727275
0.0728112
0.0727423
0.0726788
0.0726395
0.0483032
0.0482572
0.0481235
0.0479766
0.0479545
0.0481736
0.0487836
0.049978
0.0519702
0.0549096
0.0581904
0.0608435
0.0626668
0.0637956
0.0644113
0.0646759
0.0647181
0.0646527
0.0645989
0.0645675
0.0453759
0.0453407
0.0452434
0.0451376
0.0451239
0.0452878
0.0457403
0.0466239
0.0480973
0.0502686
0.0526921
0.054645
0.0559781
0.0567957
0.0572333
0.0574125
0.057429
0.0573695
0.0573243
0.0572993
0.0419209
0.0418935
0.0418208
0.0417428
0.0417328
0.0418536
0.0421875
0.0428395
0.0439259
0.0455295
0.0473162
0.0487479
0.0497181
0.0503072
0.0506162
0.0507355
0.0507363
0.0506833
0.0506454
0.0506256
0.0380771
0.0380555
0.0379995
0.0379399
0.0379305
0.0380179
0.0382621
0.0387413
0.0395408
0.0407195
0.042029
0.0430749
0.0437789
0.0442016
0.0444181
0.0444959
0.0444874
0.0444411
0.0444094
0.0443935
0.0339427
0.0339255
0.0338816
0.0338347
0.0338249
0.0338862
0.0340627
0.0344114
0.0349951
0.0358567
0.036813
0.0375743
0.0380829
0.0383833
0.0385322
0.03858
0.0385663
0.0385268
0.0385005
0.0384878
0.0295914
0.0295776
0.0295427
0.0295047
0.0294935
0.0295342
0.0296592
0.0299103
0.0303338
0.0309599
0.0316536
0.0322023
0.0325652
0.0327758
0.0328764
0.0329038
0.0328872
0.0328532
0.0328315
0.0328215
0.0250786
0.0250676
0.0250396
0.025008
0.0249952
0.02502
0.0251064
0.0252845
0.025587
0.0260359
0.026532
0.0269224
0.0271781
0.0273236
0.0273903
0.0274044
0.0273866
0.0273574
0.0273396
0.027332
0.020446
0.0204373
0.0204144
0.0203878
0.0203745
0.0203882
0.0204456
0.0205686
0.0207802
0.0210957
0.0214447
0.0217183
0.021895
0.0219932
0.0220342
0.0220378
0.0220195
0.0219945
0.0219798
0.0219738
0.0157236
0.0157167
0.0156985
0.0156765
0.0156636
0.0156692
0.0157049
0.0157859
0.0159279
0.0161423
0.0163792
0.0165639
0.016682
0.0167447
0.0167678
0.0167654
0.0167482
0.0167272
0.0167151
0.0167105
0.0109363
0.0109312
0.0109167
0.0108988
0.0108866
0.0108868
0.0109071
0.0109569
0.0110468
0.0111816
0.0113316
0.0114467
0.0115183
0.0115546
0.0115658
0.0115602
0.0115451
0.0115283
0.0115192
0.0115159
0.00610014
0.00609661
0.00608644
0.00607411
0.00606539
0.00606353
0.00607253
0.00609798
0.00614494
0.00621577
0.00629335
0.00635261
0.00638888
0.00640712
0.00641139
0.00640575
0.00639365
0.0063803
0.00637361
0.0063718
0.00122753
0.00122718
0.00122569
0.00122054
0.00121667
0.00121465
0.00121523
0.00121835
0.00122478
0.00123545
0.00124982
0.00126334
0.00127273
0.00127809
0.00128011
0.00127966
0.00127719
0.00127324
0.00126934
0.00126808
-0.838659
-0.564085
-0.276584
-0.0520978
0.130347
0.278301
0.404858
0.511512
0.558716
0.542761
-0.367212
-0.193526
-0.0182734
0.131263
0.258066
0.364979
0.452252
0.514721
0.548273
0.559801
-0.0621654
0.050632
0.16599
0.268935
0.357813
0.432522
0.491915
0.535632
0.566157
0.582844
0.146056
0.222584
0.303229
0.376296
0.439804
0.493535
0.537345
0.571943
0.598494
0.615992
0.301187
0.355648
0.41334
0.467215
0.514866
0.556037
0.590818
0.619421
0.641775
0.659211
0.42395
0.463634
0.509405
0.551435
0.589723
0.623685
0.653016
0.677423
0.696138
0.713471
0.527695
0.560559
0.599545
0.635861
0.669359
0.699549
0.725764
0.747331
0.763076
0.780435
0.623366
0.655268
0.692237
0.726989
0.758826
0.787321
0.811757
0.831311
0.844737
0.86221
0.723067
0.758168
0.79638
0.83172
0.863144
0.890466
0.913328
0.931131
0.943109
0.960963
0.840647
0.88018
0.919436
0.954594
0.98472
1.01011
1.031
1.04717
1.05885
1.07726
0.986963
1.02701
1.0632
1.09415
1.12023
1.14276
1.16215
1.17798
1.19086
1.20906
1.16273
1.19508
1.22123
1.24392
1.26429
1.28329
1.30115
1.31788
1.33377
1.35202
1.35093
1.36867
1.38441
1.40121
1.41754
1.43222
1.44537
1.45945
1.47664
1.49637
1.5328
1.54387
1.55614
1.56701
1.57634
1.58604
1.59708
1.60875
1.61874
1.63393
1.7441
1.74614
1.73101
1.71586
1.70962
1.71534
1.73397
1.76443
1.7966
1.82736
2.05002
1.913
1.83681
1.79483
1.77736
1.78145
1.80886
1.865
1.96848
2.18378
0.330621
0.327277
0.321435
0.31176
0.298986
0.286755
0.276643
0.268887
0.26338
0.260141
0.25963
0.262017
0.26674
0.273597
0.282682
0.294063
0.306934
0.318722
0.326039
0.330687
0.248424
0.254344
0.261387
0.2668
0.269847
0.269757
0.267135
0.263499
0.260121
0.257841
0.257497
0.259384
0.262637
0.266511
0.269998
0.271615
0.270198
0.265848
0.259751
0.252587
0.240309
0.24266
0.246293
0.249579
0.252166
0.254321
0.255606
0.25559
0.254692
0.253781
0.253743
0.254831
0.256223
0.257043
0.256596
0.254927
0.252645
0.249841
0.24627
0.243134
0.235027
0.236084
0.238262
0.24115
0.243567
0.245259
0.246523
0.247549
0.248229
0.248625
0.248943
0.249165
0.249104
0.248562
0.247656
0.246379
0.244452
0.241783
0.239153
0.237579
0.230054
0.230551
0.232178
0.234857
0.237539
0.239933
0.241786
0.24304
0.243893
0.244482
0.244902
0.245112
0.244928
0.244283
0.242998
0.241031
0.238599
0.235951
0.233706
0.232779
0.227518
0.227711
0.228711
0.230522
0.232423
0.234234
0.235992
0.237609
0.238915
0.23986
0.240433
0.2405
0.240031
0.239035
0.237683
0.236146
0.234425
0.23263
0.231168
0.230698
0.226246
0.226346
0.226887
0.227925
0.229109
0.230442
0.231742
0.233019
0.234223
0.235268
0.235961
0.236117
0.235786
0.235117
0.234252
0.23316
0.232139
0.231134
0.230362
0.230118
0.224446
0.224499
0.224796
0.225414
0.226208
0.227133
0.228282
0.22953
0.230763
0.231883
0.232711
0.233015
0.23283
0.232321
0.231622
0.230949
0.230338
0.22977
0.22938
0.229256
0.221826
0.221849
0.222029
0.222456
0.223041
0.223685
0.224491
0.225485
0.226591
0.227727
0.228703
0.229252
0.22938
0.229241
0.228999
0.22879
0.228438
0.228094
0.227877
0.227817
0.218758
0.218765
0.218889
0.219231
0.219737
0.220369
0.221144
0.22208
0.223186
0.224424
0.22561
0.22644
0.226853
0.227
0.226953
0.226724
0.226585
0.226377
0.226257
0.226233
0.215381
0.215382
0.215474
0.215736
0.216152
0.216701
0.217421
0.218354
0.219523
0.220916
0.222373
0.223525
0.224247
0.224659
0.224865
0.224921
0.224891
0.224819
0.224782
0.224777
0.211642
0.211644
0.211719
0.211944
0.212318
0.212854
0.213596
0.214599
0.215908
0.21754
0.219356
0.220896
0.221959
0.222639
0.223056
0.223288
0.223398
0.223442
0.223467
0.223473
0.207472
0.207468
0.207555
0.207771
0.208143
0.208704
0.209517
0.210655
0.212191
0.21417
0.21644
0.218448
0.219872
0.220861
0.221504
0.221908
0.222151
0.222289
0.222361
0.222377
0.2028
0.202794
0.202887
0.20313
0.203543
0.204181
0.205126
0.206477
0.208335
0.210774
0.213624
0.216194
0.218075
0.219393
0.220281
0.22086
0.221225
0.221444
0.221556
0.22158
0.197542
0.197534
0.197646
0.19793
0.19842
0.199185
0.20033
0.201983
0.20428
0.20732
0.21091
0.214178
0.216601
0.218301
0.219462
0.220231
0.220723
0.221022
0.221173
0.221205
0.191553
0.191542
0.191682
0.192035
0.192642
0.19359
0.195013
0.197076
0.199953
0.203773
0.208296
0.212427
0.215492
0.217661
0.219146
0.220132
0.220768
0.221155
0.22135
0.221391
0.184651
0.184637
0.184816
0.185266
0.186034
0.187233
0.189031
0.19164
0.195275
0.200096
0.205795
0.210995
0.214851
0.217583
0.219455
0.220702
0.221507
0.222
0.222245
0.222297
0.176586
0.176567
0.176802
0.177383
0.178371
0.179902
0.182198
0.18553
0.190154
0.196255
0.203433
0.209958
0.214783
0.218201
0.220544
0.222105
0.223117
0.223737
0.224046
0.224109
0.167016
0.166993
0.167305
0.168065
0.169348
0.171325
0.174311
0.1786
0.184491
0.192224
0.201253
0.209411
0.215424
0.219677
0.222592
0.224538
0.225804
0.226584
0.226971
0.227048
0.155468
0.155443
0.155866
0.156877
0.158564
0.161171
0.16506
0.170597
0.17817
0.187985
0.19932
0.209476
0.216936
0.222206
0.225819
0.228233
0.229809
0.230788
0.231276
0.231372
0.141263
0.141234
0.141827
0.143204
0.145467
0.148942
0.154081
0.161339
0.171099
0.183553
0.197726
0.210304
0.219505
0.226006
0.230471
0.233459
0.235414
0.236635
0.237245
0.237367
0.123407
0.123381
0.124248
0.126177
0.129297
0.134052
0.140982
0.150561
0.163188
0.178969
0.196596
0.212059
0.223333
0.231317
0.236824
0.240526
0.242955
0.244479
0.24525
0.245402
0.100402
0.100405
0.101732
0.104532
0.10899
0.115687
0.125196
0.137998
0.154397
0.174323
0.196073
0.214906
0.228606
0.238359
0.245152
0.249766
0.252821
0.254752
0.25574
0.255938
0.0698172
0.0699239
0.0720843
0.0764112
0.0831487
0.0929458
0.106314
0.12359
0.144855
0.169813
0.196346
0.219006
0.235472
0.247299
0.255669
0.261472
0.265393
0.267912
0.269197
0.269452
0.0271448
0.0275574
0.0316376
0.0391913
0.0501965
0.0651721
0.0842968
0.107608
0.134931
0.165772
0.19765
0.224489
0.243997
0.258183
0.268451
0.275799
0.280947
0.284401
0.286191
0.286517
-0.0358513
-0.0337813
-0.0241893
-0.00965563
0.00933698
0.0325586
0.0597281
0.0907025
0.125177
0.162576
0.200156
0.231361
0.254066
0.270806
0.283246
0.292516
0.299363
0.304198
0.306915
0.307283
-0.111477
-0.107685
-0.0897569
-0.0639472
-0.0344202
-0.00173138
0.0341912
0.0733444
0.115491
0.160156
0.204423
0.241159
0.268251
0.288734
0.304525
0.316873
0.326681
0.334025
0.337233
0.338678
-0.188593
-0.178384
-0.151764
-0.115811
-0.076756
-0.0349294
0.00958405
0.0567773
0.106519
0.15843
0.209403
0.251643
0.282983
0.306985
0.325859
0.340999
0.353264
0.36285
0.368495
0.37081
-0.246498
-0.235222
-0.203638
-0.161226
-0.114834
-0.0654708
-0.0134399
0.0411142
0.0979242
0.156566
0.213654
0.260657
0.295339
0.321751
0.342348
0.358665
0.371687
0.381799
0.388023
0.390491
-0.292981
-0.281303
-0.246351
-0.199356
-0.14764
-0.0925016
-0.0343562
0.0264555
0.0895113
0.154223
0.216713
0.267663
0.304846
0.332794
0.354286
0.371098
0.384365
0.394597
0.400895
0.403323
-0.331055
-0.319476
-0.282559
-0.232053
-0.176188
-0.116454
-0.0532806
0.0128602
0.0813768
0.151501
0.218899
0.273406
0.312723
0.341888
0.364008
0.381066
0.394333
0.404487
0.410747
0.413087
-0.363887
-0.35245
-0.314113
-0.260903
-0.201663
-0.138067
-0.0706201
0.000149447
0.0735656
0.148692
0.220652
0.278404
0.319624
0.349825
0.372433
0.389656
0.402918
0.412996
0.419255
0.4215
-0.393068
-0.381774
-0.342458
-0.287065
-0.225043
-0.158186
-0.0870037
-0.0120926
0.0657659
0.145477
0.221746
0.282686
0.325822
0.357094
0.38024
0.397682
0.410989
0.42101
0.427284
0.429445
-0.419771
-0.408553
-0.368421
-0.311223
-0.246891
-0.177254
-0.102845
-0.0242922
0.0576118
0.141712
0.222278
0.286502
0.331677
0.36413
0.387904
0.405632
0.419038
0.429047
0.435323
0.437394
-0.444762
-0.433589
-0.392731
-0.333984
-0.267689
-0.19567
-0.118436
-0.0365803
0.04909
0.137394
0.222241
0.289898
0.33732
0.371144
0.395689
0.413804
0.427365
0.437389
0.443675
0.445628
-0.468477
-0.457297
-0.415824
-0.355769
-0.287769
-0.213645
-0.133902
-0.0490848
0.0400461
0.132355
0.221524
0.292851
0.342802
0.378257
0.403766
0.422399
0.436194
0.446287
0.452541
0.454435
-0.491269
-0.480027
-0.437966
-0.376811
-0.307342
-0.231383
-0.149433
-0.0619682
0.0303617
0.12651
0.22002
0.295276
0.348099
0.385501
0.412224
0.431545
0.445684
0.455893
0.462126
0.463974
-0.513342
-0.501955
-0.459302
-0.397306
-0.32651
-0.248981
-0.165098
-0.0752573
0.0199922
0.119785
0.217614
0.297037
0.353107
0.392827
0.421073
0.441306
0.455933
0.466347
0.472555
0.474377
-0.534714
-0.523172
-0.480046
-0.417265
-0.345317
-0.26643
-0.180879
-0.088958
0.00892255
0.112115
0.214195
0.29797
0.35765
0.400101
0.430242
0.451672
0.466983
0.477706
0.483922
0.4857
-0.555516
-0.543767
-0.500265
-0.436678
-0.363778
-0.283743
-0.196765
-0.103046
-0.00283146
0.103484
0.209658
0.297881
0.3615
0.407141
0.439622
0.46259
0.478813
0.489986
0.49626
0.497912
-0.575677
-0.563731
-0.519902
-0.455571
-0.381872
-0.30087
-0.212693
-0.117455
-0.0152218
0.0938943
0.203915
0.296564
0.364383
0.413711
0.449058
0.473977
0.49135
0.503078
0.509434
0.510927
-0.595237
-0.583076
-0.538837
-0.47391
-0.399547
-0.317752
-0.22859
-0.132098
-0.0281659
0.0833896
0.196933
0.293859
0.366002
0.419434
0.458227
0.485659
0.504547
0.516933
0.523308
0.524573
-0.61402
-0.601742
-0.55707
-0.491652
-0.416738
-0.334303
-0.24438
-0.146885
-0.0415637
0.0720583
0.188709
0.289649
0.366051
0.423784
0.466652
0.497405
0.518366
0.531443
0.537577
0.538492
-0.632133
-0.619673
-0.574607
-0.508771
-0.433406
-0.350471
-0.259964
-0.161718
-0.0553059
0.060011
0.179286
0.283825
0.364254
0.426264
0.473718
0.508858
0.532975
0.546931
0.552107
0.552224
-0.649448
-0.636796
-0.591428
-0.525206
-0.449472
-0.366173
-0.275255
-0.176473
-0.0692695
0.0473448
0.168769
0.276346
0.360434
0.426438
0.478599
0.519218
0.54841
0.564598
0.567564
0.565054
-0.666006
-0.653196
-0.607467
-0.540914
-0.464896
-0.381349
-0.290171
-0.191066
-0.0833284
0.0342262
0.157292
0.267264
0.354493
0.423906
0.480214
0.526779
0.563489
0.586069
0.588983
0.577038
-0.681749
-0.668827
-0.62281
-0.556021
-0.479867
-0.396266
-0.305037