/*--------------------------------*- C++ -*----------------------------------*\
| =========                 |                                                 |
| \\      /  F ield         | OpenFOAM: The Open Source CFD Toolbox           |
|  \\    /   O peration     | Version:  2306                                  |
|   \\  /    A nd           | Website:  www.openfoam.com                      |
|    \\/     M anipulation  |                                                 |
\*---------------------------------------------------------------------------*/
FoamFile
{
    version     2.0;
    format      ascii;
    arch        "LSB;label=32;scalar=64";
    class       surfaceScalarField;
    location    "11";
    object      phi;
}
// * * * * * * * * * * * * * * * * * * * * * * * * * * * * * * * * * * * * * //

dimensions      [0 3 -1 0 0 0 0];

oriented        oriented;

internalField   nonuniform List<scalar> 
17370
(
-0.0910806
0.093523
0.286569
-0.0749231
0.0569149
0.364784
-0.0408797
0.0298585
0.427189
-0.0210521
0.0154073
0.504897
-0.0111254
0.00842059
0.602107
-0.00631202
0.00490684
0.720463
-0.00375086
0.00293537
0.863722
-0.00221409
0.00167031
1.03599
-0.00116214
0.000753088
1.24291
-0.000342845
-5.31064e-05
1.49159
0.000443995
-0.000852577
1.4916
0.00125592
-0.00175404
1.24319
0.00228859
-0.00300527
1.03635
0.00381855
-0.00497011
0.864058
0.00636957
-0.00847103
0.721159
0.0111686
-0.0154436
0.60349
0.0210839
-0.0298861
0.508241
0.0409035
-0.0569343
0.432199
0.0749382
-0.093532
0.365369
0.0910879
0.197923
-0.127425
0.088338
0.0390866
-0.364802
0.353986
-0.0723306
0.0831462
-0.44654
0.454391
-0.0811773
0.073326
-0.520942
0.529432
-0.0652227
0.0567328
-0.61289
0.620991
-0.0490528
0.0409511
-0.727059
0.733854
-0.0340378
0.0272427
-0.867541
0.872476
-0.0218843
0.0169497
-1.0385
1.04185
-0.0132104
0.00985858
-1.24464
1.24695
-0.0073413
0.00503337
-1.49275
1.49457
-0.00320609
0.00138517
-1.49256
1.49418
0.000235731
-0.00185648
-1.24404
1.24585
0.00366352
-0.00547807
-1.03754
1.04003
0.00776173
-0.0102504
-0.866153
0.869857
0.0135607
-0.0172643
-0.724536
0.729871
0.0221679
-0.0275033
-0.608967
0.615862
0.0342843
-0.0411787
-0.515008
0.522666
0.0492531
-0.0569108
-0.43974
0.447824
0.0653774
-0.0734616
-0.375173
0.377116
0.0812909
-0.0832343
-0.257023
0.223742
0.0723901
-0.0391093
-0.0689785
0.059383
0.00959541
-0.051265
0.0577423
-0.374829
0.368351
-0.0566273
0.0525784
-0.453928
0.457977
-0.0470077
0.0425015
-0.527754
0.53226
-0.0381454
0.0343169
-0.621067
0.624895
-0.0302002
0.0263157
-0.734795
0.73868
-0.0221014
0.0183843
-0.87388
0.877597
-0.0146037
0.0114033
-1.04314
1.04634
-0.00816276
0.00535657
-1.24831
1.25111
-0.00236032
-0.000478555
-1.49652
1.49936
0.00329596
-0.00624545
-1.497
1.49995
0.00900183
-0.012191
-1.2498
1.25299
0.0153492
-0.0190805
-1.04554
1.04927
0.0227454
-0.0268942
-0.877248
0.881397
0.0307182
-0.0347826
-0.739345
0.74341
0.0385686
-0.0428702
-0.626387
0.630688
0.0473323
-0.0528647
-0.535061
0.540593
0.0568745
-0.0579426
-0.458201
0.459269
0.0514141
-0.0314846
-0.336968
0.317039
0.00961984
-0.0689086
0.0592888
-0.0538289
0.050086
0.00374288
-0.0310915
0.04091
-0.359248
0.349429
-0.0443693
0.0438477
-0.459868
0.46039
-0.0411006
0.0380408
-0.536248
0.539308
-0.0345084
0.0313941
-0.62839
0.631504
-0.0280545
0.0250689
-0.741848
0.744834
-0.0218575
0.0188958
-0.880889
0.883851
-0.0155734
0.0124777
-1.04958
1.05268
-0.00907413
0.00597553
-1.25414
1.25724
-0.00255552
-0.000656412
-1.50244
1.50565
0.00385789
-0.0072431
-1.5032
1.50658
0.0102825
-0.0136058
-1.25633
1.25966
0.0166188
-0.0198497
-1.0528
1.05603
0.0227243
-0.0258455
-0.884815
0.887936
0.0287492
-0.032013
-0.746871
0.750135
0.0350782
-0.0385584
-0.63477
0.638251
0.0415653
-0.044252
-0.544902
0.547589
0.0447141
-0.0411798
-0.457633
0.454099
0.0312776
-0.0150749
-0.298412
0.282209
0.00377146
-0.0537079
0.0499365
-0.0473143
0.0451875
0.00212678
-0.0196348
0.0286738
-0.339759
0.33072
-0.0336329
0.0344205
-0.460111
0.459323
-0.033342
0.0314742
-0.541541
0.543409
-0.0293404
0.0271667
-0.634216
0.63639
-0.0245227
0.0220298
-0.747638
0.750131
-0.0192437
0.0167045
-0.886635
0.889175
-0.0138886
0.0112852
-1.05552
1.05812
-0.00833827
0.00552705
-1.26024
1.26305
-0.00226287
-0.000939366
-1.50892
1.51212
0.00412184
-0.00732381
-1.50994
1.51315
0.0100507
-0.0128825
-1.26276
1.26559
0.0153736
-0.0180539
-1.05899
1.06167
0.0204639
-0.0231199
-0.890912
0.893568
0.0255012
-0.0280399
-0.753137
0.755676
0.0301204
-0.0321556
-0.640932
0.642968
0.0339534
-0.0349538
-0.549221
0.550221
0.0340887
-0.0290197
-0.449553
0.444484
0.0198636
-0.00855545
-0.26848
0.257172
0.00216287
-0.0471324
0.0449695
-0.0436502
0.042683
0.000967181
-0.0101602
0.0166713
-0.322793
0.316282
-0.0216686
0.0235125
-0.458004
0.45616
-0.023528
0.02257
-0.544923
0.545881
-0.0212084
0.0198735
-0.638048
0.639383
-0.0184963
0.0172029
-0.752049
0.753342
-0.0156041
0.0139341
-0.891363
0.893033
-0.0118824
0.00980044
-1.0605
1.06258
-0.007303
0.00479885
-1.26569
1.2682
-0.00179498
-0.00121608
-1.51522
1.51824
0.00418971
-0.0070867
-1.51617
1.51906
0.00947195
-0.011841
-1.2682
1.27057
0.0137918
-0.0156852
-1.06404
1.06593
0.0172195
-0.0186377
-0.895674
0.897093
0.019768
-0.0210546
-0.757467
0.758753
0.022275
-0.0235095
-0.6446
0.645834
0.0243529
-0.0242037
-0.55065
0.550501
0.0222274
-0.0170727
-0.439206
0.434051
0.0104218
-0.00407349
-0.248405
0.242056
0.00100951
-0.0433927
0.0423832
-0.0421555
0.0418815
0.00027404
-0.00445353
0.00852775
-0.31114
0.307065
-0.0128041
0.0152922
-0.453974
0.451486
-0.0164185
0.0166215
-0.546241
0.546038
-0.0165341
0.016364
-0.64013
0.6403
-0.0158172
0.0149616
-0.754356
0.755212
-0.0137335
0.012398
-0.894365
0.895701
-0.0106747
0.00885361
-1.06441
1.06623
-0.00654734
0.00418474
-1.27059
1.27295
-0.001318
-0.00151744
-1.52114
1.52397
0.00431745
-0.00710265
-1.52188
1.52467
0.00934194
-0.0114628
-1.27272
1.27484
0.0131049
-0.0146439
-1.06747
1.06901
0.0158131
-0.016871
-0.898209
0.899267
0.0175443
-0.0178563
-0.759615
0.759927
0.0178631
-0.0177924
-0.646386
0.646316
0.0174384
-0.0161424
-0.549815
0.548519
0.0134922
-0.00903098
-0.429253
0.424792
0.00478879
-0.00161125
-0.237609
0.234432
0.00032915
-0.0418085
0.0414794
-0.0417418
0.0416854
5.63481e-05
-0.0021337
0.00485326
-0.303765
0.301045
-0.00863889
0.0117578
-0.44866
0.445542
-0.0141838
0.0155852
-0.545232
0.543831
-0.0162035
0.0163455
-0.640269
0.640127
-0.0161213
0.0155729
-0.755893
0.756442
-0.0145686
0.0132459
-0.897034
0.898357
-0.0113719
0.00930223
-1.06818
1.07025
-0.00670916
0.00410624
-1.2754
1.27801
-0.00102154
-0.00202999
-1.52686
1.52991
0.00505469
-0.00801204
-1.5275
1.53046
0.0104299
-0.0127613
-1.27707
1.2794
0.0145598
-0.0161263
-1.07059
1.07215
0.0171704
-0.0178958
-0.900155
0.900881
0.0182221
-0.0181729
-0.759928
0.759879
0.0178455
-0.0170143
-0.645867
0.645036
0.0154213
-0.012792
-0.546527
0.543898
0.009473
-0.00545663
-0.420574
0.416558
0.00253061
-0.000739392
-0.232081
0.23029
0.000119317
-0.0412807
0.0411614
-0.0416692
0.0416614
7.77118e-06
-0.00115543
0.00303988
-0.298774
0.29689
-0.00627565
0.00961851
-0.442227
0.438884
-0.0128999
0.0152255
-0.541903
0.539577
-0.016693
0.0171535
-0.63979
0.63933
-0.0171191
0.0166202
-0.756979
0.757478
-0.0155035
0.0140488
-0.899755
0.901209
-0.0120324
0.00984779
-1.07241
1.07459
-0.00709924
0.00423528
-1.28076
1.28362
-0.00075786
-0.00267855
-1.53317
1.53661
0.00605029
-0.00932688
-1.53358
1.53685
0.0119384
-0.0143698
-1.2818
1.28423
0.0162465
-0.0179049
-1.07377
1.07542
0.0190158
-0.0197299
-0.901629
0.902343
0.0199168
-0.0196873
-0.759728
0.759499
0.0189218
-0.0171415
-0.64372
0.641939
0.0145431
-0.0109666
-0.540719
0.537142
0.00735135
-0.00381757
-0.412745
0.409211
0.00166998
-0.000495014
-0.228863
0.227688
8.99382e-05
-0.0410726
0.0409827
-0.0416624
0.0416826
-2.02294e-05
-0.000493115
0.00161898
-0.295384
0.294258
-0.00389348
0.00663605
-0.435732
0.432989
-0.00975798
0.012202
-0.53706
0.534616
-0.0141388
0.0151805
-0.63858
0.637538
-0.0154367
0.0150525
-0.757964
0.758349
-0.0141308
0.0128701
-0.902621
0.903882
-0.0110523
0.00903704
-1.07673
1.07875
-0.00642477
0.00359381
-1.28653
1.28936
-8.10612e-05
-0.00340628
-1.54014
1.54363
0.00678546
-0.0100583
-1.54021
1.54349
0.0126156
-0.0149117
-1.28663
1.28893
0.016595
-0.0180043
-1.07702
1.07843
0.0188944
-0.0194059
-0.902951
0.903462
0.019349
-0.018612
-0.759186
0.758449
0.0171112
-0.0147015
-0.639743
0.637334
0.0118608
-0.00833174
-0.53344
0.529911
0.00523664
-0.00258848
-0.406073
0.403425
0.00113465
-0.000367763
-0.226726
0.225959
8.30445e-05
-0.0408912
0.0408082
-0.0417228
0.0417783
-5.55119e-05
1.46173e-05
0.000482673
-0.293482
0.292985
-0.00170475
0.00338282
-0.430775
0.429097
-0.00550959
0.00731981
-0.532445
0.530635
-0.00890851
0.00988138
-0.636499
0.635526
-0.0104001
0.0104092
-0.758487
0.758477
-0.00993844
0.00909433
-0.904924
0.905769
-0.00773409
0.00611834
-1.08058
1.08219
-0.00393847
0.00157595
-1.292
1.29436
0.00137837
-0.00430812
-1.54689
1.54982
0.00711236
-0.00973718
-1.54649
1.54912
0.0117355
-0.0135614
-1.29104
1.29286
0.0147752
-0.0155481
-1.07953
1.0803
0.0158233
-0.0156806
-0.90365
0.903508
0.0151164
-0.0139542
-0.757388
0.756225
0.0124538
-0.0103125
-0.634998
0.632857
0.00803178
-0.00542083
-0.526793
0.524182
0.00331883
-0.00164481
-0.401289
0.399615
0.000754936
-0.000268842
-0.225355
0.224869
6.75669e-05
-0.0407356
0.0406681
-0.0418479
0.0419321
-8.41699e-05
0.000314908
-0.000232049
-0.292714
0.292632
-0.000253755
0.00105015
-0.427902
0.427105
-0.00216971
0.00320725
-0.529217
0.52818
-0.00419199
0.00485876
-0.634685
0.634018
-0.00527972
0.00535408
-0.758401
0.758326
-0.00507604
0.00449993
-0.906456
0.907032
-0.00351101
0.00228793
-1.0836
1.08482
-0.000618679
-0.00114804
-1.29641
1.29818
0.00330804
-0.00543913
-1.55236
1.55449
0.00744521
-0.00920434
-1.55131
1.55307
0.0104853
-0.0116063
-1.29435
1.29547
0.0121964
-0.0123874
-1.08077
1.08096
0.0122046
-0.0116684
-0.903129
0.902593
0.010885
-0.00973257
-0.755044
0.753892
0.00844164
-0.00681321
-0.630965
0.629336
0.00522347
-0.00353152
-0.522063
0.520371
0.00223216
-0.00120699
-0.398313
0.397288
0.000626539
-0.000257516
-0.224458
0.224089
7.28836e-05
-0.0405997
0.0405268
-0.0420279
0.0421368
-0.000108847
0.00057047
-0.000704967
-0.292666
0.292801
0.000678435
-0.000448652
-0.426627
0.426397
3.43166e-05
0.000382059
-0.52748
0.527063
-0.000788562
0.00105916
-0.633549
0.633278
-0.00119481
0.00113327
-0.758303
0.758365
-0.000838448
0.000350073
-0.907543
0.908032
0.000433955
-0.00137691
-1.08589
1.08683
0.00263394
-0.00390404
-1.29967
1.30094
0.00541096
-0.00685133
-1.55625
1.55769
0.00814847
-0.00919769
-1.55444
1.55549
0.00981108
-0.0101348
-1.29619
1.29651
0.0102106
-0.010006
-1.08093
1.08073
0.00958399
-0.00889544
-0.901962
0.901273
0.00809605
-0.00707726
-0.752801
0.751782
0.00605064
-0.00486514
-0.62795
0.626765
0.00378259
-0.00267737
-0.519017
0.517912
0.00182882
-0.00111795
-0.396454
0.395744
0.000653991
-0.000297964
-0.223737
0.223381
9.04921e-05
-0.0404465
0.040356
-0.0422587
0.0423944
-0.000135689
0.000778062
-0.00110129
-0.293039
0.293362
0.00134468
-0.00146115
-0.426361
0.426477
0.00149924
-0.00151176
-0.526884
0.526896
0.00154857
-0.00163574
-0.633196
0.633283
0.00181842
-0.00209121
-0.758529
0.758802
0.00252472
-0.00305202
-0.908526
0.909053
0.00378213
-0.00458499
-1.08769
1.08849
0.00559181
-0.00655949
-1.30204
1.30301
0.00764132
-0.00859697
-1.55886
1.55982
0.00936271
-0.0098707
-1.55626
1.55677
0.0100264
-0.00990566
-1.29656
1.29644
0.00954251
-0.00903404
-1.08036
1.07985
0.00843803
-0.00766159
-0.900539
0.899763
0.00687283
-0.0059557
-0.750825
0.749907
0.00509695
-0.00416191
-0.625729
0.624794
0.0033414
-0.00251201
-0.516977
0.516147
0.00184929
-0.00123696
-0.395102
0.39449
0.000775748
-0.000372097
-0.223006
0.222603
0.000116974
-0.0402531
0.0401362
-0.0425487
0.0427208
-0.000172047
0.00102128
-0.00149434
-0.293759
0.294232
0.00195759
-0.00231573
-0.426719
0.427077
0.00266003
-0.00297219
-0.527067
0.527379
0.00334017
-0.00371831
-0.633522
0.6339
0.00419194
-0.0046916
-0.759188
0.759687
0.00532091
-0.00597311
-0.909635
0.910287
0.00677169
-0.00756635
-1.08927
1.09007
0.00848275
-0.00930661
-1.30389
1.30471
0.0101445
-0.0107809
-1.5606
1.56123
0.0111702
-0.0112665
-1.55705
1.55714
0.0110704
-0.0105791
-1.29614
1.29565
0.00998747
-0.00925866
-1.07923
1.0785
0.00851654
-0.00764397
-0.898943
0.89807
0.00681963
-0.00591264
-0.749008
0.748101
0.00509977
-0.0042429
-0.623917
0.62306
0.00350332
-0.00274896
-0.515375
0.514621
0.00211623
-0.00148191
-0.393878
0.393243
0.000959022
-0.000470151
-0.222161
0.221672
0.000149984
-0.0400037
0.0398537
-0.0429168
0.0431342
-0.000217393
0.00131122
-0.00194666
-0.294783
0.295418
0.00261297
-0.00318111
-0.427535
0.428103
0.00377876
-0.00433676
-0.527813
0.528371
0.0049845
-0.00561984
-0.634411
0.635047
0.00636924
-0.0071071
-0.760308
0.761046
0.00797298
-0.00881101
-0.911026
0.911864
0.00976784
-0.0106554
-1.0909
1.09178
0.0116065
-0.012401
-1.30551
1.3063
0.0131215
-0.0135568
-1.56176
1.56219
0.0136773
-0.0134575
-1.55708
1.55686
0.0129891
-0.0122272
-1.29501
1.29425
0.0114145
-0.0104589
-1.07766
1.0767
0.00954402
-0.00852245
-0.897129
0.896108
0.0075948
-0.00660404
-0.747163
0.746172
0.00573531
-0.00483267
-0.622195
0.621293
0.00405666
-0.00325571
-0.513858
0.513057
0.00256071
-0.00183023
-0.39257
0.391839
0.00120035
-0.000593779
-0.221129
0.220522
0.000190591
-0.0396851
0.0394945
-0.0433838
0.0436617
-0.000277919
0.00168372
-0.00251397
-0.296143
0.296973
0.00340747
-0.00419344
-0.428763
0.429549
0.00503947
-0.00583365
-0.529044
0.529838
0.00675098
-0.00764126
-0.63582
0.636711
0.00867658
-0.00967749
-0.76192
0.762921
0.0108253
-0.0119058
-0.912813
0.913894
0.0130981
-0.0141598
-1.09274
1.0938
0.015242
-0.0160916
-1.30711
1.30796
0.016782
-0.0170906
-1.56256
1.56286
0.0170003
-0.0165022
-1.55649
1.556
0.0157705
-0.0147444
-1.29336
1.29233
0.0136946
-0.0124826
-1.07562
1.07441
0.0113525
-0.01012
-0.894985
0.893752
0.00902147
-0.00786377
-0.745106
0.743948
0.00685784
-0.00581764
-0.620336
0.619296
0.00492282
-0.00399154
-0.512207
0.511275
0.00316902
-0.00228476
-0.391041
0.390157
0.00150689
-0.000748161
-0.219846
0.219087
0.000240828
-0.039282
0.0390412
-0.0439814
0.0443415
-0.000360182
0.00217524
-0.00325201
-0.297911
0.298988
0.00441987
-0.00545343
-0.430434
0.431468
0.00656689
-0.00761035
-0.530773
0.531816
0.00881306
-0.00998186
-0.637776
0.638944
0.0113421
-0.0126547
-0.764085
0.765397
0.0141501
-0.0155424
-0.915103
0.916495
0.0170522
-0.0183652
-1.09496
1.09627
0.0196611
-0.0206336
-1.30885
1.30982
0.0213569
-0.0215825
-1.56312
1.56335
0.021306
-0.0205329
-1.55536
1.55459
0.0195194
-0.0181804
-1.29115
1.28981
0.0168414
-0.0153154
-1.07304
1.07151
0.0139126
-0.0124006
-0.892377
0.890865
0.0110645
-0.00966432
-0.742673
0.741272
0.00845045
-0.00719443
-0.618168
0.616912
0.00611021
-0.00497468
-0.510271
0.509135
0.00396343
-0.00286662
-0.389182
0.388085
0.00189512
-0.000942784
-0.218242
0.217289
0.000304385
-0.0387761
0.0384717
-0.0447527
0.0452245
-0.000471794
0.00282735
-0.0042203
-0.300198
0.301591
0.00572576
-0.00704742
-0.432636
0.433957
0.00845868
-0.00978064
-0.533079
0.534401
0.0113106
-0.0128167
-0.640359
0.641865
0.0145883
-0.0163028
-0.7669
0.768614
0.0182448
-0.0200295
-0.918018
0.919803
0.0219427
-0.023584
-1.09767
1.09931
0.0251697
-0.026321
-1.31083
1.31198
0.0271194
-0.0272787
-1.56352
1.56368
0.0268078
-0.025727
-1.55365
1.55257
0.0243835
-0.0226597
-1.28828
1.28656
0.02096
-0.0190414
-1.06978
1.06787
0.0172935
-0.0154232
-0.889152
0.887282
0.0137796
-0.0120621
-0.739701
0.737984
0.0105726
-0.00902606
-0.615538
0.613991
0.00768254
-0.00626466
-0.507917
0.506499
0.00499519
-0.00361444
-0.386882
0.385502
0.0023919
-0.00119205
-0.216234
0.215034
0.000386702
-0.0381451
0.0377584
-0.0457594
0.0463806
-0.000621162
0.0036895
-0.00549007
-0.303162
0.304963
0.00741767
-0.00908767
-0.435505
0.437175
0.0108521
-0.0125105
-0.536095
0.537753
0.0144539
-0.0164062
-0.643698
0.64565
0.0187312
-0.0209827
-0.770501
0.772752
0.0235092
-0.0257944
-0.921706
0.923991
0.0281938
-0.0302255
-1.10103
1.10307
0.0321614
-0.0335288
-1.31316
1.31453
0.0344164
-0.0344939
-1.56375
1.56383
0.0337855
-0.0323281
-1.55129
1.54983
0.0305773
-0.0283727
-1.28459
1.28238
0.0262212
-0.023811
-1.06568
1.06327
0.0216297
-0.01931
-0.88513
0.882811
0.0172817
-0.015169
-0.736016
0.733903
0.0133364
-0.0114254
-0.612286
0.610375
0.0097503
-0.00796188
-0.505008
0.503219
0.00634747
-0.00458638
-0.38402
0.382259
0.00303404
-0.00151375
-0.213725
0.212205
0.000493918
-0.0373615
0.0368676
-0.0470893
0.0479144
-0.000825121
0.0048506
-0.00719532
-0.307019
0.309364
0.00968102
-0.0118065
-0.439225
0.44135
0.0140277
-0.0161262
-0.540005
0.542103
0.0186169
-0.0211389
-0.648005
0.650527
0.0241621
-0.0270726
-0.775098
0.778008
0.0303121
-0.0332212
-0.926342
0.929251
0.0362563
-0.0387765
-1.10517
1.10769
0.0411157
-0.042712
-1.3159
1.31749
0.0436648
-0.0436036
-1.56378
1.56372
0.0425745
-0.0406332
-1.54811
1.54617
0.0383686
-0.0355586
-1.27986
1.27705
0.0328404
-0.0298134
-1.0605
1.05748
0.0270879
-0.0242049
-0.880102
0.877219
0.0216982
-0.0191012
-0.731419
0.728822
0.016854
-0.0145067
-0.608232
0.605884
0.0124306
-0.0101811
-0.501382
0.499132
0.00812144
-0.00585608
-0.380449
0.378184
0.00386209
-0.00192318
-0.210593
0.208654
0.000628951
-0.0363905
0.0357615
-0.0488658
0.0499949
-0.00112914
0.00653198
-0.00964703
-0.31206
0.315175
0.0128953
-0.0156252
-0.444052
0.446782
0.0184473
-0.0211441
-0.545062
0.547759
0.024395
-0.0277025
-0.653519
0.656826
0.0316222
-0.0353437
-0.780964
0.784686
0.0394387
-0.0430678
-0.932159
0.935789
0.0467923
-0.0498234
-1.11023
1.11326
0.0525687
-0.054366
-1.31905
1.32085
0.0553151
-0.0550132
-1.56346
1.56316
0.0535368
-0.0509653
-1.54389
1.54132
0.0480498
-0.0444834
-1.27384
1.27028
0.0410604
-0.0372664
-1.05401
1.05021
0.0338603
-0.0302689
-0.873823
0.870232
0.0271596
-0.0239574
-0.725685
0.722483
0.0212011
-0.0183309
-0.603164
0.600294
0.0157803
-0.0129833
-0.496837
0.49404
0.0103801
-0.00747802
-0.375977
0.373075
0.00491623
-0.00242444
-0.206685
0.204194
0.000787385
-0.0351844
0.034397
-0.0512762
0.0528976
-0.00162141
0.0091558
-0.0133796
-0.318715
0.322939
0.0176352
-0.0211357
-0.450384
0.453885
0.0247388
-0.028232
-0.551653
0.555146
0.0324912
-0.0368028
-0.660616
0.664927
0.0418384
-0.0465256
-0.788406
0.793094
0.0515901
-0.0560014
-0.939403
0.943814
0.0604532
-0.0640026
-1.11628
1.11983
0.0671176
-0.0690366
-1.32253
1.32445
0.0698499
-0.0691512
-1.56257
1.56187
0.067058
-0.0636764
-1.53831
1.53492
0.0599525
-0.0554636
-1.26624
1.26175
0.0511868
-0.0464622
-1.0459
1.04117
0.0422243
-0.0377554
-0.866018
0.861549
0.0338886
-0.0299173
-0.718561
0.714589
0.0265141
-0.0229885
-0.596847
0.593321
0.0198549
-0.0163998
-0.491135
0.48768
0.0131393
-0.00945749
-0.37035
0.366669
0.00621053
-0.0030653
-0.201783
0.198638
0.000988649
-0.0336847
0.032696
-0.0546432
0.0570924
-0.00244915
0.0134013
-0.019227
-0.327659
0.333485
0.0248276
-0.029361
-0.45877
0.463303
0.0340588
-0.0386799
-0.560261
0.564882
0.0443015
-0.0498793
-0.669764
0.675342
0.056227
-0.0619894
-0.79781
0.803573
0.0680833
-0.0732802
-0.948217
0.953414
0.0783965
-0.0823416
-1.12327
1.12722
0.0856293
-0.0874521
-1.32611
1.32793
0.0878634
-0.0865162
-1.56072
1.55937
0.0835705
-0.0791611
-1.53097
1.52656
0.0744588
-0.0688811
-1.25669
1.25111
0.0636104
-0.0578076
-1.03585
1.03005
0.0526029
-0.0471026
-0.856373
0.850873
0.0423307
-0.0374237
-0.709744
0.704837
0.0332209
-0.0288804
-0.588996
0.584655
0.0250289
-0.0207748
-0.48398
0.479726
0.0167192
-0.012092
-0.363229
0.358601
0.00793014
-0.00387646
-0.195638
0.191585
0.00123525
-0.0318187
0.0305834
-0.0595806
0.063515
-0.00393441
0.0205182
-0.0286887
-0.340031
0.348201
0.0361319
-0.0420569
-0.470053
0.475978
0.0482632
-0.0544349
-0.57156
0.577732
0.0618353
-0.0689256
-0.681477
0.688568
0.0767202
-0.0835794
-0.809382
0.816241
0.0906212
-0.0964339
-0.95853
0.964342
0.101933
-0.105956
-1.1309
1.13492
0.109023
-0.110375
-1.32931
1.33066
0.109974
-0.107616
-1.55737
1.55502
0.103506
-0.0978077
-1.52142
1.51572
0.0919422
-0.0851146
-1.24486
1.23803
0.0787309
-0.0717369
-1.02358
1.01658
0.0654712
-0.058837
-0.844588
0.837953
0.0530626
-0.0470983
-0.698914
0.692949
0.0419736
-0.0366788
-0.57927
0.573975
0.0319751
-0.0267279
-0.475004
0.469757
0.0216347
-0.0157084
-0.354208
0.348281
0.0103049
-0.00501726
-0.187835
0.182547
0.00158034
-0.0294901
0.0279098
-0.0672575
0.0745137
-0.0072562
0.0343802
-0.046255
-0.357984
0.369859
0.0562306
-0.0638021
-0.485412
0.492983
0.0718129
-0.0798092
-0.586302
0.594299
0.0890603
-0.097484
-0.696038
0.704462
0.10634
-0.113829
-0.822935
0.830423
0.121225
-0.127058
-0.969794
0.975628
0.132281
-0.135777
-1.13838
1.14188
0.13801
-0.138342
-1.33127
1.33161
0.136598
-0.132784
-1.55176
1.54795
0.127153
-0.119893
-1.50913
1.50187
0.112681
-0.104476
-1.23044
1.22223
0.0968956
-0.0886544
-1.00886
1.00062
0.0812956
-0.0735086
-0.830472
0.822685
0.0667131
-0.0596629
-0.685837
0.678787
0.0535806
-0.0472886
-0.56734
0.561048
0.0416921
-0.0353499
-0.463722
0.45738
0.0289145
-0.0211422
-0.342558
0.334785
0.0138071
-0.00655294
-0.177727
0.170472
0.00195826
-0.0265616
0.0246034
-0.0815603
0.0847496
-0.00318926
0.0230144
-0.0331459
-0.384842
0.394974
0.0423722
-0.0501368
-0.50588
0.513644
0.0593109
-0.0690539
-0.604241
0.613984
0.0798024
-0.0893904
-0.712574
0.722162
0.100056
-0.109481
-0.837223
0.846648
0.119269
-0.12766
-0.980599
0.98899
0.135999
-0.142674
-1.14434
1.15102
0.148611
-0.152485
-1.3308
1.33467
0.154525
-0.153853
-1.54293
1.54226
0.150334
-0.144355
-1.49356
1.48758
0.137325
-0.128382
-1.21319
1.20425
0.119609
-0.109058
-0.991638
0.981087
0.0993448
-0.0886289
-0.81406
0.803344
0.0790118
-0.0687686
-0.670563
0.66032
0.0594978
-0.0499858
-0.553152
0.54364
0.0417438
-0.0323296
-0.449689
0.440275
0.0234869
-0.0143169
-0.327102
0.317932
0.00743282
-0.00247068
-0.16388
0.158918
0.000269209
-0.0228068
0.0225376
-0.0921638
0.0884103
0.00375351
-0.000524198
-0.0054069
-0.408039
0.41397
0.0131134
-0.0199839
-0.525755
0.532625
0.0286973
-0.0371391
-0.623929
0.632371
0.0467715
-0.0555732
-0.731728
0.74053
0.0649747
-0.0735053
-0.855661
0.864192
0.0823882
-0.0897345
-0.997166
1.00451
0.0972518
-0.102955
-1.15763
1.16333
0.108009
-0.111058
-1.33838
1.34143
0.112105
-0.110768
-1.54093
1.53959
0.106767
-0.100518
-1.48098
1.47473
0.0932303
-0.0842506
-1.19499
1.18601
0.0756024
-0.0657071
-0.970432
0.960537
0.0564359
-0.0461434
-0.792015
0.781723
0.0369228
-0.0274476
-0.648403
0.638928
0.0193432
-0.0110251
-0.531629
0.523311
0.00393309
0.00276341
-0.428441
0.421744
-0.00730715
0.00945606
-0.307483
0.305334
-0.00866137
0.00556244
-0.152196
0.155295
-0.00232408
-0.02109
0.0234141
-0.090768
0.0869722
0.00379573
-0.00795402
0.00547886
-0.423256
0.425731
-0.000666294
-0.0049806
-0.542488
0.548135
0.0121378
-0.0193365
-0.641129
0.648327
0.0275087
-0.0350206
-0.748858
0.75637
0.0432637
-0.0506099
-0.872077
0.879423
0.0580653
-0.0646139
-1.01172
1.01827
0.071178
-0.0763055
-1.16874
1.17387
0.080495
-0.0828855
-1.34404
1.34643
0.0837107
-0.0822296
-1.53785
1.53637
0.0783663
-0.07258
-1.46827
1.46248
0.0660552
-0.058336
-1.17738
1.16966
0.0506919
-0.0423277
-0.950873
0.942508
0.0346325
-0.0262561
-0.772166
0.76379
0.019089
-0.011769
-0.629273
0.621953
0.00576213
0.000314006
-0.513585
0.507508
-0.00495392
0.00887673
-0.413068
0.409146
-0.0109393
0.0106055
-0.299148
0.299482
-0.00811733
0.00464672
-0.154021
0.157492
-0.00180685
-0.0236283
0.0254352
-0.0878892
0.0843413
0.00354786
-0.01024
0.00969092
-0.432641
0.43319
-0.00659588
0.00213896
-0.555676
0.560133
0.00397067
-0.00992368
-0.655344
0.661297
0.0168421
-0.0232256
-0.763635
0.770018
0.0302018
-0.0364569
-0.886358
0.892614
0.0432002
-0.0487765
-1.02446
1.03003
0.0545929
-0.0587658
-1.17871
1.18288
0.0625398
-0.0647286
-1.34881
1.351
0.0654156
-0.0639067
-1.5348
1.5333
0.0606771
-0.0558464
-1.45666
1.45183
0.0503701
-0.0436657
-1.16231
1.1556
0.0374298
-0.0307202
-0.934545
0.927835
0.0244935
-0.0180839
-0.756122
0.749712
0.0123169
-0.00668282
-0.614459
0.608825
0.00211336
0.00207816
-0.500436
0.496245
-0.00503121
0.00731192
-0.402765
0.400484
-0.0083127
0.00730902
-0.29506
0.296063
-0.00538041
0.00299898
-0.156468
0.158849
-0.00118555
-0.0252416
0.0264272
-0.0851776
0.0822896
0.00288802
-0.010064
0.0107443
-0.438619
0.437939
-0.00834205
0.00478668
-0.566492
0.570048
0.000153635
-0.00544611
-0.667274
0.672566
0.0111986
-0.0167572
-0.776022
0.781581
0.0227415
-0.0281414
-0.898524
0.903924
0.0339292
-0.038933
-1.03554
1.04054
0.0439475
-0.0479202
-1.18702
1.191
0.051353
-0.0533958
-1.35302
1.35506
0.0541365
-0.0529123
-1.53191
1.53069
0.0502148
-0.0459889
-1.44677
1.44254
0.0413829
-0.0358973
-1.14934
1.14386
0.0307305
-0.0250827
-0.921361
0.915713
0.0200697
-0.0148459
-0.743553
0.738329
0.010365
-0.00591931
-0.603213
0.598767
0.00243402
0.000693639
-0.490907
0.487779
-0.00299259
0.00459652
-0.395732
0.394128
-0.0051358
0.00469107
-0.292428
0.292872
-0.0035457
0.00192452
-0.157055
0.158676
-0.000839679
-0.0258517
0.0266914
-0.0830982
0.0807382
0.00235998
-0.00902155
0.00991551
-0.442454
0.441561
-0.00855913
0.00546426
-0.574878
0.577972
-0.000869645
-0.00359933
-0.677369
0.681838
0.00851569
-0.0133238
-0.786636
0.791445
0.0186222
-0.0234447
-0.909091
0.913913
0.0287576
-0.033184
-1.04534
1.04977
0.0377793
-0.0414686
-1.19478
1.19847
0.0446628
-0.0466351
-1.35698
1.35896
0.0474689
-0.0468843
-1.52961
1.52903
0.0446077
-0.0411305
-1.43821
1.43473
0.037137
-0.0323657
-1.13852
1.13375
0.02809
-0.0231007
-0.910272
0.905283
0.0187468
-0.0143657
-0.733307
0.728926
0.0105522
-0.00676167
-0.594383
0.590593
0.00374133
-0.000863542
-0.483597
0.480719
-0.000949619
0.00233868
-0.390175
0.388786
-0.00319706
0.0031341
-0.289423
0.289486
-0.00242877
0.0014169
-0.156316
0.157328
-0.000642962
-0.0258817
0.0265247
-0.0816444
0.0798439
0.00180055
-0.00749403
0.00852363
-0.445174
0.444145
-0.00728274
0.00480959
-0.58227
0.584743
-0.000712671
-0.00326168
-0.686083
0.690057
0.00789186
-0.0120163
-0.796069
0.800193
0.016664
-0.0209497
-0.918794
0.92308
0.0260159
-0.0300844
-1.0543
1.05837
0.0342522
-0.0378487
-1.20208
1.20568
0.0413232
-0.043311
-1.36106
1.36305
0.0444185
-0.0440419
-1.52821
1.52783
0.0424279
-0.0391734
-1.43122
1.42796
0.0357669
-0.0316266
-1.12899
1.12485
0.027667
-0.0233286
-0.900482
0.896144
0.0193422
-0.0151838
-0.72442
0.720261
0.0119159
-0.00834507
-0.586644
0.583073
0.00541234
-0.00282763
-0.477081
0.474496
0.000899698
0.000732153
-0.38535
0.383718
-0.00163752
0.00188996
-0.286301
0.286049
-0.00158058
0.00100293
-0.154836
0.155414
-0.000499203
-0.0256102
0.0261094
-0.0808544
0.0794475
0.00140691
-0.0060047
0.00701606
-0.447268
0.446256
-0.00581342
0.00345851
-0.588646
0.591001
0.00020552
-0.00372979
-0.693839
0.697363
0.00768732
-0.011655
-0.804423
0.808391
0.0159463
-0.0203701
-0.927257
0.931681
0.0247625
-0.0286827
-1.06261
1.06653
0.0330122
-0.0364292
-1.20925
1.21267
0.0395334
-0.0420188
-1.36505
1.36754
0.0434326
-0.0434656
-1.5276
1.52763
0.0421405
-0.0395285
-1.42496
1.42235
0.0364631
-0.0326259
-1.12044
1.11661
0.0289891
-0.0248749
-0.89171
0.887596
0.0211044
-0.0172774
-0.716156
0.712329
0.0138375
-0.0104274
-0.579309
0.575899
0.00763646
-0.00484477
-0.471137
0.468346
0.00272701
-0.00114681
-0.380395
0.378815
-1.72217e-05
0.000665025
-0.282836
0.282188
-0.000811681
0.000623208
-0.152883
0.153071
-0.000379789
-0.0251606
0.0255404
-0.0806609
0.079478
0.00118292
-0.00448824
0.00518207
-0.449211
0.448517
-0.00417292
0.00189162
-0.594411
0.596693
0.00139686
-0.00474297
-0.700991
0.704337
0.00851032
-0.012087
-0.812286
0.815863
0.0164799
-0.0201466
-0.93561
0.939276
0.0245061
-0.0282648
-1.07065
1.07441
0.0325173
-0.0361674
-1.21615
1.2198
0.0396133
-0.041971
-1.3699
1.37226
0.0438097
-0.0442979
-1.52768
1.52817
0.0436186
-0.0412913
-1.41962
1.4173
0.0385615
-0.0349498
-1.11281
1.1092
0.0314884
-0.027422
-0.883224
0.879157
0.0238012
-0.0198805
-0.708227
0.704306
0.0164439
-0.0129248
-0.572226
0.568707
0.00993135
-0.0072058
-0.464991
0.462266
0.0048652
-0.00300867
-0.375342
0.373486
0.00154431
-0.000568693
-0.278968
0.277992
3.59136e-05
0.00030223
-0.150394
0.150055
-0.00027076
-0.0244996
0.0247704
-0.0807468
0.0798976
0.000849184
-0.00322047
0.00340004
-0.451366
0.451186
-0.00258506
0.000387808
-0.599403
0.601601
0.00253985
-0.0057276
-0.707568
0.710756
0.00930262
-0.0129801
-0.819406
0.823083
0.0167734
-0.020578
-0.943177
0.946981
0.0248943
-0.0284576
-1.07861
1.08218
0.0328171
-0.0364644
-1.22334
1.22698
0.0400301
-0.0429641
-1.37512
1.37806
0.0453541
-0.0461803
-1.52881
1.52964
0.0457575
-0.0440643
-1.41512
1.41343
0.0417487
-0.0382959
-1.1054
1.10195
0.034838
-0.0309772
-0.874928
0.871067
0.0269958
-0.023141
-0.700056
0.696201
0.0196162
-0.015889
-0.565089
0.561362
0.0128801
-0.00982707
-0.458649
0.455596
0.00735082
-0.00502196
-0.370169
0.36784
0.00337137
-0.0020085
-0.274645
0.273282
0.000892217
-7.58146e-05
-0.147375
0.146558
-0.000182913
-0.0236071
0.02379
-0.0812266
0.0805251
0.000701455
-0.00223775
0.00239411
-0.453753
0.453597
-0.00108531
-0.000865999
-0.604314
0.606265
0.00384534
-0.00684715
-0.7136
0.716602
0.0102359
-0.0135078
-0.826517
0.829789
0.01739
-0.0208725
-0.950811
0.954294
0.0251235
-0.029097
-1.0862
1.09018
0.0331213
-0.0371108
-1.23072
1.23471
0.0411368
-0.044237
-1.381
1.3841
0.0470886
-0.0487528
-1.53082
1.53248
0.048812
-0.0477003
-1.41165
1.41054
0.045506
-0.042333
-1.09845
1.09528
0.039057
-0.035073
-0.866732
0.862748
0.0311555
-0.0270699
-0.69176
0.687674
0.0233768
-0.0193779
-0.557348
0.553349
0.0160435
-0.0128075
-0.451945
0.448709
0.00992028
-0.00727837
-0.36437
0.361728
0.00521705
-0.00340012
-0.26968
0.267863
0.00188746
-0.000560399
-0.143766
0.142439
-3.0997e-05
-0.0225444
0.0225754
-0.081933
0.0813818
0.000551185
-0.00124935
0.00118133
-0.45629
0.456358
-0.0001184
-0.00209706
-0.608712
0.610927
0.00492398
-0.00771838
-0.719314
0.722108
0.0111396
-0.0142348
-0.833083
0.836178
0.0179353
-0.0215041
-0.958243
0.961812
0.0256386
-0.0295662
-1.09403
1.09796
0.0338033
-0.0378362
-1.23867
1.2427
0.042085
-0.0459724
-1.38756
1.39145
0.0493662